  ==> Input File <==

--------------------------------------------------------------------------
set {
	reference rhf
	basis 6-31G*
}

set_num_threads( 4 )
memory 2 gb

molecule MOL {
0 1

H	 1.142300	 -2.448794	 -0.547225
C	 0.470496	 -2.588149	 0.308380
C	 -0.813803	 -1.801944	 0.250101
O	 0.776670	 -3.317924	 1.194842
C	 -0.558097	 -0.297372	 0.091132
H	 -1.382819	 -2.013553	 1.147834
H	 -1.385510	 -2.162802	 -0.604161
C	 -1.850991	 0.512573	 -0.019058
H	 0.020380	 0.059576	 0.940088
H	 0.051951	 -0.122910	 -0.793324
C	 -3.096943	 -0.368295	 -0.099594
H	 -1.800724	 1.150330	 -0.898172
H	 -1.931651	 1.177355	 0.838044
H	 -3.060452	 -1.020287	 -0.967456
H	 -3.996858	 0.233488	 -0.175704
H	 -3.191959	 -0.995686	 0.782074

	symmetry c1
}
set optking {
	frozen_dihedral = ("
		9 5 8 12
	")
}

ee = optimize('scf')
oeprop('DIPOLE', 'QUADRUPOLE', 'MULLIKEN_CHARGES')
f=open( 'psi4out.xyz', 'w' )
f.write( "16  " )
f.write( str(ee) + "\n" )
f.write( MOL.save_string_xyz() )
f.close()
--------------------------------------------------------------------------

    Molecular point group: c1
  Charge       = 0
  Multiplicity = 1
  Basis Set: 6-31G*
  Basis Set:
  @DF-RHF Final Energy:  -270.00590603082441
    Total Energy =                       -270.0059060308244057
    Molecular point group: c1
  Basis Set: 6-31G*
  Basis Set:
  Basis Set: 6-31G*
  Basis Set:
  @DF-RHF Final Energy:  -270.00583151623300
    Total Energy =                       -270.0058315162331155
  Basis Set: 6-31G*
  Basis Set:
  Basis Set: 6-31G*
  Basis Set:
  @DF-RHF Final Energy:  -270.00964508578539
    Total Energy =                       -270.0096450857854506
  Basis Set: 6-31G*
  Basis Set:
  Basis Set: 6-31G*
  Basis Set:
  @DF-RHF Final Energy:  -270.00956294054851
    Total Energy =                       -270.0095629405485056
  Basis Set: 6-31G*
  Basis Set:
  @DF-RHF Final Energy:  -270.00772872187400
    Total Energy =                       -270.0077287218741731
  @DF-RHF Final Energy:  -270.01024874296286
    Total Energy =                       -270.0102487429630855
  Basis Set: 6-31G*
  Basis Set:
  @DF-RHF Final Energy:  -270.01020382551962
    Total Energy =                       -270.0102038255196248
  Basis Set: 6-31G*
  Basis Set:
  Basis Set: 6-31G*
  Basis Set:
  @DF-RHF Final Energy:  -270.01025350517779
    Total Energy =                       -270.0102535051778432
  Basis Set: 6-31G*
  Basis Set:
  Basis Set: 6-31G*
  Basis Set:
  @DF-RHF Final Energy:  -270.01025866981638
    Total Energy =                       -270.0102586698164373
  Basis Set: 6-31G*
  Basis Set:
  Charge       = 0
  Multiplicity = 1
  Basis Set: 6-31G*
  Basis Set:

    Orbital Energies (a.u.)
    -----------------------

    Doubly Occupied:

       1A    -20.562191     2A    -11.326137     3A    -11.237261
       4A    -11.234548     5A    -11.229878     6A    -11.219043
       7A     -1.401984     8A     -1.092175     9A     -1.014563
      10A     -0.915301    11A     -0.810748    12A     -0.785218
      13A     -0.677292    14A     -0.647430    15A     -0.637153
      16A     -0.586651    17A     -0.576661    18A     -0.565061
      19A     -0.534123    20A     -0.516555    21A     -0.485912
      22A     -0.473966    23A     -0.465777    24A     -0.409477

  @DF-RHF Final Energy:  -270.01025958856405

   => Energetics <=

    Nuclear Repulsion Energy =            232.0758290225408871
    One-Electron Energy =                -825.3619652684251378
    Two-Electron Energy =                 323.2758766573201683
    DFT Exchange-Correlation Energy =       0.0000000000000000
    Empirical Dispersion Energy =           0.0000000000000000
    PCM Polarization Energy =               0.0000000000000000
    EFP Energy =                            0.0000000000000000
    Total Energy =                       -270.0102595885640540
    Molecular point group: c1
  Basis Set: 6-31G*
  Basis Set:

  -Total Gradient:
     Atom            X                  Y                   Z
    ------   -----------------  -----------------  -----------------
       1        0.000037248882    -0.000045140148     0.000017295795
       2       -0.000005669190     0.000043517870     0.000040183548
       3        0.000070266113     0.000101730649    -0.000011169219
       4        0.000039577930    -0.000045509056    -0.000046493886
       5        0.000979894999     0.001284485819    -0.001712004016
       6       -0.000003317246     0.000006057111    -0.000013034292
       7        0.000004739443     0.000003598164     0.000019452277
       8        0.000815737876     0.001507861742     0.001635921347
       9       -0.000957727512    -0.001426035532     0.001255517899
      10        0.000002147251    -0.000059872998    -0.000022936909
      11        0.000012236113     0.000094090667     0.000001336669
      12       -0.000965953589    -0.001477652339    -0.001184832409
      13       -0.000056686001    -0.000020751915     0.000026565573
      14        0.000016085719    -0.000005663074     0.000013618468
      15        0.000003587858     0.000015978972    -0.000001807622
      16        0.000007831350     0.000023304067    -0.000017613225

  **** Optimization is complete! (in 10 steps) ****
    Final optimized geometry and variables:
    Molecular point group: c1

    Geometry (in Angstrom), charge = 0, multiplicity = 1:

    H            2.036307868017    -1.100738378201    -0.858921759224
    C            1.394079983415    -1.257361487156     0.016144271740
    C            0.059636661269    -0.558378709355    -0.032836115232
    O            1.768647848664    -1.936736678367     0.916400582740
    C            0.246091303077     0.959073331218    -0.199358106520
    H           -0.478815286452    -0.803273335821     0.873862614916
    H           -0.492157009661    -0.966323428329    -0.876612661137
    C           -1.052485710029     1.805957990755    -0.313065511262
    H            0.818732991817     1.308195967786     0.654617008968
    H            0.865686806330     1.133916962179    -1.074586316847
    C           -2.374679651042     1.040037177215    -0.417606112838
    H           -0.974357581129     2.440785901718    -1.190231401006
    H           -1.112746995038     2.473198906692     0.540368069545
    H           -2.409030393826     0.405952316019    -1.297772778970
    H           -3.198555650227     1.742610377807    -0.493046398902
    H           -2.557440788447     0.416499955416     0.450832953143

  Mulliken Charges: (a.u.)
   Center  Symbol    Alpha    Beta     Spin     Total
       1     H     0.43236  0.43236  0.00000  0.13527
       2     C     2.82972  2.82972  0.00000  0.34057
       3     C     3.20948  3.20948  0.00000 -0.41896
       4     O     4.23721  4.23721  0.00000 -0.47443
       5     C     3.17018  3.17018  0.00000 -0.34037
       6     H     0.39878  0.39878  0.00000  0.20244
       7     H     0.40897  0.40897  0.00000  0.18206
       8     C     3.15489  3.15489  0.00000 -0.30978
       9     H     0.41008  0.41008  0.00000  0.17985
      10     H     0.41696  0.41696  0.00000  0.16608
      11     C     3.24448  3.24448  0.00000 -0.48896
      12     H     0.41710  0.41710  0.00000  0.16579
      13     H     0.41546  0.41546  0.00000  0.16908
      14     H     0.42087  0.42087  0.00000  0.15826
      15     H     0.41555  0.41555  0.00000  0.16889
      16     H     0.41789  0.41789  0.00000  0.16422

   Total alpha = 24.00000, Total beta = 24.00000, Total charge =  0.00000
