  ==> Input File <==

--------------------------------------------------------------------------
set {
	reference rhf
	basis cc-pvtz
}

set_num_threads( 4 )
memory 2 gb

molecule MOL {
0 1

H	 -3.406674	 -0.989771	 0.264644
O	 -3.113209	 -0.146055	 -0.029257
C	 -1.774932	 -0.060196	 -0.008227
C	 -0.973971	 -1.117406	 0.405540
C	 -1.203594	 1.133114	 -0.417822
H	 -1.424601	 -2.040057	 0.721888
C	 0.393390	 -0.975943	 0.407580
H	 -1.839306	 1.935918	 -0.733092
C	 0.167252	 1.258588	 -0.409861
H	 1.022319	 -1.784093	 0.724520
C	 0.981121	 0.213562	 0.000000
H	 0.611576	 2.183924	 -0.727426
C	 2.447402	 0.371303	 0.000000
O	 3.227427	 -0.521847	 0.000000
H	 2.796538	 1.409525	 0.000000

	symmetry c1
}
set optking {
	frozen_dihedral = ("
		7 11 13 14
	")
}

ee = optimize('scf')
oeprop('DIPOLE', 'QUADRUPOLE', 'MULLIKEN_CHARGES')
f=open( 'psi4out.xyz', 'w' )
f.write( "15  " )
f.write( str(ee) + "\n" )
f.write( MOL.save_string_xyz() )
f.close()
--------------------------------------------------------------------------

    Molecular point group: c1
  Charge       = 0
  Multiplicity = 1
  Basis Set: CC-PVTZ
  Basis Set:
  @DF-RHF Final Energy:  -418.44093938047240
    Total Energy =                       -418.4409393804725141
    Molecular point group: c1
  Basis Set: CC-PVTZ
  Basis Set:
  Basis Set: CC-PVTZ
  Basis Set:
  @DF-RHF Final Energy:  -418.43996151982765
    Total Energy =                       -418.4399615198278752
  Basis Set: CC-PVTZ
  Basis Set:
  Basis Set: CC-PVTZ
  Basis Set:
  @DF-RHF Final Energy:  -418.44111084183322
    Total Energy =                       -418.4411108418335061
  Basis Set: CC-PVTZ
  Basis Set:
  Basis Set: CC-PVTZ
  Basis Set:
  @DF-RHF Final Energy:  -418.44117157654239
    Total Energy =                       -418.4411715765423878
  Basis Set: CC-PVTZ
  Basis Set:
  Basis Set: CC-PVTZ
  Basis Set:
  @DF-RHF Final Energy:  -418.44117263520059
    Total Energy =                       -418.4411726352008145
  Basis Set: CC-PVTZ
  Basis Set:
  Charge       = 0
  Multiplicity = 1
  Basis Set: CC-PVTZ
  Basis Set:

    Orbital Energies (a.u.)
    -----------------------

    Doubly Occupied:

       1A    -20.604223     2A    -20.546921     3A    -11.323332
       4A    -11.321706     5A    -11.257705     6A    -11.254730
       7A    -11.242118     8A    -11.237301     9A    -11.236574
      10A     -1.437323    11A     -1.402907    12A     -1.175125
      13A     -1.044521    14A     -1.042404    15A     -0.891911
      16A     -0.870681    17A     -0.797842    18A     -0.762101
      19A     -0.717603    20A     -0.671491    21A     -0.647329
      22A     -0.631543    23A     -0.614778    24A     -0.610670
      25A     -0.588755    26A     -0.564016    27A     -0.551764
      28A     -0.508988    29A     -0.490964    30A     -0.422107
      31A     -0.362134    32A     -0.331220

  @DF-RHF Final Energy:  -418.44117342553176

   => Energetics <=

    Nuclear Repulsion Energy =            402.2026305475690720
    One-Electron Energy =               -1366.9620343798590056
    Two-Electron Energy =                 546.3182304067584028
    DFT Exchange-Correlation Energy =       0.0000000000000000
    Empirical Dispersion Energy =           0.0000000000000000
    PCM Polarization Energy =               0.0000000000000000
    EFP Energy =                            0.0000000000000000
    Total Energy =                       -418.4411734255315878
    Molecular point group: c1
  Basis Set: CC-PVTZ
  Basis Set:

  -Total Gradient:
     Atom            X                  Y                   Z
    ------   -----------------  -----------------  -----------------
       1       -0.000000920358     0.000002526781     0.000005690778
       2        0.000001299179    -0.000012676258    -0.000018097574
       3       -0.000007439292     0.000043672253     0.000038498551
       4        0.000023445903    -0.000008827417     0.000001326726
       5       -0.000012358678    -0.000033998216    -0.000054595377
       6       -0.000003657324    -0.000002374867    -0.000009490637
       7       -0.000238940193     0.001313429746     0.003455481263
       8        0.000001407158    -0.000001641877    -0.000003007096
       9        0.000015763737     0.000005721605     0.000066811887
      10        0.000001992678     0.000002501867    -0.000001561858
      11        0.000366498942    -0.001969395825    -0.007186906133
      12        0.000000571477    -0.000004860698    -0.000010169436
      13       -0.000267686102     0.000772315022     0.008255138885
      14        0.000116842960    -0.000102238080    -0.004543470857
      15        0.000003179907    -0.000004154037     0.000004350878

  **** Optimization is complete! (in 6 steps) ****
    Final optimized geometry and variables:
    Molecular point group: c1

    Geometry (in Angstrom), charge = 0, multiplicity = 1:

    H           -3.407890039896    -0.989024390570     0.263604597817
    O           -3.114673058154    -0.144187537519    -0.027649578886
    C           -1.775956766279    -0.060248841909    -0.009943918467
    C           -0.975238971399    -1.116090800825     0.406052126180
    C           -1.203840660537     1.133274009463    -0.417812965770
    H           -1.426042914102    -2.034585442420     0.734239004761
    C            0.393067030245    -0.978217686643     0.398205394686
    H           -1.838920820277     1.938648687903    -0.728047987812
    C            0.166847425773     1.261045090191    -0.403677745662
    H            1.020736298526    -1.788489503897     0.712920491073
    C            0.981270758911     0.206550077592    -0.020372705306
    H            0.610016771820     2.192777107791    -0.703965171045
    C            2.448154578007     0.373100011021     0.007945556939
    O            3.230610812689    -0.516617708238     0.042372665417
    H            2.793639761302     1.411535700737    -0.040855894313

  Mulliken Charges: (a.u.)
   Center  Symbol    Alpha    Beta     Spin     Total
       1     H     0.38544  0.38544  0.00000  0.22913
       2     O     4.16659  4.16659  0.00000 -0.33317
       3     C     2.84556  2.84556  0.00000  0.30889
       4     C     3.13138  3.13138  0.00000 -0.26276
       5     C     3.10753  3.10753  0.00000 -0.21507
       6     H     0.43116  0.43116  0.00000  0.13768
       7     C     3.07033  3.07033  0.00000 -0.14067
       8     H     0.41665  0.41665  0.00000  0.16669
       9     C     3.06790  3.06790  0.00000 -0.13581
      10     H     0.40815  0.40815  0.00000  0.18369
      11     C     2.99506  2.99506  0.00000  0.00988
      12     H     0.42172  0.42172  0.00000  0.15656
      13     C     2.91425  2.91425  0.00000  0.17150
      14     O     4.17739  4.17739  0.00000 -0.35478
      15     H     0.46088  0.46088  0.00000  0.07823

   Total alpha = 32.00000, Total beta = 32.00000, Total charge = -0.00000
