  ==> Input File <==

--------------------------------------------------------------------------
set {
	reference rhf
	basis 6-31G*
}

set_num_threads( 4 )
memory 2 gb

molecule MOL {
0 1

H	 1.990119	 -1.126189	 -0.773230
C	 1.135157	 -1.721048	 -1.116717
C	 -0.165164	 -0.968142	 -1.231769
O	 1.273100	 -2.874203	 -1.368380
C	 -0.558097	 -0.297372	 0.091132
H	 -0.929594	 -1.659405	 -1.566854
H	 -0.040414	 -0.205514	 -1.999667
C	 -1.850991	 0.512573	 -0.019058
H	 -0.673451	 -1.059024	 0.858826
H	 0.247801	 0.355100	 0.422291
C	 -3.096943	 -0.368295	 -0.099594
H	 -1.800724	 1.150330	 -0.898172
H	 -1.931651	 1.177355	 0.838044
H	 -3.060452	 -1.020287	 -0.967456
H	 -3.996858	 0.233488	 -0.175704
H	 -3.191959	 -0.995686	 0.782074

	symmetry c1
}
set optking {
	frozen_dihedral = ("
		9 5 8 12
	")
}

ee = optimize('scf')
oeprop('DIPOLE', 'QUADRUPOLE', 'MULLIKEN_CHARGES')
f=open( 'psi4out.xyz', 'w' )
f.write( "16  " )
f.write( str(ee) + "\n" )
f.write( MOL.save_string_xyz() )
f.close()
--------------------------------------------------------------------------

    Molecular point group: c1
  Charge       = 0
  Multiplicity = 1
  Basis Set: 6-31G*
  Basis Set:
  @DF-RHF Final Energy:  -270.01795392426482
    Total Energy =                       -270.0179539242648730
    Molecular point group: c1
  Basis Set: 6-31G*
  Basis Set:
  Basis Set: 6-31G*
  Basis Set:
  @DF-RHF Final Energy:  -270.01802941787264
    Total Energy =                       -270.0180294178725831
  Basis Set: 6-31G*
  Basis Set:
  Basis Set: 6-31G*
  Basis Set:
  @DF-RHF Final Energy:  -270.01603989842914
    Total Energy =                       -270.0160398984291987
  Basis Set: 6-31G*
  Basis Set:
  Basis Set: 6-31G*
  Basis Set:
  @DF-RHF Final Energy:  -270.01814071342801
    Total Energy =                       -270.0181407134280676
  Basis Set: 6-31G*
  Basis Set:
  Basis Set: 6-31G*
  Basis Set:
  @DF-RHF Final Energy:  -270.01815053858309
    Total Energy =                       -270.0181505385830860
  Basis Set: 6-31G*
  Basis Set:
  Basis Set: 6-31G*
  Basis Set:
  @DF-RHF Final Energy:  -270.01814432039407
    Total Energy =                       -270.0181443203941285
  Basis Set: 6-31G*
  Basis Set:
  Basis Set: 6-31G*
  Basis Set:
  @DF-RHF Final Energy:  -270.01815969064012
    Total Energy =                       -270.0181596906401751
  Basis Set: 6-31G*
  Basis Set:
  Charge       = 0
  Multiplicity = 1
  Basis Set: 6-31G*
  Basis Set:

    Orbital Energies (a.u.)
    -----------------------

    Doubly Occupied:

       1A    -20.562544     2A    -11.326531     3A    -11.236888
       4A    -11.234897     5A    -11.229567     6A    -11.217576
       7A     -1.402326     8A     -1.096041     9A     -1.015671
      10A     -0.910974    11A     -0.810054    12A     -0.791582
      13A     -0.677792    14A     -0.645609    15A     -0.625075
      16A     -0.610226    17A     -0.579998    18A     -0.548357
      19A     -0.539409    20A     -0.504938    21A     -0.486737
      22A     -0.480482    23A     -0.474111    24A     -0.409561

  @DF-RHF Final Energy:  -270.01815982358238

   => Energetics <=

    Nuclear Repulsion Energy =            231.6086679159346886
    One-Electron Energy =                -824.4197694824226801
    Two-Electron Energy =                 322.7929417429056116
    DFT Exchange-Correlation Energy =       0.0000000000000000
    Empirical Dispersion Energy =           0.0000000000000000
    PCM Polarization Energy =               0.0000000000000000
    EFP Energy =                            0.0000000000000000
    Total Energy =                       -270.0181598235823799
    Molecular point group: c1
  Basis Set: 6-31G*
  Basis Set:

  -Total Gradient:
     Atom            X                  Y                   Z
    ------   -----------------  -----------------  -----------------
       1        0.000008914679    -0.000014718922     0.000004666441
       2       -0.000015424592    -0.000016123086    -0.000028351211
       3       -0.000005641286    -0.000012432853     0.000046463609
       4        0.000025282470     0.000007538971     0.000000261017
       5        0.000605732191     0.001101382881     0.001228806276
       6        0.000011700741    -0.000000738292    -0.000009844926
       7        0.000001997708    -0.000002442985     0.000002533581
       8        0.000727812606     0.001299832544     0.000945425458
       9       -0.000601717682    -0.001107913246    -0.001212810081
      10        0.000011687409    -0.000006320262     0.000004511621
      11       -0.000018699105     0.000010655416    -0.000023069169
      12       -0.000728588480    -0.001266063744    -0.000959279161
      13       -0.000007295181     0.000007163639    -0.000002127834
      14       -0.000014111743    -0.000000465020     0.000005094459
      15       -0.000006164342    -0.000009490278    -0.000002237451
      16        0.000004514604     0.000010135240    -0.000000042628

  **** Optimization is complete! (in 8 steps) ****
    Final optimized geometry and variables:
    Molecular point group: c1

    Geometry (in Angstrom), charge = 0, multiplicity = 1:

    H            2.544583397761    -0.127830715077    -0.149385857745
    C            1.703030248793    -0.743801170359    -0.488518083621
    C            0.387217539820    -0.019779382009    -0.614193688700
    O            1.865244315453    -1.896979137821    -0.725167602374
    C           -0.015890060066     0.655799068397     0.705572094292
    H           -0.355662808360    -0.732434355788    -0.949316969884
    H            0.499946091212     0.740220786670    -1.386622243276
    C           -1.310709741568     1.471762501937     0.605128041098
    H           -0.130325223096    -0.110021325940     1.469313841568
    H            0.792596129010     1.306668360508     1.030025776037
    C           -2.577316908770     0.616987997176     0.527989999370
    H           -1.262638524600     2.114945686161    -0.270727205516
    H           -1.380149617164     2.126089535735     1.469400734406
    H           -2.585083185827    -0.018497836602    -0.351583897947
    H           -3.462207696324     1.243932051493     0.484363438878
    H           -2.668794282598    -0.023695357103     1.400300197843

  Mulliken Charges: (a.u.)
   Center  Symbol    Alpha    Beta     Spin     Total
       1     H     0.43214  0.43214  0.00000  0.13573
       2     C     2.82979  2.82979  0.00000  0.34041
       3     C     3.20946  3.20946  0.00000 -0.41892
       4     O     4.23697  4.23697  0.00000 -0.47395
       5     C     3.16621  3.16621  0.00000 -0.33242
       6     H     0.39798  0.39798  0.00000  0.20404
       7     H     0.41021  0.41021  0.00000  0.17957
       8     C     3.15326  3.15326  0.00000 -0.30652
       9     H     0.41289  0.41289  0.00000  0.17423
      10     H     0.41721  0.41721  0.00000  0.16559
      11     C     3.24203  3.24203  0.00000 -0.48406
      12     H     0.42105  0.42105  0.00000  0.15791
      13     H     0.41648  0.41648  0.00000  0.16704
      14     H     0.41856  0.41856  0.00000  0.16288
      15     H     0.41661  0.41661  0.00000  0.16678
      16     H     0.41916  0.41916  0.00000  0.16168

   Total alpha = 24.00000, Total beta = 24.00000, Total charge = -0.00000
