  ==> Input File <==

--------------------------------------------------------------------------
set {
	reference rhf
	basis cc-pvtz
}

set_num_threads( 4 )
memory 2 gb

molecule MOL {
0 1

H	 0.192352	 -3.403117	 1.327753
O	 0.417924	 -2.653531	 0.797682
C	 -0.599535	 -1.797556	 0.824255
C	 -0.318151	 -0.570512	 0.000144
O	 -1.588371	 -2.014102	 1.435221
C	 -1.454884	 0.441630	 -0.000560
H	 0.599035	 -0.132648	 0.380846
H	 -0.089131	 -0.906461	 -1.006130
C	 -2.822577	 -0.232186	 0.000063
H	 -1.359760	 1.084704	 -0.867077
H	 -1.359641	 1.085996	 0.864983
H	 -2.954352	 -0.858985	 -0.875745
H	 -3.615886	 0.505352	 0.000019
H	 -2.953878	 -0.858359	 0.876394

	symmetry c1
}
set optking {
	frozen_dihedral = ("
		7 4 6 10
	")
}

ee = optimize('scf')
oeprop('DIPOLE', 'QUADRUPOLE', 'MULLIKEN_CHARGES')
f=open( 'psi4out.xyz', 'w' )
f.write( "14  " )
f.write( str(ee) + "\n" )
f.write( MOL.save_string_xyz() )
f.close()
--------------------------------------------------------------------------

    Molecular point group: c1
  Charge       = 0
  Multiplicity = 1
  Basis Set: CC-PVTZ
  Basis Set:
  @DF-RHF Final Energy:  -305.98276571439823
    Total Energy =                       -305.9827657143981696
    Molecular point group: c1
  Basis Set: CC-PVTZ
  Basis Set:
  Basis Set: CC-PVTZ
  Basis Set:
  @DF-RHF Final Energy:  -305.99273933845717
    Total Energy =                       -305.9927393384572838
  Basis Set: CC-PVTZ
  Basis Set:
  Basis Set: CC-PVTZ
  Basis Set:
  @DF-RHF Final Energy:  -305.99417553923723
    Total Energy =                       -305.9941755392371761
  Basis Set: CC-PVTZ
  Basis Set:
  Basis Set: CC-PVTZ
  Basis Set:
  @DF-RHF Final Energy:  -305.99269975131801
    Total Energy =                       -305.9926997513179572
  Basis Set: CC-PVTZ
  Basis Set:
  @DF-RHF Final Energy:  -305.99549401843359
    Total Energy =                       -305.9954940184337602
  @DF-RHF Final Energy:  -305.99615265593047
    Total Energy =                       -305.9961526559303024
  @DF-RHF Final Energy:  -305.99649813432052
    Total Energy =                       -305.9964981343210297
  @DF-RHF Final Energy:  -305.99658109294410
    Total Energy =                       -305.9965810929439840
  Basis Set: CC-PVTZ
  Basis Set:
  @DF-RHF Final Energy:  -305.99661500522706
    Total Energy =                       -305.9966150052269995
  Basis Set: CC-PVTZ
  Basis Set:
  Basis Set: CC-PVTZ
  Basis Set:
  @DF-RHF Final Energy:  -305.99662135141182
    Total Energy =                       -305.9966213514119318
  Basis Set: CC-PVTZ
  Basis Set:
  Basis Set: CC-PVTZ
  Basis Set:
  @DF-RHF Final Energy:  -305.99662338205093
    Total Energy =                       -305.9966233820513253
  Basis Set: CC-PVTZ
  Basis Set:
  Charge       = 0
  Multiplicity = 1
  Basis Set: CC-PVTZ
  Basis Set:

    Orbital Energies (a.u.)
    -----------------------

    Doubly Occupied:

       1A    -20.606280     2A    -20.538333     3A    -11.374034
       4A    -11.240059     5A    -11.228643     6A    -11.209497
       7A     -1.478639     8A     -1.368851     9A     -1.082099
      10A     -0.977117    11A     -0.864370    12A     -0.790842
      13A     -0.706588    14A     -0.688633    15A     -0.661301
      16A     -0.622840    17A     -0.592723    18A     -0.569253
      19A     -0.559757    20A     -0.501508    21A     -0.491364
      22A     -0.486874    23A     -0.478782    24A     -0.442035

  @DF-RHF Final Energy:  -305.99662380648550

   => Energetics <=

    Nuclear Repulsion Energy =            246.1478772522229406
    One-Electron Energy =                -905.1681637695219251
    Two-Electron Energy =                 353.0236627108133689
    DFT Exchange-Correlation Energy =       0.0000000000000000
    Empirical Dispersion Energy =           0.0000000000000000
    PCM Polarization Energy =               0.0000000000000000
    EFP Energy =                            0.0000000000000000
    Total Energy =                       -305.9966238064855588
    Molecular point group: c1
  Basis Set: CC-PVTZ
  Basis Set:

  -Total Gradient:
     Atom            X                  Y                   Z
    ------   -----------------  -----------------  -----------------
       1        0.000003011461     0.000005080139    -0.000003066398
       2       -0.000028126821     0.000018335151     0.000016460245
       3        0.000052324068    -0.000048502684    -0.000026356388
       4        0.001378163872     0.001642757311    -0.007814156263
       5       -0.000037556959     0.000008408838     0.000013714473
       6        0.003474102806     0.004401717539     0.005535831254
       7       -0.001632497148    -0.002000437266     0.005753078049
       8       -0.000011001718     0.000021847348    -0.000001561036
       9        0.000001745764     0.000005540104     0.000015085765
      10       -0.003212927084    -0.004023404782    -0.003491452973
      11        0.000019495153    -0.000003360671    -0.000002632763
      12       -0.000004472723    -0.000004620101    -0.000009103994
      13        0.000004159350    -0.000006199844    -0.000000740188
      14       -0.000006420021    -0.000017161085     0.000014900215

  **** Optimization is complete! (in 12 steps) ****
    Final optimized geometry and variables:
    Molecular point group: c1

    Geometry (in Angstrom), charge = 0, multiplicity = 1:

    H            0.971287631790    -2.375326466105     0.504708569635
    O            1.064016048174    -1.682216766389    -0.132128423049
    C            0.532317968671    -0.575376733669     0.374299826951
    C            0.698469616807     0.617610820450    -0.533704719015
    O            0.031658558653    -0.552646830142     1.446398742949
    C           -0.498571521409     1.576221123705    -0.538152049964
    H            1.564811145378     1.121247837480    -0.113980889386
    H            0.946670267378     0.278049070446    -1.528253457544
    C           -1.856756980540     0.889708114802    -0.686842728086
    H           -0.378985512131     2.226313036368    -1.397985539683
    H           -0.489965820931     2.186385323875     0.354627244180
    H           -1.878392428505     0.256387346774    -1.568798874778
    H           -2.639521295059     1.630564668660    -0.798699951051
    H           -2.095339069493     0.281015235079     0.173768881161

  Mulliken Charges: (a.u.)
   Center  Symbol    Alpha    Beta     Spin     Total
       1     H     0.38060  0.38060  0.00000  0.23879
       2     O     4.16002  4.16002  0.00000 -0.32004
       3     C     2.79904  2.79904  0.00000  0.40192
       4     C     3.11008  3.11008  0.00000 -0.22016
       5     O     4.19962  4.19962  0.00000 -0.39923
       6     C     3.08032  3.08032  0.00000 -0.16064
       7     H     0.43832  0.43832  0.00000  0.12337
       8     H     0.43397  0.43397  0.00000  0.13206
       9     C     3.15963  3.15963  0.00000 -0.31926
      10     H     0.44896  0.44896  0.00000  0.10209
      11     H     0.44596  0.44596  0.00000  0.10807
      12     H     0.45519  0.45519  0.00000  0.08963
      13     H     0.44762  0.44762  0.00000  0.10477
      14     H     0.44067  0.44067  0.00000  0.11865

   Total alpha = 24.00000, Total beta = 24.00000, Total charge =  0.00000
