  ==> Input File <==

--------------------------------------------------------------------------
set {
	reference rhf
	basis 6-31G*
}

set_num_threads( 4 )
memory 2 gb

molecule MOL {
0 1

H	 -2.798360	 -0.862255	 -0.071053
N	 -1.863561	 -0.715187	 0.256814
C	 -1.344686	 0.554728	 -0.219830
H	 -1.300452	 -1.461917	 -0.101532
C	 0.157855	 0.469064	 -0.387656
H	 -1.778522	 0.878495	 -1.166912
H	 -1.566745	 1.319292	 0.518352
O	 0.434266	 -0.461045	 -1.395416
H	 0.562928	 1.444272	 -0.656956
H	 0.613272	 0.156546	 0.549448
C	 1.790067	 -0.703271	 -1.597157
H	 1.878567	 -1.430383	 -2.392879
H	 2.317146	 0.203230	 -1.889433
H	 2.260373	 -1.102088	 -0.700738

	symmetry c1
}
set optking {
	frozen_dihedral = ("
		6 3 2 4
	")
}

ee = optimize('scf')
oeprop('DIPOLE', 'QUADRUPOLE', 'MULLIKEN_CHARGES')
f=open( 'psi4out.xyz', 'w' )
f.write( "14  " )
f.write( str(ee) + "\n" )
f.write( MOL.save_string_xyz() )
f.close()
--------------------------------------------------------------------------

    Molecular point group: c1
  Charge       = 0
  Multiplicity = 1
  Basis Set: 6-31G*
  Basis Set:
  @DF-RHF Final Energy:  -248.12275696835368
    Total Energy =                       -248.1227569683538832
    Molecular point group: c1
  Basis Set: 6-31G*
  Basis Set:
  Basis Set: 6-31G*
  Basis Set:
  @DF-RHF Final Energy:  -248.12299939488165
    Total Energy =                       -248.1229993948817310
  Basis Set: 6-31G*
  Basis Set:
  Basis Set: 6-31G*
  Basis Set:
  @DF-RHF Final Energy:  -248.12305181927437
    Total Energy =                       -248.1230518192744512
  Basis Set: 6-31G*
  Basis Set:
  Charge       = 0
  Multiplicity = 1
  Basis Set: 6-31G*
  Basis Set:

    Orbital Energies (a.u.)
    -----------------------

    Doubly Occupied:

       1A    -20.561409     2A    -15.525210     3A    -11.270579
       4A    -11.269421     5A    -11.240693     6A     -1.385484
       7A     -1.171065     8A     -1.000865     9A     -0.910541
      10A     -0.818508    11A     -0.688150    12A     -0.670904
      13A     -0.651094    14A     -0.617199    15A     -0.593473
      16A     -0.547259    17A     -0.534616    18A     -0.500690
      19A     -0.473139    20A     -0.421413    21A     -0.375255

  @DF-RHF Final Energy:  -248.12305344336227

   => Energetics <=

    Nuclear Repulsion Energy =            194.6476220710852658
    One-Electron Energy =                -723.0874232546905205
    Two-Electron Energy =                 280.3167477402428744
    DFT Exchange-Correlation Energy =       0.0000000000000000
    Empirical Dispersion Energy =           0.0000000000000000
    PCM Polarization Energy =               0.0000000000000000
    EFP Energy =                            0.0000000000000000
    Total Energy =                       -248.1230534433623802
    Molecular point group: c1
  Basis Set: 6-31G*
  Basis Set:

  -Total Gradient:
     Atom            X                  Y                   Z
    ------   -----------------  -----------------  -----------------
       1       -0.000019609571     0.000013226901    -0.000020524150
       2       -0.004148382245     0.000370880218    -0.003381833632
       3        0.004305861089    -0.002473474574    -0.002081419942
       4        0.002646638347     0.000127349785     0.003328131368
       5       -0.000092248941     0.000030106617     0.000033031343
       6       -0.002765255421     0.001952667555     0.002124296246
       7        0.000001486121    -0.000026810751     0.000029503042
       8        0.000022599987     0.000051309540     0.000028919245
       9        0.000025979407    -0.000017000036    -0.000031177376
      10        0.000018649871    -0.000028115365    -0.000034587245
      11       -0.000004556173     0.000009835885     0.000000648567
      12        0.000006573644    -0.000005301652     0.000001245647
      13       -0.000001821316    -0.000002916297     0.000002235758
      14        0.000004085203    -0.000001757826     0.000001531131

  **** Optimization is complete! (in 4 steps) ****
    Final optimized geometry and variables:
    Molecular point group: c1

    Geometry (in Angstrom), charge = 0, multiplicity = 1:

    H           -2.688835435000    -0.632306053992     0.651907299564
    N           -1.733519942942    -0.520037246393     0.924212838462
    C           -1.187288385576     0.745657025419     0.461675302449
    H           -1.209147615531    -1.279660429606     0.538172243289
    C            0.314267078764     0.656210939619     0.289493069370
    H           -1.641707235612     1.095236174842    -0.464678850007
    H           -1.388695920994     1.511446463638     1.207037307159
    O            0.602930128995    -0.287444670553    -0.701118698616
    H            0.714225756567     1.630223357080     0.011475660786
    H            0.773489817200     0.361127603582     1.231855340754
    C            1.963156111656    -0.496247271457    -0.914610441268
    H            2.062083463925    -1.241677582572    -1.691711655538
    H            2.459104846365     0.416947718208    -1.237774234178
    H            2.456628561264    -0.856872532967    -0.014280754946

  Mulliken Charges: (a.u.)
   Center  Symbol    Alpha    Beta     Spin     Total
       1     H     0.33156  0.33156  0.00000  0.33688
       2     N     3.93281  3.93281  0.00000 -0.86562
       3     C     3.05701  3.05701  0.00000 -0.11403
       4     H     0.32233  0.32233  0.00000  0.35534
       5     C     3.00216  3.00216  0.00000 -0.00433
       6     H     0.42570  0.42570  0.00000  0.14861
       7     H     0.42132  0.42132  0.00000  0.15736
       8     O     4.30794  4.30794  0.00000 -0.61589
       9     H     0.42756  0.42756  0.00000  0.14487
      10     H     0.42332  0.42332  0.00000  0.15335
      11     C     3.08008  3.08008  0.00000 -0.16015
      12     H     0.41146  0.41146  0.00000  0.17708
      13     H     0.42879  0.42879  0.00000  0.14243
      14     H     0.42794  0.42794  0.00000  0.14411

   Total alpha = 21.00000, Total beta = 21.00000, Total charge = -0.00000
