  ==> Input File <==

--------------------------------------------------------------------------
set {
	reference rhf
	basis 6-31G*
}

set_num_threads( 4 )
memory 2 gb

molecule MOL {
0 1

O	 1.547285	 0.072393	 -0.332561
C	 2.701189	 0.057885	 -0.047330
C	 3.619453	 1.255953	 -0.032737
O	 3.347903	 -1.046386	 0.304773
C	 2.916515	 2.555280	 -0.419701
H	 4.056776	 1.309696	 0.958753
H	 4.442748	 1.040196	 -0.708999
C	 3.856755	 3.761927	 -0.511618
H	 2.123691	 2.760232	 0.293421
H	 2.427851	 2.412015	 -1.377357
C	 4.478297	 4.198537	 0.818106
H	 3.294036	 4.596819	 -0.922746
H	 4.648983	 3.550469	 -1.228326
C	 5.319488	 5.470392	 0.692479
H	 3.685751	 4.362238	 1.546730
H	 5.102369	 3.403096	 1.219079
C	 5.949840	 5.913188	 2.014114
H	 4.698290	 6.275652	 0.304016
H	 6.105652	 5.310894	 -0.043868
C	 6.785069	 7.186105	 1.880797
H	 5.165700	 6.072043	 2.751361
H	 6.574599	 5.111215	 2.401794
H	 7.218412	 7.474324	 2.833556
H	 6.180236	 8.016665	 1.527890
H	 7.599576	 7.048523	 1.175159
C	 4.728119	 -1.109107	 -0.004993
H	 4.882018	 -1.033965	 -1.071845
H	 5.068212	 -2.067527	 0.355250
H	 5.265056	 -0.311663	 0.488280

	symmetry c1
}
set optking {
	frozen_dihedral = ("
		1 2 4 26
	")
}

ee = optimize('scf')
oeprop('DIPOLE', 'QUADRUPOLE', 'MULLIKEN_CHARGES')
f=open( 'psi4out.xyz', 'w' )
f.write( "29  " )
f.write( str(ee) + "\n" )
f.write( MOL.save_string_xyz() )
f.close()
--------------------------------------------------------------------------

    Molecular point group: c1
  Charge       = 0
  Multiplicity = 1
  Basis Set: 6-31G*
  Basis Set:
  @DF-RHF Final Energy:  -501.01834883344804
    Total Energy =                       -501.0183488334483854
    Molecular point group: c1
  Basis Set: 6-31G*
  Basis Set:
  Basis Set: 6-31G*
  Basis Set:
  @DF-RHF Final Energy:  -501.01802141207293
    Total Energy =                       -501.0180214120737219
  Basis Set: 6-31G*
  Basis Set:
  Basis Set: 6-31G*
  Basis Set:
  @DF-RHF Final Energy:  -501.02552916792820
    Total Energy =                       -501.0255291679286529
  Basis Set: 6-31G*
  Basis Set:
  Basis Set: 6-31G*
  Basis Set:
  @DF-RHF Final Energy:  -501.02682703661151
    Total Energy =                       -501.0268270366113939
  Basis Set: 6-31G*
  Basis Set:
  @DF-RHF Final Energy:  -501.02592534877158
    Total Energy =                       -501.0259253487721480
  @DF-RHF Final Energy:  -501.02717727870277
    Total Energy =                       -501.0271772787020836
  Basis Set: 6-31G*
  Basis Set:
  @DF-RHF Final Energy:  -501.02726553991954
    Total Energy =                       -501.0272655399201085
  Basis Set: 6-31G*
  Basis Set:
  Basis Set: 6-31G*
  Basis Set:
  @DF-RHF Final Energy:  -501.02726002834083
    Total Energy =                       -501.0272600283408337
  Basis Set: 6-31G*
  Basis Set:
  Basis Set: 6-31G*
  Basis Set:
  @DF-RHF Final Energy:  -501.02726720795363
    Total Energy =                       -501.0272672079527183
  Basis Set: 6-31G*
  Basis Set:
  Charge       = 0
  Multiplicity = 1
  Basis Set: 6-31G*
  Basis Set:

    Orbital Energies (a.u.)
    -----------------------

    Doubly Occupied:

       1A    -20.597802     2A    -20.543246     3A    -11.373659
       4A    -11.295823     5A    -11.243934     6A    -11.223296
       7A    -11.221544     8A    -11.219997     9A    -11.218857
      10A    -11.217769    11A    -11.211540    12A     -1.461362
      13A     -1.365627    14A     -1.101555    15A     -1.068464
      16A     -1.014581    17A     -0.983775    18A     -0.944917
      19A     -0.869847    20A     -0.805585    21A     -0.794790
      22A     -0.762612    23A     -0.703490    24A     -0.685549
      25A     -0.672822    26A     -0.654479    27A     -0.632599
      28A     -0.609457    29A     -0.601386    30A     -0.588239
      31A     -0.568220    32A     -0.558341    33A     -0.543264
      34A     -0.536045    35A     -0.520166    36A     -0.506340
      37A     -0.502115    38A     -0.481136    39A     -0.473698
      40A     -0.465875    41A     -0.462422    42A     -0.449520
      43A     -0.442555    44A     -0.431328

  @DF-RHF Final Energy:  -501.02726724033823

   => Energetics <=

    Nuclear Repulsion Energy =            614.5875813022657894
    One-Electron Energy =               -1899.9704380482608030
    Two-Electron Energy =                 784.3555895056565532
    DFT Exchange-Correlation Energy =       0.0000000000000000
    Empirical Dispersion Energy =           0.0000000000000000
    PCM Polarization Energy =               0.0000000000000000
    EFP Energy =                            0.0000000000000000
    Total Energy =                       -501.0272672403384604
    Molecular point group: c1
  Basis Set: 6-31G*
  Basis Set:

  -Total Gradient:
     Atom            X                  Y                   Z
    ------   -----------------  -----------------  -----------------
       1        0.000781569761    -0.000628231654    -0.002993296515
       2       -0.001458914220     0.000295927313     0.002944824562
       3       -0.000001089047    -0.000003263965     0.000008207722
       4        0.001293614762     0.001444848579     0.002474161091
       5       -0.000004606202     0.000002182906    -0.000005866978
       6       -0.000000300543    -0.000002595677    -0.000002047363
       7       -0.000003577070    -0.000001014069    -0.000002563254
       8       -0.000005210559     0.000007847518     0.000005837923
       9       -0.000005450636    -0.000002299913     0.000000487612
      10        0.000005057172    -0.000002704648     0.000002134681
      11        0.000007076017    -0.000009770035    -0.000005484290
      12        0.000004197618     0.000006086776     0.000002422277
      13       -0.000001286639    -0.000002068375     0.000000189000
      14       -0.000002767446     0.000001701202    -0.000001453422
      15        0.000002893661    -0.000006283445    -0.000003698881
      16        0.000001794767    -0.000003842952     0.000000298916
      17       -0.000004657542     0.000003169925     0.000001034274
      18        0.000000981110     0.000001830787    -0.000003679180
      19        0.000001242716    -0.000001124756     0.000002835028
      20       -0.000000860749     0.000000688974     0.000000602852
      21        0.000000430563    -0.000000338326     0.000001351059
      22       -0.000000507259     0.000000323889    -0.000001324008
      23        0.000000210993     0.000000041877    -0.000000042714
      24        0.000000201744     0.000000103208     0.000000181315
      25       -0.000000150352    -0.000000130244    -0.000000225142
      26       -0.000626432188    -0.001100998025    -0.002424819351
      27        0.000010566443    -0.000001252966    -0.000000597684
      28        0.000009484965     0.000001398160     0.000000766835
      29       -0.000003511837    -0.000000232057    -0.000000236362

  **** Optimization is complete! (in 10 steps) ****
    Final optimized geometry and variables:
    Molecular point group: c1

    Geometry (in Angstrom), charge = 0, multiplicity = 1:

    O           -2.497764716045    -2.429850090570    -0.806554562584
    C           -1.355251753768    -2.465756026705    -0.501457792656
    C           -0.450483364778    -1.248992136550    -0.488885105500
    O           -0.816008890468    -3.629102476290    -0.112590648450
    C           -1.203327960605     0.044853823369    -0.796334917586
    H            0.032447953349    -1.207086726973     0.482564813208
    H            0.345348595918    -1.397665517574    -1.215179394351
    C           -0.298650687095     1.278701224178    -0.881998553362
    H           -1.968799903077     0.199880760604    -0.042562185431
    H           -1.729039125386    -0.078782293826    -1.736008317539
    C            0.368605161485     1.685054030702     0.435190576542
    H           -0.900875627435     2.111619927773    -1.236995739334
    H            0.466641936142     1.116786961924    -1.639987289757
    C            1.164006636475     2.987232449158     0.322391661810
    H           -0.394833833751     1.795371444760     1.203640354407
    H            1.034591619597     0.895991228021     0.777847868291
    C            1.839323869876     3.400429689659     1.631335564233
    H            0.501283093123     3.785659401978    -0.006715699009
    H            1.920584620492     2.881291423056    -0.453590380845
    C            2.627826044594     4.704062171135     1.511075730247
    H            1.084726151118     3.505740900468     2.407865508559
    H            2.505591214407     2.605348732507     1.959806676763
    H            3.094711573469     4.970108526619     2.454336487068
    H            1.982121973469     5.527025622774     1.218047352508
    H            3.413360097657     4.619957084403     0.765324136780
    C            0.543931439718    -3.926069933316    -0.326264687181
    H            0.803992053622    -3.838843568531    -1.374434820398
    H            0.674209056980    -4.951135993915    -0.016345229341
    H            1.195678260022    -3.293635761603     0.263582576774

  Mulliken Charges: (a.u.)
   Center  Symbol    Alpha    Beta     Spin     Total
       1     O     4.26263  4.26263  0.00000 -0.52526
       2     C     2.60070  2.60070  0.00000  0.79859
       3     C     3.23333  3.23333  0.00000 -0.46666
       4     O     4.30551  4.30551  0.00000 -0.61103
       5     C     3.15093  3.15093  0.00000 -0.30186
       6     H     0.40061  0.40061  0.00000  0.19879
       7     H     0.40581  0.40581  0.00000  0.18838
       8     C     3.15734  3.15734  0.00000 -0.31467
       9     H     0.41090  0.41090  0.00000  0.17820
      10     H     0.40560  0.40560  0.00000  0.18881
      11     C     3.15472  3.15472  0.00000 -0.30944
      12     H     0.41688  0.41688  0.00000  0.16624
      13     H     0.42483  0.42483  0.00000  0.15033
      14     C     3.15034  3.15034  0.00000 -0.30068
      15     H     0.42148  0.42148  0.00000  0.15705
      16     H     0.42596  0.42596  0.00000  0.14808
      17     C     3.15149  3.15149  0.00000 -0.30299
      18     H     0.42254  0.42254  0.00000  0.15492
      19     H     0.42426  0.42426  0.00000  0.15148
      20     C     3.23943  3.23943  0.00000 -0.47886
      21     H     0.42223  0.42223  0.00000  0.15554
      22     H     0.42409  0.42409  0.00000  0.15183
      23     H     0.41887  0.41887  0.00000  0.16227
      24     H     0.42109  0.42109  0.00000  0.15782
      25     H     0.42191  0.42191  0.00000  0.15619
      26     C     3.09401  3.09401  0.00000 -0.18802
      27     H     0.41582  0.41582  0.00000  0.16836
      28     H     0.39867  0.39867  0.00000  0.20266
      29     H     0.41803  0.41803  0.00000  0.16393

   Total alpha = 44.00000, Total beta = 44.00000, Total charge =  0.00000
