  ==> Input File <==

--------------------------------------------------------------------------
set {
	reference rhf
	basis 6-31G*
}

set_num_threads( 4 )
memory 2 gb

molecule MOL {
0 1

H	 -3.301617	 0.570527	 0.000000
C	 -2.250981	 0.344174	 0.000000
C	 -1.813665	 -0.976045	 0.000000
C	 -1.315303	 1.358057	 0.000000
H	 -2.528860	 -1.779366	 0.000000
C	 -0.467298	 -1.270142	 0.000000
H	 -1.635074	 2.385107	 0.000000
C	 0.047081	 1.078114	 0.000000
H	 -0.115948	 -2.285222	 0.000000
C	 0.472063	 -0.241155	 0.000000
H	 0.749976	 1.888426	 0.000000
O	 1.765256	 -0.628444	 0.000000
C	 2.081965	 -1.990342	 -0.000000
H	 1.698472	 -2.487417	 0.884976
H	 3.160056	 -2.049766	 -0.000000
H	 1.698472	 -2.487417	 -0.884976

	symmetry c1
}
set optking {
	frozen_dihedral = ("
		13 12 10 8
	")
}

ee = optimize('scf')
oeprop('DIPOLE', 'QUADRUPOLE', 'MULLIKEN_CHARGES')
f=open( 'psi4out.xyz', 'w' )
f.write( "16  " )
f.write( str(ee) + "\n" )
f.write( MOL.save_string_xyz() )
f.close()
--------------------------------------------------------------------------

    Molecular point group: c1
  Charge       = 0
  Multiplicity = 1
  Basis Set: 6-31G*
  Basis Set:
  @DF-RHF Final Energy:  -344.57386626097843
    Total Energy =                       -344.5738662609782068
    Molecular point group: c1
  Basis Set: 6-31G*
  Basis Set:
  Basis Set: 6-31G*
  Basis Set:
  @DF-RHF Final Energy:  -344.57776281978664
    Total Energy =                       -344.5777628197867557
  Basis Set: 6-31G*
  Basis Set:
  Basis Set: 6-31G*
  Basis Set:
  @DF-RHF Final Energy:  -344.58220110316637
    Total Energy =                       -344.5822011031664260
  Basis Set: 6-31G*
  Basis Set:
  Basis Set: 6-31G*
  Basis Set:
  @DF-RHF Final Energy:  -344.58273568519070
    Total Energy =                       -344.5827356851906416
  Basis Set: 6-31G*
  Basis Set:
  Basis Set: 6-31G*
  Basis Set:
  @DF-RHF Final Energy:  -344.58278770307749
    Total Energy =                       -344.5827877030773152
  Basis Set: 6-31G*
  Basis Set:
  Basis Set: 6-31G*
  Basis Set:
  @DF-RHF Final Energy:  -344.58279584946860
    Total Energy =                       -344.5827958494683116
  Basis Set: 6-31G*
  Basis Set:
  Charge       = 0
  Multiplicity = 1
  Basis Set: 6-31G*
  Basis Set:

    Orbital Energies (a.u.)
    -----------------------

    Doubly Occupied:

       1A    -20.585256     2A    -11.294027     3A    -11.280009
       4A    -11.232813     5A    -11.231304     6A    -11.223718
       7A    -11.219187     8A    -11.219107     9A     -1.414359
      10A     -1.145711    11A     -1.021747    12A     -1.012622
      13A     -0.941643    14A     -0.830293    15A     -0.804524
      16A     -0.721731    17A     -0.663811    18A     -0.661510
      19A     -0.656517    20A     -0.616843    21A     -0.586589
      22A     -0.575510    23A     -0.523794    24A     -0.520709
      25A     -0.508730    26A     -0.475329    27A     -0.462326
      28A     -0.334578    29A     -0.304828

  @DF-RHF Final Energy:  -344.58279666816867

   => Energetics <=

    Nuclear Repulsion Energy =            348.1346852956375528
    One-Electron Energy =               -1157.2967097362388813
    Two-Electron Energy =                 464.5792277724326027
    DFT Exchange-Correlation Energy =       0.0000000000000000
    Empirical Dispersion Energy =           0.0000000000000000
    PCM Polarization Energy =               0.0000000000000000
    EFP Energy =                            0.0000000000000000
    Total Energy =                       -344.5827966681686689
    Molecular point group: c1
  Basis Set: 6-31G*
  Basis Set:

  -Total Gradient:
     Atom            X                  Y                   Z
    ------   -----------------  -----------------  -----------------
       1       -0.000002260229     0.000001947098     0.000000000977
       2        0.000055467882    -0.000015974705    -0.000000008470
       3       -0.000022238184    -0.000036324714     0.000000010613
       4       -0.000007369222     0.000057138112     0.000000005748
       5        0.000007037049     0.000004228413     0.000000000993
       6       -0.000027218773     0.000014795288     0.000000010174
       7        0.000002272055     0.000004643850    -0.000000002056
       8       -0.000034196350    -0.000021910909     0.000000027673
       9        0.000000616875    -0.000010311037     0.000000009725
      10        0.000084177455     0.000044220127    -0.000000075179
      11       -0.000006874735     0.000000938925    -0.000000000138
      12       -0.000017091079     0.000015491838     0.000000028669
      13       -0.000029047722    -0.000057413585    -0.000000013062
      14        0.000010137605     0.000004038924    -0.000007622623
      15       -0.000023545258    -0.000009527612     0.000000002641
      16        0.000010132630     0.000004019987     0.000007624316

  **** Optimization is complete! (in 7 steps) ****
    Final optimized geometry and variables:
    Molecular point group: c1

    Geometry (in Angstrom), charge = 0, multiplicity = 1:

    H            1.014044343001     3.193439184267     0.000000187296
    C            0.731029095740     2.156608150578     0.000000078843
    C           -0.599685309233     1.792969465444     0.000000202248
    C            1.701680462701     1.160329294499    -0.000000030564
    H           -1.364178393974     2.549705173482     0.000000432955
    C           -0.978732104834     0.454567961700     0.000000041174
    H            2.744084773147     1.425511223074    -0.000000030502
    C            1.342652079988    -0.170015315483    -0.000000110352
    H           -2.021677509129     0.203813015238     0.000000272828
    C           -0.003490334786    -0.530012827596    -0.000000251131
    H            2.081622382869    -0.949591998290    -0.000000122459
    O           -0.255052151372    -1.856213003342     0.000000055732
    C           -1.576942687403    -2.312055641946    -0.000000054898
    H           -2.111004829287    -1.981877748459     0.884926802276
    H           -1.524717110703    -3.390555490213     0.000000965466
    H           -2.111004192709    -1.981879384506    -0.884927907823

  Mulliken Charges: (a.u.)
   Center  Symbol    Alpha    Beta     Spin     Total
       1     H     0.40127  0.40127  0.00000  0.19747
       2     C     3.11208  3.11208  0.00000 -0.22416
       3     C     3.09097  3.09097  0.00000 -0.18194
       4     C     3.09182  3.09182  0.00000 -0.18363
       5     H     0.39970  0.39970  0.00000  0.20060
       6     C     3.14507  3.14507  0.00000 -0.29014
       7     H     0.39879  0.39879  0.00000  0.20242
       8     C     3.12544  3.12544  0.00000 -0.25087
       9     H     0.39740  0.39740  0.00000  0.20520
      10     C     2.78220  2.78220  0.00000  0.43560
      11     H     0.39294  0.39294  0.00000  0.21411
      12     O     4.32597  4.32597  0.00000 -0.65194
      13     C     3.09241  3.09241  0.00000 -0.18482
      14     H     0.41968  0.41968  0.00000  0.16064
      15     H     0.40459  0.40459  0.00000  0.19082
      16     H     0.41968  0.41968  0.00000  0.16064

   Total alpha = 29.00000, Total beta = 29.00000, Total charge =  0.00000
