                              Psi4 1.0.54 Driver

  ==> Input File <==

--------------------------------------------------------------------------
set {
	reference rhf
	basis cc-pvtz
}

set_num_threads( 4 )
memory 2 gb

molecule MOL {
0 1

H	 -2.816458	 -0.841657	 -0.064679
N	 -1.878861	 -0.711874	 0.250184
C	 -1.341419	 0.551458	 -0.220231
H	 -1.333674	 -1.468530	 -0.105118
C	 -1.200673	 1.527090	 0.925623
H	 -0.373315	 0.454983	 -0.710141
H	 -2.030741	 0.974486	 -0.942681
O	 -0.249362	 1.035838	 1.820825
H	 -0.890469	 2.499908	 0.546713
H	 -2.159787	 1.645606	 1.424604
C	 -0.075436	 1.811521	 2.959810
H	 0.679847	 1.339407	 3.571399
H	 0.256413	 2.816936	 2.709388
H	 -0.995569	 1.886329	 3.534546

	symmetry c1
}
set optking {
	frozen_dihedral = ("
		6 3 2 4
	")
}

ee,wfn = optimize('scf', return_wfn=True)
oeprop( wfn, 'DIPOLE', 'QUADRUPOLE', 'MULLIKEN_CHARGES')
f=open( 'psi4out.xyz', 'w' )
f.write( "14  " )
f.write( str(ee) + "\n" )
f.write( MOL.save_string_xyz() )
f.close()
--------------------------------------------------------------------------

    Molecular point group: c1
  Charge       = 0
  Multiplicity = 1
  Basis Set: CC-PVTZ
  Basis Set:
  @DF-RHF Final Energy:  -248.21915163141051
    Total Energy =                       -248.2191516314105684
    Molecular point group: c1
  Basis Set: CC-PVTZ
  Basis Set:
  Basis Set: CC-PVTZ
  Basis Set:
  @DF-RHF Final Energy:  -248.22043727665655
    Total Energy =                       -248.2204372766565825
  Basis Set: CC-PVTZ
  Basis Set:
  Basis Set: CC-PVTZ
  Basis Set:
  @DF-RHF Final Energy:  -248.22069187265356
    Total Energy =                       -248.2206918726533900
  Basis Set: CC-PVTZ
  Basis Set:
  Basis Set: CC-PVTZ
  Basis Set:
  @DF-RHF Final Energy:  -248.22070939872711
    Total Energy =                       -248.2207093987271378
  Basis Set: CC-PVTZ
  Basis Set:
  Basis Set: CC-PVTZ
  Basis Set:
  @DF-RHF Final Energy:  -248.22071145376236
    Total Energy =                       -248.2207114537625330
  Basis Set: CC-PVTZ
  Basis Set:
  Charge       = 0
  Multiplicity = 1
  Basis Set: CC-PVTZ
  Basis Set:

    Orbital Energies (a.u.)
    -----------------------

    Doubly Occupied:

       1A    -20.541888     2A    -15.524907     3A    -11.258364
       4A    -11.257279     5A    -11.241558     6A     -1.377403
       7A     -1.174929     8A     -0.998504     9A     -0.902089
      10A     -0.814973    11A     -0.682519    12A     -0.670749
      13A     -0.637956    14A     -0.628774    15A     -0.600592
      16A     -0.531947    17A     -0.519382    18A     -0.507709
      19A     -0.467723    20A     -0.412163    21A     -0.382103

  @DF-RHF Final Energy:  -248.22071164247058

   => Energetics <=

    Nuclear Repulsion Energy =            193.3237001208237302
    One-Electron Energy =                -720.8218051604976608
    Two-Electron Energy =                 279.2773933972033547
    DFT Exchange-Correlation Energy =       0.0000000000000000
    Empirical Dispersion Energy =           0.0000000000000000
    PCM Polarization Energy =               0.0000000000000000
    EFP Energy =                            0.0000000000000000
    Total Energy =                       -248.2207116424705191
    Molecular point group: c1
  Basis Set: CC-PVTZ
  Basis Set:

  -Total Gradient:
     Atom            X                  Y                   Z
    ------   -----------------  -----------------  -----------------
       1        0.000013768598     0.000002062319    -0.000002175507
       2        0.000114917228    -0.000018271682     0.000266067558
       3       -0.000096829535     0.000020609844    -0.000273592602
       4       -0.000103176981    -0.000007648475    -0.000157233677
       5       -0.000006114579    -0.000004053995     0.000011561585
       6        0.000082984847     0.000013448989     0.000146923230
       7       -0.000003889125    -0.000009695415     0.000002875676
       8        0.000003740387     0.000009306457    -0.000002555278
       9       -0.000003672988    -0.000001773888     0.000004935102
      10       -0.000002796642     0.000006499709    -0.000001296008
      11       -0.000003866902    -0.000006106646     0.000014483630
      12        0.000004762007    -0.000001224902    -0.000001925267
      13        0.000000874324    -0.000002685277    -0.000006275064
      14       -0.000000700639    -0.000000467036    -0.000001793377

  **** Optimization is complete! (in 6 steps) ****
    Final optimized geometry and variables:
    Molecular point group: c1

    Geometry (in Angstrom), charge = 0, multiplicity = 1:

    H           -1.968221651835    -1.624729351309    -1.251473830588
    N           -1.032725182225    -1.541685247492    -0.921088967884
    C           -0.410296761150    -0.297455615242    -1.350602032636
    H           -0.526511269597    -2.340811684264    -1.228794671361
    C           -0.236592341365     0.680823766462    -0.206607400074
    H            0.569728980526    -0.497063438884    -1.767011912048
    H           -0.990903161618     0.190724801816    -2.128978261570
    O            0.765571593730     0.224615880598     0.643300112379
    H            0.028179011934     1.662925377420    -0.601306679828
    H           -1.176917898023     0.781010601917     0.333134896366
    C            0.926248891655     0.974685301792     1.799230936352
    H            1.731990098876     0.536212572628     2.370288215130
    H            1.181275311498     2.008887919827     1.574030720269
    H            0.023960086481     0.968631199895     2.406696075234

  Mulliken Charges: (a.u.)
   Center  Symbol    Alpha    Beta     Spin     Total
       1     H     0.42853  0.42853  0.00000  0.14294
       2     N     3.69231  3.69231  0.00000 -0.38462
       3     C     3.04189  3.04189  0.00000 -0.08378
       4     H     0.42441  0.42441  0.00000  0.15118
       5     C     2.94624  2.94624  0.00000  0.10751
       6     H     0.45377  0.45377  0.00000  0.09246
       7     H     0.45993  0.45993  0.00000  0.08014
       8     O     4.17211  4.17211  0.00000 -0.34423
       9     H     0.47659  0.47659  0.00000  0.04681
      10     H     0.47948  0.47948  0.00000  0.04104
      11     C     3.03107  3.03107  0.00000 -0.06214
      12     H     0.44826  0.44826  0.00000  0.10347
      13     H     0.47439  0.47439  0.00000  0.05122
      14     H     0.47099  0.47099  0.00000  0.05802

   Total alpha = 21.00000, Total beta = 21.00000, Total charge =  0.00000

*** Psi4 exiting successfully. Buy a developer a beer!
