                              Psi4 1.0.54 Driver

  ==> Input File <==

--------------------------------------------------------------------------
set {
	reference rhf
	basis cc-pvtz
}

set_num_threads( 4 )
memory 2 gb

molecule MOL {
0 1

H	 -0.980223	 -1.363529	 0.000744
O	 -1.432053	 -0.565244	 -0.200812
C	 -0.727158	 0.534527	 0.310686
C	 0.680222	 0.664433	 -0.252229
H	 -1.306802	 1.408001	 0.044211
H	 -0.690821	 0.490158	 1.397609
C	 1.605391	 -0.489360	 0.123098
H	 0.615089	 0.745647	 -1.332226
H	 1.101414	 1.597893	 0.110950
H	 1.247627	 -1.432485	 -0.275204
H	 2.601435	 -0.332816	 -0.273062
H	 1.691776	 -0.589902	 1.200774

	symmetry c1
}
set optking {
	frozen_dihedral = ("
		1 2 3 4
	")
}

ee,wfn = optimize('scf', return_wfn=True)
oeprop( wfn, 'DIPOLE', 'QUADRUPOLE', 'MULLIKEN_CHARGES')
f=open( 'psi4out.xyz', 'w' )
f.write( "12  " )
f.write( str(ee) + "\n" )
f.write( MOL.save_string_xyz() )
f.close()
--------------------------------------------------------------------------

    Molecular point group: c1
  Charge       = 0
  Multiplicity = 1
  Basis Set: CC-PVTZ
  Basis Set:
  @DF-RHF Final Energy:  -193.19042932461772
    Total Energy =                       -193.1904293246177815
    Molecular point group: c1
  Basis Set: CC-PVTZ
  Basis Set:
  Basis Set: CC-PVTZ
  Basis Set:
  @DF-RHF Final Energy:  -193.19043839866495
    Total Energy =                       -193.1904383986650089
  Basis Set: CC-PVTZ
  Basis Set:
  Basis Set: CC-PVTZ
  Basis Set:
  @DF-RHF Final Energy:  -193.19044651249743
    Total Energy =                       -193.1904465124974877
  Basis Set: CC-PVTZ
  Basis Set:
  Charge       = 0
  Multiplicity = 1
  Basis Set: CC-PVTZ
  Basis Set:

    Orbital Energies (a.u.)
    -----------------------

    Doubly Occupied:

       1A    -20.545747     2A    -11.265754     3A    -11.218787
       4A    -11.217208     5A     -1.364131     6A     -1.053177
       7A     -0.929667     8A     -0.812560     9A     -0.695411
      10A     -0.638956    11A     -0.606301    12A     -0.589310
      13A     -0.545386    14A     -0.510231    15A     -0.493967
      16A     -0.470144    17A     -0.433277

  @DF-RHF Final Energy:  -193.19044687472746

   => Energetics <=

    Nuclear Repulsion Energy =            133.2238761324458096
    One-Electron Energy =                -526.0486167483054487
    Two-Electron Energy =                 199.6342937411321259
    DFT Exchange-Correlation Energy =       0.0000000000000000
    Empirical Dispersion Energy =           0.0000000000000000
    PCM Polarization Energy =               0.0000000000000000
    EFP Energy =                            0.0000000000000000
    Total Energy =                       -193.1904468747275132
    Molecular point group: c1
  Basis Set: CC-PVTZ
  Basis Set:

  -Total Gradient:
     Atom            X                  Y                   Z
    ------   -----------------  -----------------  -----------------
       1        0.000479581053     0.000068034154    -0.000809370810
       2       -0.000511909427    -0.000233790571     0.001150080719
       3       -0.000155485036     0.000511907384    -0.000748271446
       4        0.000188972979    -0.000348705552     0.000408478530
       5        0.000018886029    -0.000016283340    -0.000013979812
       6        0.000004301827     0.000012553136     0.000015060131
       7       -0.000020536334     0.000009197902     0.000019320074
       8        0.000017403292     0.000002124913    -0.000017751395
       9       -0.000014878133    -0.000020043417     0.000005366100
      10        0.000011570334     0.000008750510     0.000002378036
      11       -0.000014999623     0.000005827387    -0.000003985138
      12       -0.000002906962     0.000000427493    -0.000007324990

  **** Optimization is complete! (in 4 steps) ****
    Final optimized geometry and variables:
    Molecular point group: c1

    Geometry (in Angstrom), charge = 0, multiplicity = 1:

    H           -0.993378930374    -1.362265583028     0.005282951049
    O           -1.441234803205    -0.561216681559    -0.194274275729
    C           -0.726965135866     0.533684459233     0.312754675331
    C            0.679549398880     0.660986497213    -0.253179222400
    H           -1.305634503346     1.409043756069     0.051416690677
    H           -0.683740636465     0.486318871270     1.399693536660
    C            1.608175046735    -0.489773279858     0.124602723139
    H            0.615282989358     0.741618790124    -1.333413126629
    H            1.100887523863     1.594350306337     0.109166127347
    H            1.263699238235    -1.435922827779    -0.279523984702
    H            2.605619730511    -0.325274369921    -0.264455755170
    H            1.687013075763    -0.594048816496     1.202129308212

  Mulliken Charges: (a.u.)
   Center  Symbol    Alpha    Beta     Spin     Total
       1     H     0.39261  0.39261  0.00000  0.21478
       2     O     4.20519  4.20519  0.00000 -0.41037
       3     C     2.97163  2.97163  0.00000  0.05673
       4     C     3.08740  3.08740  0.00000 -0.17479
       5     H     0.45094  0.45094  0.00000  0.09812
       6     H     0.47226  0.47226  0.00000  0.05547
       7     C     3.15685  3.15685  0.00000 -0.31370
       8     H     0.45054  0.45054  0.00000  0.09892
       9     H     0.45609  0.45609  0.00000  0.08782
      10     H     0.45953  0.45953  0.00000  0.08095
      11     H     0.44441  0.44441  0.00000  0.11118
      12     H     0.45255  0.45255  0.00000  0.09490

   Total alpha = 17.00000, Total beta = 17.00000, Total charge = -0.00000

*** Psi4 exiting successfully. Buy a developer a beer!
