  ==> Input File <==

--------------------------------------------------------------------------
set {
	reference rhf
	basis 6-31G*
}

set_num_threads( 4 )
memory 2 gb

molecule MOL {
0 1

H	 2.709170	 1.682090	 -0.833594
O	 3.327559	 1.228467	 -1.387573
C	 3.557050	 -0.062568	 -0.882979
C	 2.382249	 -1.010100	 -1.099206
H	 4.427444	 -0.433619	 -1.408725
H	 3.813137	 -0.018255	 0.174960
C	 1.107857	 -0.600950	 -0.356649
H	 2.179881	 -1.070776	 -2.165382
H	 2.685184	 -2.004864	 -0.776650
C	 -0.036020	 -1.600401	 -0.550196
H	 0.793946	 0.380758	 -0.700269
H	 1.323450	 -0.506633	 0.707759
C	 -1.309753	 -1.282496	 0.241564
H	 -0.277920	 -1.666905	 -1.609398
H	 0.313988	 -2.587969	 -0.257104
C	 -2.037799	 -0.007733	 -0.193645
H	 -1.993068	 -2.123261	 0.141510
H	 -1.067045	 -1.215492	 1.301017
C	 -3.489788	 0.042957	 0.286558
H	 -2.017067	 0.064384	 -1.280144
H	 -1.513726	 0.868678	 0.179924
C	 -4.216917	 1.317354	 -0.141063
H	 -4.025645	 -0.823308	 -0.095450
H	 -3.513059	 -0.038752	 1.371301
H	 -4.239342	 1.411634	 -1.223113
H	 -5.243387	 1.322503	 0.212445
H	 -3.726170	 2.201406	 0.256408

	symmetry c1
}
set optking {
	frozen_dihedral = ("
		10 13 16 20
	")
}

ee = optimize('scf')
oeprop('DIPOLE', 'QUADRUPOLE', 'MULLIKEN_CHARGES')
f=open( 'psi4out.xyz', 'w' )
f.write( "27  " )
f.write( str(ee) + "\n" )
f.write( MOL.save_string_xyz() )
f.close()
--------------------------------------------------------------------------

    Molecular point group: c1
  Charge       = 0
  Multiplicity = 1
  Basis Set: 6-31G*
  Basis Set:
  @DF-RHF Final Energy:  -388.28107449986720
    Total Energy =                       -388.2810744998674863
    Molecular point group: c1
  Basis Set: 6-31G*
  Basis Set:
  Basis Set: 6-31G*
  Basis Set:
  @DF-RHF Final Energy:  -388.28094177935878
    Total Energy =                       -388.2809417793589546
  Basis Set: 6-31G*
  Basis Set:
  Basis Set: 6-31G*
  Basis Set:
  @DF-RHF Final Energy:  -388.28117152634553
    Total Energy =                       -388.2811715263453607
  Basis Set: 6-31G*
  Basis Set:
  Basis Set: 6-31G*
  Basis Set:
  @DF-RHF Final Energy:  -388.28118868892375
    Total Energy =                       -388.2811886889229527
  Basis Set: 6-31G*
  Basis Set:
  Basis Set: 6-31G*
  Basis Set:
  @DF-RHF Final Energy:  -388.28119114824727
    Total Energy =                       -388.2811911482476717
  Basis Set: 6-31G*
  Basis Set:
  Basis Set: 6-31G*
  Basis Set:
  @DF-RHF Final Energy:  -388.28119603079983
    Total Energy =                       -388.2811960307996060
  Basis Set: 6-31G*
  Basis Set:
  Charge       = 0
  Multiplicity = 1
  Basis Set: 6-31G*
  Basis Set:

    Orbital Energies (a.u.)
    -----------------------

    Doubly Occupied:

       1A    -20.552199     2A    -11.266977     3A    -11.219713
       4A    -11.217306     5A    -11.216355     6A    -11.215619
       7A    -11.215160     8A    -11.214496     9A    -11.209428
      10A     -1.358967    11A     -1.095273    12A     -1.061390
      13A     -1.011656    14A     -0.948149    15A     -0.888270
      16A     -0.820189    17A     -0.802575    18A     -0.777416
      19A     -0.693556    20A     -0.653438    21A     -0.634476
      22A     -0.615191    23A     -0.601344    24A     -0.583980
      25A     -0.579513    26A     -0.552687    27A     -0.539851
      28A     -0.532314    29A     -0.505495    30A     -0.494252
      31A     -0.485000    32A     -0.473552    33A     -0.470721
      34A     -0.459755    35A     -0.452277    36A     -0.442047
      37A     -0.422619

  @DF-RHF Final Energy:  -388.28119600824709

   => Energetics <=

    Nuclear Repulsion Energy =            459.9252561646712820
    One-Electron Energy =               -1437.8464900281690007
    Two-Electron Energy =                 589.6400378552507391
    DFT Exchange-Correlation Energy =       0.0000000000000000
    Empirical Dispersion Energy =           0.0000000000000000
    PCM Polarization Energy =               0.0000000000000000
    EFP Energy =                            0.0000000000000000
    Total Energy =                       -388.2811960082469795
    Molecular point group: c1
  Basis Set: 6-31G*
  Basis Set:

  -Total Gradient:
     Atom            X                  Y                   Z
    ------   -----------------  -----------------  -----------------
       1        0.000002841112    -0.000001145409     0.000000230978
       2        0.000004359379    -0.000001134510    -0.000004338267
       3       -0.000002220070     0.000003520273     0.000007818647
       4       -0.000003610964     0.000001726415    -0.000010623312
       5        0.000000284351     0.000002189133     0.000000111547
       6        0.000000596245     0.000000998450     0.000000427067
       7       -0.000001340966    -0.000004941259     0.000012143190
       8       -0.000002684699    -0.000001598132    -0.000001836300
       9       -0.000001207314     0.000002933354    -0.000000904638
      10       -0.000924152255    -0.000912100075    -0.001155598796
      11       -0.000005614592    -0.000003422564     0.000002878914
      12        0.000006121418     0.000000896771     0.000002514422
      13        0.001794570406     0.001574612521     0.001685539279
      14        0.000003532160     0.000000368287    -0.000002703385
      15       -0.000004730922    -0.000001824826     0.000001739994
      16       -0.002897673757    -0.001839238351    -0.000694617274
      17        0.000009019222    -0.000000676596    -0.000002835703
      18        0.000000266431    -0.000005072922     0.000003121411
      19       -0.000008261104     0.000000364984    -0.000005288301
      20        0.002023162483     0.001185906996     0.000161228155
      21        0.000006437562    -0.000003746026    -0.000004089261
      22        0.000001490699     0.000003101615     0.000007454735
      23        0.000003780488    -0.000002673567    -0.000001657802
      24       -0.000005053409     0.000000568206     0.000001014067
      25       -0.000003691101    -0.000003238329    -0.000001161989
      26        0.000001788699     0.000001905813     0.000003374049
      27        0.000001990494     0.000001719744    -0.000003941427

  **** Optimization is complete! (in 7 steps) ****
    Final optimized geometry and variables:
    Molecular point group: c1

    Geometry (in Angstrom), charge = 0, multiplicity = 1:

    H            2.683012509006     1.876722626468    -0.401554107668
    O            3.313725414836     1.428194689701    -0.945729956633
    C            3.570647853585     0.151494731758    -0.418533000742
    C            2.417282875139    -0.825170022529    -0.620070893256
    H            4.449855900147    -0.209094935006    -0.936801988704
    H            3.823998421836     0.219582434094     0.638808034121
    C            1.133185258034    -0.431906854380     0.114031020147
    H            2.217873506035    -0.908275650101    -1.685307121470
    H            2.741386594074    -1.807489595801    -0.280395312028
    C            0.009605544176    -1.456493641503    -0.065207536957
    H            0.797368932633     0.537322367198    -0.245087846836
    H            1.344537174679    -0.315970448762     1.177200869699
    C           -1.275179846401    -1.137063601224     0.706474618216
    H           -0.224447736611    -1.549463892110    -1.124011121739
    H            0.372418312956    -2.431616099280     0.252991446202
    C           -1.986379646291     0.147099097347     0.262892375026
    H           -1.957370053444    -1.975347368077     0.579330530402
    H           -1.060121943058    -1.083771831088     1.772139599393
    C           -3.437956889733     0.226705279941     0.737603064923
    H           -1.947750005652     0.229340981304    -0.822396341338
    H           -1.446364316397     1.013108910424     0.640402235849
    C           -4.127462923083     1.531064842739     0.339558022064
    H           -3.994989042894    -0.614762999416     0.331515045700
    H           -3.468336504329     0.117888527479     1.819929417199
    H           -4.138778613145     1.654677822153    -0.739737919436
    H           -5.156209697311     1.554066747552     0.685610007614
    H           -3.616602390628     2.390663762929     0.764271822436

  Mulliken Charges: (a.u.)
   Center  Symbol    Alpha    Beta     Spin     Total
       1     H     0.27989  0.27989  0.00000  0.44022
       2     O     4.37096  4.37096  0.00000 -0.74192
       3     C     2.99732  2.99732  0.00000  0.00536
       4     C     3.16099  3.16099  0.00000 -0.32197
       5     H     0.41447  0.41447  0.00000  0.17106
       6     H     0.43207  0.43207  0.00000  0.13587
       7     C     3.16342  3.16342  0.00000 -0.32685
       8     H     0.41505  0.41505  0.00000  0.16990
       9     H     0.42433  0.42433  0.00000  0.15134
      10     C     3.15240  3.15240  0.00000 -0.30480
      11     H     0.42253  0.42253  0.00000  0.15494
      12     H     0.42548  0.42548  0.00000  0.14904
      13     C     3.15371  3.15371  0.00000 -0.30742
      14     H     0.42150  0.42150  0.00000  0.15700
      15     H     0.42167  0.42167  0.00000  0.15666
      16     C     3.15310  3.15310  0.00000 -0.30620
      17     H     0.42130  0.42130  0.00000  0.15739
      18     H     0.42323  0.42323  0.00000  0.15353
      19     C     3.15145  3.15145  0.00000 -0.30290
      20     H     0.42317  0.42317  0.00000  0.15366
      21     H     0.42423  0.42423  0.00000  0.15154
      22     C     3.23942  3.23942  0.00000 -0.47884
      23     H     0.42256  0.42256  0.00000  0.15487
      24     H     0.42303  0.42303  0.00000  0.15395
      25     H     0.42139  0.42139  0.00000  0.15723
      26     H     0.41916  0.41916  0.00000  0.16168
      27     H     0.42218  0.42218  0.00000  0.15564

   Total alpha = 37.00000, Total beta = 37.00000, Total charge =  0.00000
