                              Psi4 1.0.54 Driver

  ==> Input File <==

--------------------------------------------------------------------------
set {
	reference rhf
	basis cc-pvtz
}

set_num_threads( 4 )
memory 2 gb

molecule MOL {
0 1

H	 -2.926131	 1.858213	 -0.741210
C	 -2.170760	 1.297535	 -0.229974
C	 -2.105997	 -0.000418	 -0.398703
H	 -1.483082	 1.816773	 0.408218
O	 -1.189946	 -0.765863	 0.237511
H	 -2.784667	 -0.529726	 -1.042416
C	 0.026572	 -0.995256	 -0.379403
C	 1.057223	 0.049888	 -0.004615
H	 -0.054361	 -1.010670	 -1.459674
H	 0.397526	 -1.952058	 -0.044198
F	 2.203233	 -0.234060	 -0.590375
F	 0.698147	 1.254887	 -0.392621
F	 1.266440	 0.094219	 1.288722

	symmetry c1
}
set optking {
	frozen_dihedral = ("
		6 3 5 7
	")
}

ee,wfn = optimize('scf', return_wfn=True)
oeprop( wfn, 'DIPOLE', 'QUADRUPOLE', 'MULLIKEN_CHARGES')
f=open( 'psi4out.xyz', 'w' )
f.write( "13  " )
f.write( str(ee) + "\n" )
f.write( MOL.save_string_xyz() )
f.close()
--------------------------------------------------------------------------

    Molecular point group: c1
  Charge       = 0
  Multiplicity = 1
  Basis Set: CC-PVTZ
  Basis Set:
  @DF-RHF Final Energy:  -527.73432313610908
    Total Energy =                       -527.7343231361087419
    Molecular point group: c1
  Basis Set: CC-PVTZ
  Basis Set:
  Basis Set: CC-PVTZ
  Basis Set:
  @DF-RHF Final Energy:  -527.70385694066022
    Total Energy =                       -527.7038569406604438
  Basis Set: CC-PVTZ
  Basis Set:
  Basis Set: CC-PVTZ
  Basis Set:
  @DF-RHF Final Energy:  -527.73442584193936
    Total Energy =                       -527.7344258419395828
  Basis Set: CC-PVTZ
  Basis Set:
  Basis Set: CC-PVTZ
  Basis Set:
  @DF-RHF Final Energy:  -527.73614341725670
    Total Energy =                       -527.7361434172565851
  Basis Set: CC-PVTZ
  Basis Set:
  @DF-RHF Final Energy:  -527.73641142259748
    Total Energy =                       -527.7364114225974845
  @DF-RHF Final Energy:  -527.72894308261573
    Total Energy =                       -527.7289430826160697
  @DF-RHF Final Energy:  -527.73678280017953
    Total Energy =                       -527.7367828001794123
  @DF-RHF Final Energy:  -527.73418543748835
    Total Energy =                       -527.7341854374880086
  @DF-RHF Final Energy:  -527.73689779950701
    Total Energy =                       -527.7368977995066643
  @DF-RHF Final Energy:  -527.73534598808430
    Total Energy =                       -527.7353459880843047
  @DF-RHF Final Energy:  -527.73702822424070
    Total Energy =                       -527.7370282242407029
  @DF-RHF Final Energy:  -527.73141547075966
    Total Energy =                       -527.7314154707594298
  @DF-RHF Final Energy:  -527.73694484262228
    Total Energy =                       -527.7369448426220515
  @DF-RHF Final Energy:  -527.73713752061167
    Total Energy =                       -527.7371375206116682
  @DF-RHF Final Energy:  -527.73716050545772
    Total Energy =                       -527.7371605054577230
  @DF-RHF Final Energy:  -527.73700714651113
    Total Energy =                       -527.7370071465117007
  @DF-RHF Final Energy:  -527.73721035143490
    Total Energy =                       -527.7372103514352375
  @DF-RHF Final Energy:  -527.69237518141688
    Total Energy =                       -527.6923751814165371
  @DF-RHF Final Energy:  -527.73580413308048
    Total Energy =                       -527.7358041330805918
  @DF-RHF Final Energy:  -527.73724740805926
    Total Energy =                       -527.7372474080590337
  @DF-RHF Final Energy:  -527.73711139999705
    Total Energy =                       -527.7371113999972749
  @DF-RHF Final Energy:  -527.73749569951406
    Total Energy =                       -527.7374956995138291
  @DF-RHF Final Energy:  -527.73787005786903
    Total Energy =                       -527.7378700578689177
  @DF-RHF Final Energy:  -527.73800177389353
    Total Energy =                       -527.7380017738937568
  @DF-RHF Final Energy:  -527.73809230094037
    Total Energy =                       -527.7380923009400249
  @DF-RHF Final Energy:  -527.73817847766622
    Total Energy =                       -527.7381784776661107
  @DF-RHF Final Energy:  -527.73832954375848
    Total Energy =                       -527.7383295437584820
  @DF-RHF Final Energy:  -527.73837758307945
    Total Energy =                       -527.7383775830796822
  @DF-RHF Final Energy:  -527.73846597537670
    Total Energy =                       -527.7384659753762435
  @DF-RHF Final Energy:  -527.73837718346147
    Total Energy =                       -527.7383771834618074
  Basis Set: CC-PVTZ
  Basis Set:
  @DF-RHF Final Energy:  -527.73856117639309
    Total Energy =                       -527.7385611763926363
  Basis Set: CC-PVTZ
  Basis Set:
  Basis Set: CC-PVTZ
  Basis Set:
  @DF-RHF Final Energy:  -527.73856794202607
    Total Energy =                       -527.7385679420258384
  Basis Set: CC-PVTZ
  Basis Set:
  Basis Set: CC-PVTZ
  Basis Set:
  @DF-RHF Final Energy:  -527.73857845956820
    Total Energy =                       -527.7385784595683162
  Basis Set: CC-PVTZ
  Basis Set:
  Charge       = 0
  Multiplicity = 1
  Basis Set: CC-PVTZ
  Basis Set:

    Orbital Energies (a.u.)
    -----------------------

    Doubly Occupied:

       1A    -26.336740     2A    -26.333468     3A    -26.333386
       4A    -20.593009     5A    -11.494850     6A    -11.314876
       7A    -11.298184     8A    -11.230915     9A     -1.745384
      10A     -1.641420    11A     -1.640047    12A     -1.434477
      13A     -1.085574    14A     -1.023056    15A     -0.928197
      16A     -0.841054    17A     -0.835097    18A     -0.810952
      19A     -0.793074    20A     -0.728821    21A     -0.715438
      22A     -0.705087    23A     -0.681256    24A     -0.662908
      25A     -0.658268    26A     -0.645306    27A     -0.626104
      28A     -0.615382    29A     -0.569141    30A     -0.528738
      31A     -0.469098    32A     -0.386276

  @DF-RHF Final Energy:  -527.73857856315999

   => Energetics <=

    Nuclear Repulsion Energy =            408.9632828602892118
    One-Electron Energy =               -1541.9925705058230960
    Two-Electron Energy =                 605.2907090823737235
    DFT Exchange-Correlation Energy =       0.0000000000000000
    Empirical Dispersion Energy =           0.0000000000000000
    PCM Polarization Energy =               0.0000000000000000
    EFP Energy =                            0.0000000000000000
    Total Energy =                       -527.7385785631602175
    Molecular point group: c1
  Basis Set: CC-PVTZ
  Basis Set:

  -Total Gradient:
     Atom            X                  Y                   Z
    ------   -----------------  -----------------  -----------------
       1        0.000009817215    -0.000000069721     0.000001027840
       2        0.000009427761    -0.000014853751     0.000007895873
       3        0.001724961901     0.002246037944    -0.000218765959
       4        0.000002922324    -0.000001770915    -0.000008184257
       5        0.000286832113    -0.001947831109    -0.001440368871
       6       -0.001497043924    -0.001336418216     0.000540616020
       7       -0.000500291905     0.001060763049     0.001087267864
       8       -0.000014057645     0.000000473854     0.000053524690
       9       -0.000006683066    -0.000017533785     0.000004308272
      10       -0.000007596565     0.000006133720    -0.000010709037
      11       -0.000005630171    -0.000004007358    -0.000018431132
      12       -0.000002738321    -0.000006054461     0.000015442612
      13        0.000000080279     0.000015130746    -0.000013623915

  **** Optimization is complete! (in 34 steps) ****
    Final optimized geometry and variables:
    Molecular point group: c1

    Geometry (in Angstrom), charge = 0, multiplicity = 1:

    H           -3.458909243433     1.825874785331    -1.958902603227
    C           -2.798349287525     1.446766206696    -1.204894487794
    C           -1.951059300913     0.491271229184    -1.496192066531
    H           -2.862303632462     1.857511569302    -0.215415027106
    O           -1.117807042910    -0.069250602177    -0.575942800361
    H           -1.897713605413     0.042609840390    -2.472637846808
    C            0.149462472193     0.491273374891    -0.491737076249
    C            0.948152369088    -0.295222196721     0.520245772273
    H            0.109872159205     1.521771939194    -0.160625630373
    H            0.677920977012     0.444325748170    -1.437927856849
    F            2.156393495976     0.224946023924     0.617650987027
    F            0.402879568832    -0.262950880645     1.713140121245
    F            1.082613811917    -1.553604724487     0.173496748370

  Mulliken Charges: (a.u.)
   Center  Symbol    Alpha    Beta     Spin     Total
       1     H     0.42310  0.42310  0.00000  0.15380
       2     C     3.17503  3.17503  0.00000 -0.35006
       3     C     2.98260  2.98260  0.00000  0.03480
       4     H     0.41981  0.41981  0.00000  0.16038
       5     O     4.16111  4.16111  0.00000 -0.32223
       6     H     0.42433  0.42433  0.00000  0.15135
       7     C     2.99297  2.99297  0.00000  0.01405
       8     C     2.67400  2.67400  0.00000  0.65199
       9     H     0.45709  0.45709  0.00000  0.08581
      10     H     0.46085  0.46085  0.00000  0.07829
      11     F     4.61299  4.61299  0.00000 -0.22597
      12     F     4.60793  4.60793  0.00000 -0.21587
      13     F     4.60818  4.60818  0.00000 -0.21636

   Total alpha = 32.00000, Total beta = 32.00000, Total charge = -0.00000

*** Psi4 exiting successfully. Buy a developer a beer!
