                              Psi4 1.0.54 Driver

  ==> Input File <==

--------------------------------------------------------------------------
set {
	reference rhf
	basis cc-pvtz
}

set_num_threads( 4 )
memory 2 gb

molecule MOL {
0 1

H	 2.978815	 -0.182337	 5.417855
C	 2.555647	 -0.967234	 4.801631
C	 1.378222	 -0.450249	 3.982045
H	 3.342916	 -1.342137	 4.156751
H	 2.252586	 -1.776314	 5.458398
C	 0.748830	 -1.533029	 3.108304
H	 1.710587	 0.370654	 3.357073
H	 0.622933	 -0.047811	 4.653168
C	 -0.436560	 -1.045957	 2.280958
H	 1.498546	 -1.942886	 2.442893
H	 0.410008	 -2.347114	 3.742534
C	 -0.069854	 -0.132624	 1.123446
H	 -0.954234	 -1.895566	 1.842844
H	 -1.169474	 -0.546748	 2.907970
C	 -1.180025	 0.697761	 0.509157
O	 1.038315	 -0.080785	 0.696189
C	 -2.285431	 -0.137488	 -0.145671
H	 -0.721117	 1.348366	 -0.222934
H	 -1.612572	 1.321394	 1.287090
C	 -3.646545	 0.082747	 0.508954
H	 -2.348635	 0.118247	 -1.199806
H	 -2.034895	 -1.192387	 -0.096473
C	 -4.757412	 -0.737227	 -0.138149
H	 -3.900211	 1.137405	 0.459735
H	 -3.580878	 -0.166775	 1.564416
H	 -4.867876	 -0.486707	 -1.187777
H	 -4.549650	 -1.800049	 -0.072540
H	 -5.709585	 -0.556397	 0.346597

	symmetry c1
}
set optking {
	frozen_dihedral = ("
		12 15 17 21
	")
}

ee,wfn = optimize('scf', return_wfn=True)
oeprop( wfn, 'DIPOLE', 'QUADRUPOLE', 'MULLIKEN_CHARGES')
f=open( 'psi4out.xyz', 'w' )
f.write( "28  " )
f.write( str(ee) + "\n" )
f.write( MOL.save_string_xyz() )
f.close()
--------------------------------------------------------------------------

    Molecular point group: c1
  Charge       = 0
  Multiplicity = 1
  Basis Set: CC-PVTZ
  Basis Set:
  @DF-RHF Final Energy:  -426.31399035159723
    Total Energy =                       -426.3139903515973401
    Molecular point group: c1
  Basis Set: CC-PVTZ
  Basis Set:
  Basis Set: CC-PVTZ
  Basis Set:
  @DF-RHF Final Energy:  -426.31433667413796
    Total Energy =                       -426.3143366741387581
  Basis Set: CC-PVTZ
  Basis Set:
  Basis Set: CC-PVTZ
  Basis Set:
  @DF-RHF Final Energy:  -426.31446674148719
    Total Energy =                       -426.3144667414869673
  Basis Set: CC-PVTZ
  Basis Set:
  Basis Set: CC-PVTZ
  Basis Set:
  @DF-RHF Final Energy:  -426.31460438207876
    Total Energy =                       -426.3146043820786417
  Basis Set: CC-PVTZ
  Basis Set:
  @DF-RHF Final Energy:  -426.31469094363206
    Total Energy =                       -426.3146909436323995
  @DF-RHF Final Energy:  -426.31443689309572
    Total Energy =                       -426.3144368930957171
  Basis Set: CC-PVTZ
  Basis Set:
  @DF-RHF Final Energy:  -426.31487487616903
    Total Energy =                       -426.3148748761689149
  Basis Set: CC-PVTZ
  Basis Set:
  Basis Set: CC-PVTZ
  Basis Set:
  @DF-RHF Final Energy:  -426.31491748336123
    Total Energy =                       -426.3149174833608868
  Basis Set: CC-PVTZ
  Basis Set:
  Basis Set: CC-PVTZ
  Basis Set:
  @DF-RHF Final Energy:  -426.31492176612790
    Total Energy =                       -426.3149217661280090
  Basis Set: CC-PVTZ
  Basis Set:
  Charge       = 0
  Multiplicity = 1
  Basis Set: CC-PVTZ
  Basis Set:

    Orbital Energies (a.u.)
    -----------------------

    Doubly Occupied:

       1A    -20.536294     2A    -11.316624     3A    -11.229988
       4A    -11.229205     5A    -11.226322     6A    -11.225243
       7A    -11.214766     8A    -11.214583     9A    -11.208749
      10A    -11.202799    11A     -1.396499    12A     -1.094442
      13A     -1.078017    14A     -1.023406    15A     -0.991432
      16A     -0.909440    17A     -0.873549    18A     -0.811553
      19A     -0.797227    20A     -0.726917    21A     -0.669379
      22A     -0.655951    23A     -0.623332    24A     -0.616622
      25A     -0.612119    26A     -0.591714    27A     -0.578308
      28A     -0.572319    29A     -0.547018    30A     -0.533820
      31A     -0.521506    32A     -0.513090    33A     -0.503749
      34A     -0.481958    35A     -0.478939    36A     -0.477203
      37A     -0.466610    38A     -0.463203    39A     -0.456581
      40A     -0.394163

  @DF-RHF Final Energy:  -426.31492251229986

   => Energetics <=

    Nuclear Repulsion Energy =            536.0396237999281084
    One-Electron Energy =               -1640.5798131702158571
    Two-Electron Energy =                 678.2252668579878900
    DFT Exchange-Correlation Energy =       0.0000000000000000
    Empirical Dispersion Energy =           0.0000000000000000
    PCM Polarization Energy =               0.0000000000000000
    EFP Energy =                            0.0000000000000000
    Total Energy =                       -426.3149225122999724
    Molecular point group: c1
  Basis Set: CC-PVTZ
  Basis Set:

  -Total Gradient:
     Atom            X                  Y                   Z
    ------   -----------------  -----------------  -----------------
       1       -0.000013920752    -0.000009292503    -0.000015855609
       2        0.000003544825    -0.000021393698    -0.000017056180
       3       -0.000022604382     0.000015526091     0.000015014493
       4       -0.000004724100     0.000000254855     0.000021372419
       5        0.000013719444     0.000005844182    -0.000003147424
       6        0.000020419334    -0.000003926297    -0.000012033171
       7       -0.000028291705    -0.000002973409     0.000005216562
       8        0.000006759554    -0.000012608194    -0.000011695018
       9       -0.000025752419     0.000016767470    -0.000000282525
      10        0.000000398067    -0.000001091654     0.000021316523
      11        0.000008348576     0.000012356131    -0.000004995062
      12       -0.000013093950     0.000031325262    -0.000006405311
      13        0.000042787440     0.000014954597     0.000015347318
      14        0.000006123389    -0.000017334509    -0.000021923423
      15        0.000012181781     0.000004720644     0.000024085038
      16        0.000042421341    -0.000021265551     0.000010164761
      17       -0.000033549187     0.000005184093    -0.000040193309
      18       -0.000018909793    -0.000029768271     0.000018003535
      19        0.000003516531     0.000008342600     0.000002164348
      20       -0.000014883778     0.000001294153    -0.000009025290
      21        0.000003724731    -0.000003802176     0.000003187375
      22        0.000002313211     0.000007922971    -0.000005492615
      23        0.000009965293    -0.000007212323     0.000011103498
      24       -0.000003088825     0.000013576056    -0.000012602176
      25       -0.000007452996     0.000001122155     0.000013958040
      26       -0.000001163160     0.000004342610    -0.000000220501
      27        0.000003409622    -0.000017419393    -0.000005659969
      28        0.000007801907     0.000004554107     0.000005653673

  **** Optimization is complete! (in 10 steps) ****
    Final optimized geometry and variables:
    Molecular point group: c1

    Geometry (in Angstrom), charge = 0, multiplicity = 1:

    H            4.221633047190    -0.098240818843     3.307329987336
    C            3.500867294126    -0.771327824266     2.857597869095
    C            2.351548517512     0.000161565065     2.218081493260
    H            4.023995016743    -1.370932175580     2.120638448733
    H            3.143090097263    -1.439712292361     3.634306168555
    C            1.307465953732    -0.918186204681     1.586405528536
    H            2.743993976375     0.671687903710     1.464634812214
    H            1.871430088056     0.619035415244     2.972602998422
    C            0.144584062823    -0.178302018698     0.933141151605
    H            1.783328963383    -1.552812350953     0.848090906609
    H            0.906075420148    -1.574371175372     2.353375468714
    C            0.461073947834     0.481416190486    -0.396297345077
    H           -0.685128089257    -0.857837231108     0.755685597430
    H           -0.248897615540     0.587048211680     1.597290268410
    C           -0.671800507403     1.226721276574    -1.074773434288
    O            1.529858197893     0.395619139575    -0.909327902985
    C           -1.622662223241     0.268763129350    -1.837349525843
    H           -0.220854138458     1.933044188694    -1.756179115456
    H           -1.231387880911     1.787755474995    -0.334774817999
    C           -3.057097089195     0.277942057424    -1.314408421750
    H           -1.626420575201     0.542074692227    -2.885618248371
    H           -1.237038818823    -0.745561468205    -1.802503189986
    C           -3.974753219721    -0.668258632493    -2.080230855109
    H           -3.449617621162     1.289264177601    -1.372630046426
    H           -3.061131191738     0.011328279933    -0.261007519797
    H           -4.018282632232    -0.404899128667    -3.131618544194
    H           -3.626068158402    -1.693308351166    -2.011829305322
    H           -4.984819815754    -0.635668360594    -1.688973367186

  Mulliken Charges: (a.u.)
   Center  Symbol    Alpha    Beta     Spin     Total
       1     H     0.44869  0.44869  0.00000  0.10261
       2     C     3.15184  3.15184  0.00000 -0.30368
       3     C     3.08339  3.08339  0.00000 -0.16678
       4     H     0.45217  0.45217  0.00000  0.09566
       5     H     0.45743  0.45743  0.00000  0.08514
       6     C     3.08689  3.08689  0.00000 -0.17377
       7     H     0.44347  0.44347  0.00000  0.11306
       8     H     0.45895  0.45895  0.00000  0.08209
       9     C     3.13117  3.13117  0.00000 -0.26233
      10     H     0.44641  0.44641  0.00000  0.10718
      11     H     0.44822  0.44822  0.00000  0.10356
      12     C     2.86406  2.86406  0.00000  0.27188
      13     H     0.43317  0.43317  0.00000  0.13367
      14     H     0.44202  0.44202  0.00000  0.11596
      15     C     3.10036  3.10036  0.00000 -0.20073
      16     O     4.17972  4.17972  0.00000 -0.35943
      17     C     3.10757  3.10757  0.00000 -0.21514
      18     H     0.43433  0.43433  0.00000  0.13134
      19     H     0.44821  0.44821  0.00000  0.10357
      20     C     3.08508  3.08508  0.00000 -0.17017
      21     H     0.43918  0.43918  0.00000  0.12164
      22     H     0.44778  0.44778  0.00000  0.10443
      23     C     3.15005  3.15005  0.00000 -0.30011
      24     H     0.45148  0.45148  0.00000  0.09703
      25     H     0.45382  0.45382  0.00000  0.09235
      26     H     0.45320  0.45320  0.00000  0.09360
      27     H     0.45416  0.45416  0.00000  0.09168
      28     H     0.44717  0.44717  0.00000  0.10566

   Total alpha = 40.00000, Total beta = 40.00000, Total charge =  0.00000

*** Psi4 exiting successfully. Buy a developer a beer!
