  ==> Input File <==

--------------------------------------------------------------------------
set {
	reference rhf
	basis 6-31G*
}

set_num_threads( 4 )
memory 2 gb

molecule MOL {
0 1

H	 1.948733	 0.490506	 -1.081659
O	 1.171338	 -0.056632	 -1.136682
C	 0.489431	 0.077273	 0.000046
C	 -0.764129	 -0.759190	 0.000191
O	 0.859921	 0.781284	 0.881902
C	 -2.038368	 0.075731	 -0.000248
H	 -0.717284	 -1.412404	 -0.866059
H	 -0.717458	 -1.411724	 0.866967
H	 -2.086483	 0.712501	 -0.875098
H	 -2.908485	 -0.571682	 -0.000042
H	 -2.086576	 0.713280	 0.874068

	symmetry c1
}
set optking {
	frozen_dihedral = ("
		2 3 4 7
	")
}

ee = optimize('scf')
oeprop('DIPOLE', 'QUADRUPOLE', 'MULLIKEN_CHARGES')
f=open( 'psi4out.xyz', 'w' )
f.write( "11  " )
f.write( str(ee) + "\n" )
f.write( MOL.save_string_xyz() )
f.close()
--------------------------------------------------------------------------

    Molecular point group: c1
  Charge       = 0
  Multiplicity = 1
  Basis Set: 6-31G*
  Basis Set:
  @DF-RHF Final Energy:  -266.84337911593343
    Total Energy =                       -266.8433791159333168
    Molecular point group: c1
  Basis Set: 6-31G*
  Basis Set:
  Basis Set: 6-31G*
  Basis Set:
  @DF-RHF Final Energy:  -266.84374198555093
    Total Energy =                       -266.8437419855511621
  Basis Set: 6-31G*
  Basis Set:
  Basis Set: 6-31G*
  Basis Set:
  @DF-RHF Final Energy:  -266.84281692901942
    Total Energy =                       -266.8428169290195910
  Basis Set: 6-31G*
  Basis Set:
  Basis Set: 6-31G*
  Basis Set:
  @DF-RHF Final Energy:  -266.84407366481139
    Total Energy =                       -266.8440736648113898
  Basis Set: 6-31G*
  Basis Set:
  Basis Set: 6-31G*
  Basis Set:
  @DF-RHF Final Energy:  -266.84407913333280
    Total Energy =                       -266.8440791333326843
  Basis Set: 6-31G*
  Basis Set:
  Charge       = 0
  Multiplicity = 1
  Basis Set: 6-31G*
  Basis Set:

    Orbital Energies (a.u.)
    -----------------------

    Doubly Occupied:

       1A    -20.615865     2A    -20.549463     3A    -11.381582
       4A    -11.242731     5A    -11.228804     6A     -1.475978
       7A     -1.365663     8A     -1.066424     9A     -0.914519
      10A     -0.811293    11A     -0.702953    12A     -0.687957
      13A     -0.645610    14A     -0.612447    15A     -0.593084
      16A     -0.538711    17A     -0.526586    18A     -0.511526
      19A     -0.474148    20A     -0.442343

  @DF-RHF Final Energy:  -266.84407947094542

   => Energetics <=

    Nuclear Repulsion Energy =            179.7800528869948948
    One-Electron Energy =                -720.4728937542517997
    Two-Electron Energy =                 273.8487613963115450
    DFT Exchange-Correlation Energy =       0.0000000000000000
    Empirical Dispersion Energy =           0.0000000000000000
    PCM Polarization Energy =               0.0000000000000000
    EFP Energy =                            0.0000000000000000
    Total Energy =                       -266.8440794709453598
    Molecular point group: c1
  Basis Set: 6-31G*
  Basis Set:

  -Total Gradient:
     Atom            X                  Y                   Z
    ------   -----------------  -----------------  -----------------
       1        0.000008715088     0.000002198250    -0.000003816880
       2       -0.000144130261     0.000220494143    -0.000123903660
       3        0.000206067393    -0.000334450153     0.000270463755
       4       -0.000263039857     0.000387477989    -0.000280150115
       5        0.000003822321    -0.000019190887    -0.000040440352
       6        0.000024289612     0.000005110540     0.000001153998
       7        0.000166495338    -0.000250352314     0.000193727671
       8        0.000000229459    -0.000006274194    -0.000015044291
       9       -0.000003979566     0.000000333566     0.000006917163
      10       -0.000003334215    -0.000011905739     0.000001730608
      11        0.000004864684     0.000006558799    -0.000010637898

  **** Optimization is complete! (in 6 steps) ****
    Final optimized geometry and variables:
    Molecular point group: c1

    Geometry (in Angstrom), charge = 0, multiplicity = 1:

    H            1.970501030461     0.509572556168    -0.988209765854
    O            1.213281436855    -0.063407162667    -1.064560307644
    C            0.513028451899     0.026496003467     0.063087560535
    C           -0.731623068171    -0.825350338250     0.056787663074
    O            0.846542408403     0.729564562220     0.961708240664
    C           -1.991507272843     0.047336324501     0.069401207039
    H           -0.720893755302    -1.482190366529    -0.802661039717
    H           -0.701939036273    -1.435682471462     0.952467479786
    H           -2.053120748814     0.659475336760    -0.824325961483
    H           -2.876959321809    -0.576832837936     0.108975153117
    H           -1.993182802631     0.701452634705     0.932409041439

  Mulliken Charges: (a.u.)
   Center  Symbol    Alpha    Beta     Spin     Total
       1     H     0.26818  0.26818  0.00000  0.46363
       2     O     4.34689  4.34689  0.00000 -0.69379
       3     C     2.62890  2.62890  0.00000  0.74219
       4     C     3.20266  3.20266  0.00000 -0.40532
       5     O     4.27969  4.27969  0.00000 -0.55938
       6     C     3.24952  3.24952  0.00000 -0.49904
       7     H     0.39933  0.39933  0.00000  0.20134
       8     H     0.39801  0.39801  0.00000  0.20398
       9     H     0.41268  0.41268  0.00000  0.17464
      10     H     0.41178  0.41178  0.00000  0.17644
      11     H     0.40235  0.40235  0.00000  0.19529

   Total alpha = 20.00000, Total beta = 20.00000, Total charge =  0.00000
