  ==> Input File <==

--------------------------------------------------------------------------
set {
	reference rhf
	basis 6-31G*
}

set_num_threads( 1 )
memory 2 gb

molecule MOL {
0 1

O	 -2.821601	 1.309235	 -0.001213
C	 -2.668563	 0.129746	 -0.000350
C	 -3.801572	 -0.864014	 -0.000442
O	 -1.481751	 -0.454642	 0.000584
H	 -4.417280	 -0.689587	 -0.874708
H	 -3.443784	 -1.883046	 -0.000565
H	 -4.417179	 -0.689832	 0.873954
C	 -0.334255	 0.388708	 0.000906
C	 0.891947	 -0.504646	 0.000751
H	 -0.365390	 1.025305	 -0.873475
H	 -0.365484	 1.024911	 0.875569
C	 2.191998	 0.301789	 0.000897
H	 0.855148	 -1.151283	 -0.871571
H	 0.855132	 -1.151660	 0.872805
C	 2.656889	 0.682584	 1.407737
H	 2.975537	 -0.271118	 -0.491984
H	 2.058708	 1.206895	 -0.589101
C	 3.956097	 1.486900	 1.407900
H	 2.790923	 -0.220750	 1.998581
H	 1.876010	 1.257123	 1.900893
H	 4.765517	 0.924739	 0.950921
H	 4.259828	 1.741513	 2.418422
H	 3.843641	 2.413850	 0.852808

	symmetry c1
}
set optking {
	frozen_dihedral = ("
		13 9 8 10,
		2 4 8 10,
		19 15 12 16,
		1 2 4 8
	")
}

ee = energy('scf')
oeprop('DIPOLE', 'QUADRUPOLE', 'MULLIKEN_CHARGES')
f=open( 'psi4out.xyz', 'w' )
f.write( "23  " )
f.write( str(ee) + "\n" )
f.write( MOL.save_string_xyz() )
f.close()
--------------------------------------------------------------------------

    Molecular point group: c1

    Geometry (in Angstrom), charge = 0, multiplicity = 1:

       Center              X                  Y                   Z               Mass
    ------------   -----------------  -----------------  -----------------  -----------------
           O         -2.646644513834     1.027245310538    -0.315560266440    15.994914619560
           C         -2.493606513834    -0.152243689462    -0.314697266440    12.000000000000
           C         -3.626615513834    -1.146003689462    -0.314789266440    12.000000000000
           O         -1.306794513834    -0.736631689462    -0.313763266440    15.994914619560
           H         -4.242323513834    -0.971576689462    -1.189055266440     1.007825032070
           H         -3.268827513834    -2.165035689462    -0.314912266440     1.007825032070
           H         -4.242222513834    -0.971821689462     0.559606733560     1.007825032070
           C         -0.159298513834     0.106718310538    -0.313441266440    12.000000000000
           C          1.066903486166    -0.786635689462    -0.313596266440    12.000000000000
           H         -0.190433513834     0.743315310538    -1.187822266440     1.007825032070
           H         -0.190527513834     0.742921310538     0.561221733560     1.007825032070
           C          2.366954486166     0.019799310538    -0.313450266440    12.000000000000
           H          1.030104486166    -1.433272689462    -1.185918266440     1.007825032070
           H          1.030088486166    -1.433649689462     0.558457733560     1.007825032070
           C          2.831845486166     0.400594310538     1.093389733560    12.000000000000
           H          3.150493486166    -0.553107689462    -0.806331266440     1.007825032070
           H          2.233664486166     0.924905310538    -0.903448266440     1.007825032070
           C          4.131053486166     1.204910310538     1.093552733560    12.000000000000
           H          2.965879486166    -0.502739689462     1.684233733560     1.007825032070
           H          2.050966486166     0.975133310538     1.586545733560     1.007825032070
           H          4.940473486166     0.642749310538     0.636573733560     1.007825032070
           H          4.434784486166     1.459523310538     2.104074733560     1.007825032070
           H          4.018597486166     2.131860310538     0.538460733560     1.007825032070

  Charge       = 0
  Multiplicity = 1
  Basis Set: 6-31G*
  Basis Set:

    Orbital Energies (a.u.)
    -----------------------

    Doubly Occupied:

       1A    -20.603002     2A    -20.540653     3A    -11.374166
       4A    -11.281543     5A    -11.232406     6A    -11.223684
       7A    -11.223091     8A    -11.221376     9A    -11.212627
      10A     -1.468026    11A     -1.360823    12A     -1.095440
      13A     -1.040759    14A     -1.002870    15A     -0.930910
      16A     -0.846431    17A     -0.796129    18A     -0.779307
      19A     -0.688233    20A     -0.684775    21A     -0.673028
      22A     -0.633659    23A     -0.616345    24A     -0.586442
      25A     -0.578268    26A     -0.573295    27A     -0.561308
      28A     -0.530528    29A     -0.527038    30A     -0.505828
      31A     -0.495779    32A     -0.478205    33A     -0.469922
      34A     -0.461536    35A     -0.448725    36A     -0.435741

  @DF-RHF Final Energy:  -422.97669773486467

   => Energetics <=

    Nuclear Repulsion Energy =            455.0302926129344883
    One-Electron Energy =               -1477.6502729278793140
    Two-Electron Energy =                 599.6432825800802675
    DFT Exchange-Correlation Energy =       0.0000000000000000
    Empirical Dispersion Energy =           0.0000000000000000
    PCM Polarization Energy =               0.0000000000000000
    EFP Energy =                            0.0000000000000000
    Total Energy =                       -422.9766977348645014

  Mulliken Charges: (a.u.)
   Center  Symbol    Alpha    Beta     Spin     Total
       1     O     4.28398  4.28398  0.00000 -0.56796
       2     C     2.61545  2.61545  0.00000  0.76909
       3     C     3.28779  3.28779  0.00000 -0.57558
       4     O     4.31239  4.31239  0.00000 -0.62477
       5     H     0.39750  0.39750  0.00000  0.20501
       6     H     0.39983  0.39983  0.00000  0.20034
       7     H     0.39752  0.39752  0.00000  0.20497
       8     C     2.99768  2.99768  0.00000  0.00464
       9     C     3.16641  3.16641  0.00000 -0.33283
      10     H     0.41024  0.41024  0.00000  0.17952
      11     H     0.41016  0.41016  0.00000  0.17969
      12     C     3.16352  3.16352  0.00000 -0.32703
      13     H     0.41192  0.41192  0.00000  0.17615
      14     H     0.41340  0.41340  0.00000  0.17320
      15     C     3.15343  3.15343  0.00000 -0.30686
      16     H     0.41656  0.41656  0.00000  0.16688
      17     H     0.42045  0.42045  0.00000  0.15910
      18     C     3.23972  3.23972  0.00000 -0.47944
      19     H     0.42083  0.42083  0.00000  0.15834
      20     H     0.42168  0.42168  0.00000  0.15665
      21     H     0.42109  0.42109  0.00000  0.15781
      22     H     0.41789  0.41789  0.00000  0.16422
      23     H     0.42057  0.42057  0.00000  0.15887

   Total alpha = 36.00000, Total beta = 36.00000, Total charge = -0.00000
