                              Psi4 1.0.54 Driver

  ==> Input File <==

--------------------------------------------------------------------------
set {
	reference rhf
	basis cc-pvtz
}

set_num_threads( 4 )
memory 2 gb

molecule MOL {
0 1

O	 0.749630	 1.305591	 -0.000460
C	 0.576499	 0.134701	 -0.003900
C	 -0.765656	 -0.550508	 -0.002152
O	 1.564816	 -0.744612	 -0.000631
C	 -1.945526	 0.411052	 0.000603
H	 -0.794329	 -1.203792	 -0.868145
H	 -0.791555	 -1.205429	 0.862701
C	 -3.282915	 -0.321280	 0.002596
H	 -1.880300	 1.059126	 -0.864925
H	 -1.877207	 1.057892	 0.866807
H	 -3.388495	 -0.952755	 -0.873419
H	 -4.107811	 0.380864	 0.004116
H	 -3.385717	 -0.953283	 0.878571
C	 1.226515	 -2.100356	 0.212724
H	 0.752353	 -2.227940	 1.174466
H	 2.154939	 -2.646833	 0.179823
H	 0.558697	 -2.452592	 -0.559279

	symmetry c1
}
set optking {
	frozen_dihedral = ("
		14 4 2 1
	")
}

ee,wfn = optimize('scf', return_wfn=True)
oeprop( wfn, 'DIPOLE', 'QUADRUPOLE', 'MULLIKEN_CHARGES')
f=open( 'psi4out.xyz', 'w' )
f.write( "17  " )
f.write( str(ee) + "\n" )
f.write( MOL.save_string_xyz() )
f.close()
--------------------------------------------------------------------------

    Molecular point group: c1
  Charge       = 0
  Multiplicity = 1
  Basis Set: CC-PVTZ
  Basis Set:
  @DF-RHF Final Energy:  -345.00972637030185
    Total Energy =                       -345.0097263703019053
    Molecular point group: c1
  Basis Set: CC-PVTZ
  Basis Set:
  Basis Set: CC-PVTZ
  Basis Set:
  @DF-RHF Final Energy:  -344.98026170249966
    Total Energy =                       -344.9802617024994333
  Basis Set: CC-PVTZ
  Basis Set:
  Basis Set: CC-PVTZ
  Basis Set:
  @DF-RHF Final Energy:  -345.01634194066952
    Total Energy =                       -345.0163419406698040
  Basis Set: CC-PVTZ
  Basis Set:
  Basis Set: CC-PVTZ
  Basis Set:
  @DF-RHF Final Energy:  -345.02006136057298
    Total Energy =                       -345.0200613605728677
  Basis Set: CC-PVTZ
  Basis Set:
  @DF-RHF Final Energy:  -345.01956539148483
    Total Energy =                       -345.0195653914850027
  @DF-RHF Final Energy:  -345.02032696335345
    Total Energy =                       -345.0203269633535115
  Basis Set: CC-PVTZ
  Basis Set:
  @DF-RHF Final Energy:  -345.02101719442527
    Total Energy =                       -345.0210171944254398
  Basis Set: CC-PVTZ
  Basis Set:
  Basis Set: CC-PVTZ
  Basis Set:
  @DF-RHF Final Energy:  -345.02105826114507
    Total Energy =                       -345.0210582611446171
  Basis Set: CC-PVTZ
  Basis Set:
  Basis Set: CC-PVTZ
  Basis Set:
  @DF-RHF Final Energy:  -345.02105970026315
    Total Energy =                       -345.0210597002628106
  Basis Set: CC-PVTZ
  Basis Set:
  Charge       = 0
  Multiplicity = 1
  Basis Set: CC-PVTZ
  Basis Set:

    Orbital Energies (a.u.)
    -----------------------

    Doubly Occupied:

       1A    -20.595037     2A    -20.528141     3A    -11.366515
       4A    -11.293528     5A    -11.244094     6A    -11.224218
       7A    -11.216933     8A     -1.466178     9A     -1.367696
      10A     -1.083982    11A     -0.990701    12A     -0.970030
      13A     -0.839871    14A     -0.767711    15A     -0.706254
      16A     -0.691998    17A     -0.675865    18A     -0.641802
      19A     -0.603932    20A     -0.579216    21A     -0.574094
      22A     -0.542930    23A     -0.536058    24A     -0.497953
      25A     -0.491885    26A     -0.484757    27A     -0.451135
      28A     -0.434587

  @DF-RHF Final Energy:  -345.02105990041372

   => Energetics <=

    Nuclear Repulsion Energy =            314.6580278678007403
    One-Electron Energy =               -1093.6239645938856029
    Two-Electron Energy =                 433.9448768256708604
    DFT Exchange-Correlation Energy =       0.0000000000000000
    Empirical Dispersion Energy =           0.0000000000000000
    PCM Polarization Energy =               0.0000000000000000
    EFP Energy =                            0.0000000000000000
    Total Energy =                       -345.0210599004140590
    Molecular point group: c1
  Basis Set: CC-PVTZ
  Basis Set:

  -Total Gradient:
     Atom            X                  Y                   Z
    ------   -----------------  -----------------  -----------------
       1        0.000018438057    -0.000043740266     0.001079523222
       2        0.000024793979     0.000137907589    -0.001006717488
       3        0.000011767320    -0.000007037560     0.000003950710
       4       -0.000145880527    -0.000172636981    -0.001032955639
       5       -0.000001162915     0.000003280902     0.000002545460
       6        0.000003906544    -0.000006307234     0.000000808793
       7       -0.000003297121    -0.000000777033    -0.000000932373
       8        0.000000009133    -0.000001506905    -0.000002130946
       9       -0.000000673233    -0.000000655963     0.000000367623
      10        0.000001703649    -0.000002467790    -0.000001535963
      11       -0.000000327209     0.000000042077     0.000000682227
      12       -0.000000783310     0.000000134579    -0.000000339605
      13        0.000000635308     0.000000837795     0.000000235040
      14        0.000079980856     0.000131409305     0.000976282179
      15        0.000003593930    -0.000028001643    -0.000006079278
      16        0.000019292843    -0.000012898109    -0.000005160457
      17       -0.000011997300     0.000002417235    -0.000008543507

  **** Optimization is complete! (in 10 steps) ****
    Final optimized geometry and variables:
    Molecular point group: c1

    Geometry (in Angstrom), charge = 0, multiplicity = 1:

    O            0.835910009140     1.588976675035     0.043325043517
    C            0.747922060959     0.414441661738    -0.006949410451
    C           -0.575220462944    -0.319352295750    -0.038390403151
    O            1.862945259610    -0.312652305789    -0.054243531239
    C           -1.776122517413     0.616677116686    -0.002160704620
    H           -0.600326292788    -0.932886019486    -0.933809293174
    H           -0.610436442756    -1.009413242764     0.798473990075
    C           -3.096907289284    -0.144343003419    -0.038653573750
    H           -1.718489846615     1.301197933212    -0.838789135247
    H           -1.723758787066     1.227376280135     0.890220369057
    H           -3.186172956149    -0.740177859153    -0.941283397516
    H           -3.936054919220     0.540039644513    -0.012402443594
    H           -3.191998716291    -0.814433760888     0.809723734582
    C            1.878756613424    -1.710114091854     0.088408419382
    H            1.498787813754    -2.015087914219     1.054690435524
    H            2.913395233512    -2.002735992545     0.013291950479
    H            1.318232891048    -2.204251651828    -0.693673776954

  Mulliken Charges: (a.u.)
   Center  Symbol    Alpha    Beta     Spin     Total
       1     O     4.18099  4.18099  0.00000 -0.36198
       2     C     2.80513  2.80513  0.00000  0.38975
       3     C     3.12918  3.12918  0.00000 -0.25836
       4     O     4.12837  4.12837  0.00000 -0.25675
       5     C     3.08033  3.08033  0.00000 -0.16066
       6     H     0.44040  0.44040  0.00000  0.11919
       7     H     0.44231  0.44231  0.00000  0.11539
       8     C     3.15024  3.15024  0.00000 -0.30049
       9     H     0.44327  0.44327  0.00000  0.11346
      10     H     0.44384  0.44384  0.00000  0.11231
      11     H     0.45643  0.45643  0.00000  0.08715
      12     H     0.44406  0.44406  0.00000  0.11187
      13     H     0.45670  0.45670  0.00000  0.08660
      14     C     3.04567  3.04567  0.00000 -0.09134
      15     H     0.45966  0.45966  0.00000  0.08067
      16     H     0.43242  0.43242  0.00000  0.13516
      17     H     0.46099  0.46099  0.00000  0.07802

   Total alpha = 28.00000, Total beta = 28.00000, Total charge =  0.00000

*** Psi4 exiting successfully. Buy a developer a beer!
