  ==> Input File <==

--------------------------------------------------------------------------
set {
	reference rhf
	basis 6-31G*
}

set_num_threads( 4 )
memory 2 gb

molecule MOL {
0 1

O	 -0.988096	 -1.408613	 0.050699
C	 -0.676749	 -0.249230	 -0.009274
C	 -1.746085	 0.827156	 -0.009539
N	 0.623947	 0.147590	 -0.102813
H	 -1.701500	 1.431508	 -0.908902
H	 -2.703425	 0.330732	 0.036390
H	 -1.647323	 1.487769	 0.845106
C	 1.224495	 0.831092	 1.025922
C	 1.351128	 0.252740	 -1.348765
H	 2.253407	 0.507488	 1.138337
H	 0.675972	 0.595108	 1.921117
H	 1.218182	 1.909583	 0.883657
H	 2.398373	 0.042655	 -1.166607
H	 0.997319	 -0.460237	 -2.076376
H	 1.279004	 1.250267	 -1.778360

	symmetry c1
}
set optking {
	frozen_dihedral = ("
		8 4 2 3
	")
}

ee = optimize('scf')
oeprop('DIPOLE', 'QUADRUPOLE', 'MULLIKEN_CHARGES')
f=open( 'psi4out.xyz', 'w' )
f.write( "15  " )
f.write( str(ee) + "\n" )
f.write( MOL.save_string_xyz() )
f.close()
--------------------------------------------------------------------------

    Molecular point group: c1
  Charge       = 0
  Multiplicity = 1
  Basis Set: 6-31G*
  Basis Set:
  @DF-RHF Final Energy:  -285.99435209332978
    Total Energy =                       -285.9943520933294963
    Molecular point group: c1
  Basis Set: 6-31G*
  Basis Set:
  Basis Set: 6-31G*
  Basis Set:
  @DF-RHF Final Energy:  -285.99814821422001
    Total Energy =                       -285.9981482142201799
  Basis Set: 6-31G*
  Basis Set:
  Basis Set: 6-31G*
  Basis Set:
  @DF-RHF Final Energy:  -285.99855487262766
    Total Energy =                       -285.9985548726276079
  Basis Set: 6-31G*
  Basis Set:
  Basis Set: 6-31G*
  Basis Set:
  @DF-RHF Final Energy:  -285.99905922752265
    Total Energy =                       -285.9990592275227641
  Basis Set: 6-31G*
  Basis Set:
  @DF-RHF Final Energy:  -285.99976428685648
    Total Energy =                       -285.9997642868568164
  @DF-RHF Final Energy:  -286.00684514159320
    Total Energy =                       -286.0068451415932032
  @DF-RHF Final Energy:  -286.01252092568484
    Total Energy =                       -286.0125209256848393
  @DF-RHF Final Energy:  -286.01519649775514
    Total Energy =                       -286.0151964977551984
  @DF-RHF Final Energy:  -286.01809341602211
    Total Energy =                       -286.0180934160223956
  @DF-RHF Final Energy:  -286.01968459225088
    Total Energy =                       -286.0196845922509965
  @DF-RHF Final Energy:  -286.01988824359660
    Total Energy =                       -286.0198882435965970
  @DF-RHF Final Energy:  -286.01990532598984
    Total Energy =                       -286.0199053259897823
  Basis Set: 6-31G*
  Basis Set:
  @DF-RHF Final Energy:  -286.01994413402190
    Total Energy =                       -286.0199441340221256
  Basis Set: 6-31G*
  Basis Set:
  Basis Set: 6-31G*
  Basis Set:
  @DF-RHF Final Energy:  -286.01995996998903
    Total Energy =                       -286.0199599699891451
  Basis Set: 6-31G*
  Basis Set:
  Basis Set: 6-31G*
  Basis Set:
  @DF-RHF Final Energy:  -286.01996919132574
    Total Energy =                       -286.0199691913256856
  Basis Set: 6-31G*
  Basis Set:
  Charge       = 0
  Multiplicity = 1
  Basis Set: 6-31G*
  Basis Set:

    Orbital Energies (a.u.)
    -----------------------

    Doubly Occupied:

       1A    -20.537291     2A    -15.575323     3A    -11.346104
       4A    -11.263382     5A    -11.244398     6A    -11.228418
       7A     -1.401081     8A     -1.239130     9A     -1.012342
      10A     -0.966684    11A     -0.907683    12A     -0.736616
      13A     -0.680468    14A     -0.657188    15A     -0.647731
      16A     -0.601209    17A     -0.580570    18A     -0.567947
      19A     -0.558497    20A     -0.538900    21A     -0.524054
      22A     -0.494650    23A     -0.422506    24A     -0.379431

  @DF-RHF Final Energy:  -286.01996992037607

   => Energetics <=

    Nuclear Repulsion Energy =            252.6011945440284308
    One-Electron Energy =                -889.0191227959104481
    Two-Electron Energy =                 350.3979583315061177
    DFT Exchange-Correlation Energy =       0.0000000000000000
    Empirical Dispersion Energy =           0.0000000000000000
    PCM Polarization Energy =               0.0000000000000000
    EFP Energy =                            0.0000000000000000
    Total Energy =                       -286.0199699203758996
    Molecular point group: c1
  Basis Set: 6-31G*
  Basis Set:

  -Total Gradient:
     Atom            X                  Y                   Z
    ------   -----------------  -----------------  -----------------
       1       -0.000038596567    -0.000079077607     0.000041585063
       2        0.004151330829    -0.004782004465     0.008108720551
       3       -0.001661780891     0.001647730988    -0.005610980516
       4       -0.006058426236     0.008440599523    -0.002154322480
       5       -0.000000103152     0.000014288550    -0.000011961091
       6        0.000003136840     0.000008282322    -0.000004922912
       7        0.000003888517     0.000015800921     0.000007198212
       8        0.003573498411    -0.005277330710    -0.000352990461
       9        0.000047709361    -0.000007962943    -0.000082977769
      10       -0.000006502785    -0.000003956936     0.000000696706
      11       -0.000025177834     0.000000523562     0.000012290736
      12        0.000004573076     0.000005610443    -0.000000477832
      13       -0.000006987856     0.000004207382     0.000012802921
      14        0.000004813807     0.000006562171     0.000021612123
      15        0.000008624479     0.000006726805     0.000013726749

  **** Optimization is complete! (in 16 steps) ****
    Final optimized geometry and variables:
    Molecular point group: c1

    Geometry (in Angstrom), charge = 0, multiplicity = 1:

    O           -0.724837498554    -1.375620439103    -0.512342761249
    C           -0.637656323019    -0.292419247215    -0.016610070217
    C           -1.862518621947     0.395787160585     0.548070025650
    N            0.515469321391     0.487387395201    -0.115156430667
    H           -2.403543015215     0.795444561593    -0.303604096767
    H           -2.497377856495    -0.326199903945     1.043517140985
    H           -1.641949248128     1.217658337917     1.214212823923
    C            1.151000709775     0.849772307551     1.145913736799
    C            1.491074937871    -0.031660086441    -1.064142605131
    H            1.663093414780     0.001495657971     1.597064078808
    H            0.426268030280     1.227101942476     1.853995286126
    H            1.877397623179     1.632090508594     0.966203246090
    H            1.967106291655    -0.944757401981    -0.716236187245
    H            1.009647714720    -0.239222980315    -2.007688035001
    H            2.251355487983     0.724646627451    -1.217826552196

  Mulliken Charges: (a.u.)
   Center  Symbol    Alpha    Beta     Spin     Total
       1     O     4.27739  4.27739  0.00000 -0.55477
       2     C     2.65529  2.65529  0.00000  0.68942
       3     C     3.27587  3.27587  0.00000 -0.55174
       4     N     3.81014  3.81014  0.00000 -0.62027
       5     H     0.39697  0.39697  0.00000  0.20607
       6     H     0.40049  0.40049  0.00000  0.19902
       7     H     0.41222  0.41222  0.00000  0.17557
       8     C     3.15358  3.15358  0.00000 -0.30717
       9     C     3.14461  3.14461  0.00000 -0.28922
      10     H     0.41715  0.41715  0.00000  0.16571
      11     H     0.41079  0.41079  0.00000  0.17842
      12     H     0.40829  0.40829  0.00000  0.18342
      13     H     0.41724  0.41724  0.00000  0.16553
      14     H     0.40241  0.40241  0.00000  0.19519
      15     H     0.41759  0.41759  0.00000  0.16483

   Total alpha = 24.00000, Total beta = 24.00000, Total charge = -0.00000
