  ==> Input File <==

--------------------------------------------------------------------------
set {
	reference rhf
	basis 6-31G*
}

set_num_threads( 4 )
memory 2 gb

molecule MOL {
0 1

H	 -4.236494	 0.538104	 0.039757
O	 -3.517110	 -0.026191	 -0.205115
C	 -2.306886	 0.532354	 0.237577
C	 -1.177863	 -0.397191	 -0.171080
H	 -2.156308	 1.517575	 -0.201710
H	 -2.315015	 0.655684	 1.319734
C	 0.198102	 0.111031	 0.262842
H	 -1.208843	 -0.518759	 -1.250427
H	 -1.368741	 -1.376554	 0.258909
C	 1.331804	 -0.827780	 -0.158768
H	 0.361943	 1.100838	 -0.156218
H	 0.217265	 0.229072	 1.345532
C	 2.723619	 -0.410569	 0.329459
H	 1.342964	 -0.912588	 -1.244120
H	 1.116806	 -1.824343	 0.220779
C	 3.214524	 0.930548	 -0.218949
H	 3.433303	 -1.183687	 0.045336
H	 2.728898	 -0.379955	 1.417209
H	 3.207976	 0.933548	 -1.305682
H	 2.598491	 1.757745	 0.117839
H	 4.231413	 1.130158	 0.104850

	symmetry c1
}
set optking {
	frozen_dihedral = ("
		16 13 10 14
	")
}

ee = optimize('scf')
oeprop('DIPOLE', 'QUADRUPOLE', 'MULLIKEN_CHARGES')
f=open( 'psi4out.xyz', 'w' )
f.write( "21  " )
f.write( str(ee) + "\n" )
f.write( MOL.save_string_xyz() )
f.close()
--------------------------------------------------------------------------

    Molecular point group: c1
  Charge       = 0
  Multiplicity = 1
  Basis Set: 6-31G*
  Basis Set:
  @DF-RHF Final Energy:  -310.21280275110342
    Total Energy =                       -310.2128027511034816
    Molecular point group: c1
  Basis Set: 6-31G*
  Basis Set:
  Basis Set: 6-31G*
  Basis Set:
  @DF-RHF Final Energy:  -310.21277331074305
    Total Energy =                       -310.2127733107428753
  Basis Set: 6-31G*
  Basis Set:
  Basis Set: 6-31G*
  Basis Set:
  @DF-RHF Final Energy:  -310.21281151238270
    Total Energy =                       -310.2128115123827001
  Basis Set: 6-31G*
  Basis Set:
  Charge       = 0
  Multiplicity = 1
  Basis Set: 6-31G*
  Basis Set:

    Orbital Energies (a.u.)
    -----------------------

    Doubly Occupied:

       1A    -20.551848     2A    -11.267067     3A    -11.215728
       4A    -11.215177     5A    -11.213586     6A    -11.210694
       7A    -11.208191     8A     -1.358671     9A     -1.086293
      10A     -1.033169    11A     -0.954344    12A     -0.876082
      13A     -0.807419    14A     -0.778453    15A     -0.692442
      16A     -0.661514    17A     -0.622734    18A     -0.606481
      19A     -0.586548    20A     -0.569888    21A     -0.536218
      22A     -0.519994    23A     -0.510927    24A     -0.486779
      25A     -0.479648    26A     -0.460006    27A     -0.456053
      28A     -0.443331    29A     -0.433993

  @DF-RHF Final Energy:  -310.21281165617944

   => Energetics <=

    Nuclear Repulsion Energy =            312.5433713158657270
    One-Electron Energy =               -1039.8258088630545899
    Two-Electron Energy =                 417.0696258910096503
    DFT Exchange-Correlation Energy =       0.0000000000000000
    Empirical Dispersion Energy =           0.0000000000000000
    PCM Polarization Energy =               0.0000000000000000
    EFP Energy =                            0.0000000000000000
    Total Energy =                       -310.2128116561792694
    Molecular point group: c1
  Basis Set: 6-31G*
  Basis Set:

  -Total Gradient:
     Atom            X                  Y                   Z
    ------   -----------------  -----------------  -----------------
       1       -0.000000755138    -0.000000654057     0.000002407958
       2        0.000002207335    -0.000002291269     0.000003468204
       3       -0.000000171804    -0.000011024167     0.000021568216
       4        0.000008108390    -0.000022463026     0.000003670787
       5        0.000001907787    -0.000010309514    -0.000005355031
       6       -0.000002695787     0.000010125537     0.000007187768
       7        0.000003788121     0.000025744301    -0.000027467296
       8       -0.000005732466     0.000016819006    -0.000000794831
       9        0.000003312456    -0.000011982152    -0.000018298636
      10       -0.000264443824     0.000763692507     0.000125633493
      11        0.000010297534     0.000000037740    -0.000017283998
      12        0.000011855505     0.000006337953    -0.000015458568
      13        0.000266784793    -0.000417112566    -0.000427944494
      14        0.000137595558    -0.000516672932     0.000060575883
      15        0.000002240474    -0.000032610871    -0.000021445336
      16       -0.000164344366     0.000207219881     0.000316579999
      17       -0.000026391497    -0.000009089785     0.000000423808
      18        0.000005822970     0.000006199422     0.000006602117
      19        0.000016274656     0.000006807898    -0.000014980872
      20       -0.000001590617    -0.000013813619    -0.000007273312
      21       -0.000004070074     0.000005039714     0.000008184142

  **** Optimization is complete! (in 4 steps) ****
    Final optimized geometry and variables:
    Molecular point group: c1

    Geometry (in Angstrom), charge = 0, multiplicity = 1:

    H           -4.236345844245     0.521552781643     0.044099075736
    O           -3.516024159902    -0.041168823754    -0.201660082321
    C           -2.305545817582     0.525296733856     0.230136580901
    C           -1.175075058007    -0.402007539164    -0.179586196727
    H           -2.161879074986     1.508346529968    -0.216259922635
    H           -2.307631047047     0.655411607572     1.311538604685
    C            0.201161217771     0.114034878566     0.244183445949
    H           -1.211317265359    -0.529552458201    -1.258082191330
    H           -1.359778057226    -1.379747908948     0.256682121258
    C            1.335327566634    -0.824748035256    -0.175229496578
    H            0.360078334505     1.100893776604    -0.183478517490
    H            0.224740636010     0.240662524378     1.325865852930
    C            2.726382572093    -0.415502221624     0.321598791334
    H            1.352027298257    -0.909082077209    -1.260569511993
    H            1.117156349968    -1.822491012548     0.199845837456
    C            3.230115251672     0.922971233805    -0.221634407690
    H            3.432408391200    -1.194331955963     0.044298246826
    H            2.723197819243    -0.383142852083     1.409377400582
    H            3.225654546402     0.930743661034    -1.308460465500
    H            2.620833310564     1.753983140225     0.117691050458
    H            4.248158142054     1.112143241854     0.104767849574

  Mulliken Charges: (a.u.)
   Center  Symbol    Alpha    Beta     Spin     Total
       1     H     0.28117  0.28117  0.00000  0.43765
       2     O     4.37179  4.37179  0.00000 -0.74359
       3     C     2.98972  2.98972  0.00000  0.02056
       4     C     3.15899  3.15899  0.00000 -0.31798
       5     H     0.43293  0.43293  0.00000  0.13414
       6     H     0.43288  0.43288  0.00000  0.13425
       7     C     3.16203  3.16203  0.00000 -0.32406
       8     H     0.41476  0.41476  0.00000  0.17048
       9     H     0.41479  0.41479  0.00000  0.17043
      10     C     3.15174  3.15174  0.00000 -0.30348
      11     H     0.42133  0.42133  0.00000  0.15733
      12     H     0.42414  0.42414  0.00000  0.15173
      13     C     3.15229  3.15229  0.00000 -0.30457
      14     H     0.42298  0.42298  0.00000  0.15403
      15     H     0.42107  0.42107  0.00000  0.15786
      16     C     3.24137  3.24137  0.00000 -0.48274
      17     H     0.42062  0.42062  0.00000  0.15876
      18     H     0.42360  0.42360  0.00000  0.15279
      19     H     0.42207  0.42207  0.00000  0.15586
      20     H     0.42049  0.42049  0.00000  0.15902
      21     H     0.41923  0.41923  0.00000  0.16154

   Total alpha = 29.00000, Total beta = 29.00000, Total charge =  0.00000
