  ==> Input File <==

--------------------------------------------------------------------------
set {
	reference rhf
	basis cc-pvtz
}

set_num_threads( 4 )
memory 2 gb

molecule MOL {
0 1

H	 -2.498963	 -0.741158	 -0.729149
O	 -2.346257	 -0.289210	 0.080372
C	 -1.183935	 0.486039	 -0.009831
C	 0.062853	 -0.375310	 0.027457
H	 -1.178881	 1.094526	 -0.908634
H	 -1.184406	 1.155156	 0.838676
O	 0.195193	 -1.005853	 -1.203946
H	 -0.017923	 -1.112526	 0.828009
H	 0.928457	 0.247310	 0.243438
C	 1.321416	 -1.811035	 -1.324469
H	 1.315195	 -2.615290	 -0.592068
H	 1.315655	 -2.242273	 -2.314765
H	 2.235932	 -1.236614	 -1.197102

	symmetry c1
}
set optking {
	frozen_dihedral = ("
		8 4 3 5
	")
}

ee = optimize('scf')
oeprop('DIPOLE', 'QUADRUPOLE', 'MULLIKEN_CHARGES')
f=open( 'psi4out.xyz', 'w' )
f.write( "13  " )
f.write( str(ee) + "\n" )
f.write( MOL.save_string_xyz() )
f.close()
--------------------------------------------------------------------------

    Molecular point group: c1
  Charge       = 0
  Multiplicity = 1
  Basis Set: CC-PVTZ
  Basis Set:
  @DF-RHF Final Energy:  -268.06413178618749
    Total Energy =                       -268.0641317861876018
    Molecular point group: c1
  Basis Set: CC-PVTZ
  Basis Set:
  Basis Set: CC-PVTZ
  Basis Set:
  @DF-RHF Final Energy:  -268.06480054498030
    Total Energy =                       -268.0648005449804714
  Basis Set: CC-PVTZ
  Basis Set:
  Basis Set: CC-PVTZ
  Basis Set:
  @DF-RHF Final Energy:  -268.06493198086810
    Total Energy =                       -268.0649319808682094
  Basis Set: CC-PVTZ
  Basis Set:
  Basis Set: CC-PVTZ
  Basis Set:
  @DF-RHF Final Energy:  -268.06494182113261
    Total Energy =                       -268.0649418211323791
  Basis Set: CC-PVTZ
  Basis Set:
  Charge       = 0
  Multiplicity = 1
  Basis Set: CC-PVTZ
  Basis Set:

    Orbital Energies (a.u.)
    -----------------------

    Doubly Occupied:

       1A    -20.559102     2A    -20.543898     3A    -11.270849
       4A    -11.270050     5A    -11.267087     6A     -1.395349
       7A     -1.360181     8A     -1.021209     9A     -0.919966
      10A     -0.837778    11A     -0.706308    12A     -0.682732
      13A     -0.664293    14A     -0.636003    15A     -0.592279
      16A     -0.577884    17A     -0.541471    18A     -0.492590
      19A     -0.489364    20A     -0.437315    21A     -0.429088

  @DF-RHF Final Energy:  -268.06494265431957

   => Energetics <=

    Nuclear Repulsion Energy =            194.0778906094135436
    One-Electron Energy =                -750.8960726536091670
    Two-Electron Energy =                 288.7532393898761711
    DFT Exchange-Correlation Energy =       0.0000000000000000
    Empirical Dispersion Energy =           0.0000000000000000
    PCM Polarization Energy =               0.0000000000000000
    EFP Energy =                            0.0000000000000000
    Total Energy =                       -268.0649426543194522
    Molecular point group: c1
  Basis Set: CC-PVTZ
  Basis Set:

  -Total Gradient:
     Atom            X                  Y                   Z
    ------   -----------------  -----------------  -----------------
       1        0.000021950835     0.000004130226    -0.000010115678
       2       -0.000008224285     0.000039764548     0.000035390717
       3        0.001446861355     0.002326276590     0.001468690506
       4        0.001304041883     0.001940013187     0.002126536035
       5       -0.001473536798    -0.002274119601    -0.001624550101
       6       -0.000003227768    -0.000019085962    -0.000008222195
       7       -0.000013910622     0.000012105383     0.000047965888
       8       -0.001269296875    -0.002032295415    -0.002053214153
       9       -0.000011519572    -0.000003042841     0.000019214583
      10        0.000011797271    -0.000004255026    -0.000004557629
      11       -0.000003309521     0.000003862090     0.000004023197
      12       -0.000005234736     0.000012365487     0.000001632908
      13        0.000003608833    -0.000005718666    -0.000002794080

  **** Optimization is complete! (in 5 steps) ****
    Final optimized geometry and variables:
    Molecular point group: c1

    Geometry (in Angstrom), charge = 0, multiplicity = 1:

    H           -1.908616829629    -0.270336269835    -0.227710797935
    O           -1.924034052292     0.291788280893     0.526832670657
    C           -0.779748814637     1.096483691689     0.511424275260
    C            0.488072295635     0.274479301925     0.530555574769
    H           -0.777514805129     1.724065472559    -0.374962024147
    H           -0.825795524558     1.727309202268     1.388515532198
    O            0.611556314844    -0.352728185004    -0.711748367285
    H            0.417373802192    -0.480229771330     1.310613748500
    H            1.351284331218     0.908352949232     0.725873539043
    C            1.689256696449    -1.224540087503    -0.816764715349
    H            1.617741505392    -2.033839188735    -0.094087323072
    H            1.681019144394    -1.643785148293    -1.812300734381
    H            2.633734766464    -0.707809203069    -0.662793670329

  Mulliken Charges: (a.u.)
   Center  Symbol    Alpha    Beta     Spin     Total
       1     H     0.38721  0.38721  0.00000  0.22557
       2     O     4.20916  4.20916  0.00000 -0.41831
       3     C     2.96200  2.96200  0.00000  0.07600
       4     C     2.97919  2.97919  0.00000  0.04162
       5     H     0.46797  0.46797  0.00000  0.06406
       6     H     0.45686  0.45686  0.00000  0.08629
       7     O     4.18268  4.18268  0.00000 -0.36535
       8     H     0.46761  0.46761  0.00000  0.06478
       9     H     0.47094  0.47094  0.00000  0.05811
      10     C     3.03024  3.03024  0.00000 -0.06048
      11     H     0.46942  0.46942  0.00000  0.06117
      12     H     0.44667  0.44667  0.00000  0.10666
      13     H     0.47005  0.47005  0.00000  0.05990

   Total alpha = 21.00000, Total beta = 21.00000, Total charge = -0.00000
