  ==> Input File <==

--------------------------------------------------------------------------
set {
	reference rhf
	basis 6-31G*
}

set_num_threads( 4 )
memory 2 gb

molecule MOL {
0 1

H	 -0.000158	 1.970498	 0.756846
O	 -0.000074	 1.880206	 -0.189275
C	 -0.000015	 0.544847	 -0.545111
C	 1.372122	 0.150815	 -1.081734
C	 -1.146576	 0.265118	 -1.511107
H	 -0.178629	 -0.034711	 0.348373
F	 2.283614	 0.349671	 -0.153734
F	 1.423531	 -1.115000	 -1.438705
F	 1.696521	 0.889074	 -2.131180
F	 -2.292370	 0.557589	 -0.933912
F	 -1.188428	 -0.996542	 -1.883720
F	 -1.039265	 1.013017	 -2.597712

	symmetry c1
}
set optking {
	frozen_dihedral = ("
		6 3 2 1
	")
}

ee = optimize('scf')
oeprop('DIPOLE', 'QUADRUPOLE', 'MULLIKEN_CHARGES')
f=open( 'psi4out.xyz', 'w' )
f.write( "12  " )
f.write( str(ee) + "\n" )
f.write( MOL.save_string_xyz() )
f.close()
--------------------------------------------------------------------------

    Molecular point group: c1
  Charge       = 0
  Multiplicity = 1
  Basis Set: 6-31G*
  Basis Set:
  @DF-RHF Final Energy:  -786.27360710763230
    Total Energy =                       -786.2736071076325288
    Molecular point group: c1
  Basis Set: 6-31G*
  Basis Set:
  Basis Set: 6-31G*
  Basis Set:
  @DF-RHF Final Energy:  -786.27524568730132
    Total Energy =                       -786.2752456873015490
  Basis Set: 6-31G*
  Basis Set:
  Basis Set: 6-31G*
  Basis Set:
  @DF-RHF Final Energy:  -786.27554922180457
    Total Energy =                       -786.2755492218046811
  Basis Set: 6-31G*
  Basis Set:
  Basis Set: 6-31G*
  Basis Set:
  @DF-RHF Final Energy:  -786.27557629797468
    Total Energy =                       -786.2755762979738847
  Basis Set: 6-31G*
  Basis Set:
  Basis Set: 6-31G*
  Basis Set:
  @DF-RHF Final Energy:  -786.27558043703618
    Total Energy =                       -786.2755804370362966
  Basis Set: 6-31G*
  Basis Set:
  Charge       = 0
  Multiplicity = 1
  Basis Set: 6-31G*
  Basis Set:

    Orbital Energies (a.u.)
    -----------------------

    Doubly Occupied:

       1A    -26.354970     2A    -26.354667     3A    -26.354346
       4A    -26.352772     5A    -26.352140     6A    -26.351203
       7A    -20.616804     8A    -11.520017     9A    -11.519620
      10A    -11.349571    11A     -1.757420    12A     -1.751670
      13A     -1.653506    14A     -1.651624    15A     -1.649176
      16A     -1.648413    17A     -1.434412    18A     -1.101659
      19A     -0.990679    20A     -0.931111    21A     -0.858199
      22A     -0.854345    23A     -0.849068    24A     -0.836659
      25A     -0.825981    26A     -0.777996    27A     -0.766638
      28A     -0.724138    29A     -0.717473    30A     -0.716022
      31A     -0.710444    32A     -0.677143    33A     -0.672422
      34A     -0.665315    35A     -0.663600    36A     -0.654879
      37A     -0.649492    38A     -0.619189    39A     -0.616525
      40A     -0.558408    41A     -0.504367

  @DF-RHF Final Energy:  -786.27558100185877

   => Energetics <=

    Nuclear Repulsion Energy =            669.6426233196417570
    One-Electron Energy =               -2426.6082380603975253
    Two-Electron Energy =                 970.6900337388970001
    DFT Exchange-Correlation Energy =       0.0000000000000000
    Empirical Dispersion Energy =           0.0000000000000000
    PCM Polarization Energy =               0.0000000000000000
    EFP Energy =                            0.0000000000000000
    Total Energy =                       -786.2755810018588818
    Molecular point group: c1
  Basis Set: 6-31G*
  Basis Set:

  -Total Gradient:
     Atom            X                  Y                   Z
    ------   -----------------  -----------------  -----------------
       1       -0.000606091932     0.000022814473     0.000011455926
       2        0.000917373701    -0.000036111335     0.000052579133
       3       -0.000844159460     0.000092238357    -0.000116097500
       4       -0.000003387514     0.000081988292    -0.000114550571
       5        0.000034211172     0.000112222872    -0.000090950124
       6        0.000536960387    -0.000007772672     0.000078060365
       7        0.000016894896    -0.000012727348     0.000046128102
       8       -0.000029696576    -0.000075647915    -0.000002376848
       9       -0.000021987515    -0.000021172106     0.000050238173
      10       -0.000028266855    -0.000014325785     0.000031201480
      11        0.000019230516    -0.000102151150    -0.000014795349
      12        0.000008919174    -0.000039355687     0.000069107213

  **** Optimization is complete! (in 6 steps) ****
    Final optimized geometry and variables:
    Molecular point group: c1

    Geometry (in Angstrom), charge = 0, multiplicity = 1:

    H           -0.118718464012     1.636752509980     2.005194034521
    O           -0.116247690060     1.520223487594     1.066452532902
    C           -0.116839052399     0.176592299009     0.730216637291
    C            1.257449730955    -0.186962681750     0.180800750914
    C           -1.260104124104    -0.055654480171    -0.249041733296
    H           -0.293063320173    -0.472117791907     1.579510139593
    F            2.165220260295     0.064524526362     1.107725273915
    F            1.331369855090    -1.471108547260    -0.114700287056
    F            1.567136373408     0.501531373807    -0.893139151029
    F           -2.402815844593     0.228842838671     0.346118349449
    F           -1.308408690148    -1.318486066194    -0.630930050122
    F           -1.157312012564     0.694729016206    -1.321215431894

  Mulliken Charges: (a.u.)
   Center  Symbol    Alpha    Beta     Spin     Total
       1     H     0.26416  0.26416  0.00000  0.47167
       2     O     4.36168  4.36168  0.00000 -0.72335
       3     C     3.05779  3.05779  0.00000 -0.11558
       4     C     2.43600  2.43600  0.00000  1.12800
       5     C     2.43429  2.43429  0.00000  1.13142
       6     H     0.38671  0.38671  0.00000  0.22658
       7     F     4.68259  4.68259  0.00000 -0.36518
       8     F     4.67736  4.67736  0.00000 -0.35472
       9     F     4.67064  4.67064  0.00000 -0.34129
      10     F     4.68017  4.68017  0.00000 -0.36035
      11     F     4.67799  4.67799  0.00000 -0.35597
      12     F     4.67062  4.67062  0.00000 -0.34125

   Total alpha = 41.00000, Total beta = 41.00000, Total charge = -0.00000
