  ==> Input File <==

--------------------------------------------------------------------------
set {
	reference rhf
	basis cc-pvtz
}

set_num_threads( 4 )
memory 2 gb

molecule MOL {
0 1

H	 -2.498963	 -0.741158	 -0.729149
O	 -2.346257	 -0.289210	 0.080372
C	 -1.183935	 0.486039	 -0.009831
C	 0.062853	 -0.375310	 0.027457
H	 -1.178881	 1.094526	 -0.908634
H	 -1.184406	 1.155156	 0.838676
O	 1.155058	 0.447570	 0.275261
H	 0.184150	 -0.895872	 -0.923962
H	 -0.041049	 -1.131838	 0.802340
C	 2.372080	 -0.216986	 0.367152
H	 2.611650	 -0.737203	 -0.557648
H	 3.137894	 0.519848	 0.560259
H	 2.369092	 -0.941028	 1.178494

	symmetry c1
}
set optking {
	frozen_dihedral = ("
		8 4 3 5
	")
}

ee = optimize('scf')
oeprop('DIPOLE', 'QUADRUPOLE', 'MULLIKEN_CHARGES')
f=open( 'psi4out.xyz', 'w' )
f.write( "13  " )
f.write( str(ee) + "\n" )
f.write( MOL.save_string_xyz() )
f.close()
--------------------------------------------------------------------------

    Molecular point group: c1
  Charge       = 0
  Multiplicity = 1
  Basis Set: CC-PVTZ
  Basis Set:
  @DF-RHF Final Energy:  -268.06141325860534
    Total Energy =                       -268.0614132586051142
    Molecular point group: c1
  Basis Set: CC-PVTZ
  Basis Set:
  Basis Set: CC-PVTZ
  Basis Set:
  @DF-RHF Final Energy:  -268.06154874644363
    Total Energy =                       -268.0615487464436910
  Basis Set: CC-PVTZ
  Basis Set:
  Basis Set: CC-PVTZ
  Basis Set:
  @DF-RHF Final Energy:  -268.06158022438626
    Total Energy =                       -268.0615802243864323
  Basis Set: CC-PVTZ
  Basis Set:
  Charge       = 0
  Multiplicity = 1
  Basis Set: CC-PVTZ
  Basis Set:

    Orbital Energies (a.u.)
    -----------------------

    Doubly Occupied:

       1A    -20.555181     2A    -20.552280     3A    -11.268949
       4A    -11.267697     5A    -11.267243     6A     -1.390963
       7A     -1.368277     8A     -1.019295     9A     -0.913325
      10A     -0.842427    11A     -0.712074    12A     -0.674351
      13A     -0.663307    14A     -0.641836    15A     -0.591417
      16A     -0.572406    17A     -0.548533    18A     -0.490692
      19A     -0.483300    20A     -0.441565    21A     -0.424412

  @DF-RHF Final Energy:  -268.06158110271326

   => Energetics <=

    Nuclear Repulsion Energy =            190.4288683994988105
    One-Electron Energy =                -743.6018400875434509
    Two-Electron Energy =                 285.1113905853314350
    DFT Exchange-Correlation Energy =       0.0000000000000000
    Empirical Dispersion Energy =           0.0000000000000000
    PCM Polarization Energy =               0.0000000000000000
    EFP Energy =                            0.0000000000000000
    Total Energy =                       -268.0615811027132054
    Molecular point group: c1
  Basis Set: CC-PVTZ
  Basis Set:

  -Total Gradient:
     Atom            X                  Y                   Z
    ------   -----------------  -----------------  -----------------
       1       -0.000019697127    -0.000037485445     0.000007728283
       2       -0.000015782707     0.000027452228    -0.000052061296
       3        0.002056929282     0.003186327801     0.001611138941
       4       -0.002242854325    -0.003205382334     0.000932336149
       5       -0.001393125731    -0.002133870629    -0.001455439109
       6        0.000040699166     0.000000161878     0.000005753797
       7       -0.000051970560    -0.000055725987    -0.000004721510
       8        0.001610012142     0.002209283436    -0.001035917655
       9       -0.000028325728     0.000007720155    -0.000000499043
      10        0.000051894891     0.000002278014    -0.000004861291
      11        0.000004225401    -0.000003186885     0.000001091571
      12       -0.000004061124    -0.000004651324    -0.000000326699
      13       -0.000007943583     0.000007079092    -0.000004222137

  **** Optimization is complete! (in 4 steps) ****
    Final optimized geometry and variables:
    Molecular point group: c1

    Geometry (in Angstrom), charge = 0, multiplicity = 1:

    H           -2.487068278503    -0.710731579859    -0.914551928721
    O           -2.342642040073    -0.281011265757    -0.091638857086
    C           -1.173862037923     0.491865141611    -0.144468240104
    C            0.068694175907    -0.376457705181    -0.078966973536
    H           -1.157675966931     1.094877342929    -1.046568454141
    H           -1.190168032248     1.153330659158     0.708898151337
    O            1.162889643552     0.451433471858     0.153620751505
    H            0.207808171289    -0.909092705651    -1.020724356843
    H           -0.044840641393    -1.109274721047     0.716019361461
    C            2.384648015382    -0.207589970756     0.213280433907
    H            2.610425318200    -0.713103588200    -0.723148569387
    H            3.150118195138     0.530387475230     0.403431981554
    H            2.400376902127    -0.943515321865     1.013857393762

  Mulliken Charges: (a.u.)
   Center  Symbol    Alpha    Beta     Spin     Total
       1     H     0.39445  0.39445  0.00000  0.21111
       2     O     4.20177  4.20177  0.00000 -0.40355
       3     C     2.97343  2.97343  0.00000  0.05313
       4     C     2.96730  2.96730  0.00000  0.06540
       5     H     0.46666  0.46666  0.00000  0.06668
       6     H     0.45173  0.45173  0.00000  0.09653
       7     O     4.17544  4.17544  0.00000 -0.35087
       8     H     0.48143  0.48143  0.00000  0.03715
       9     H     0.46866  0.46866  0.00000  0.06267
      10     C     3.03156  3.03156  0.00000 -0.06313
      11     H     0.47146  0.47146  0.00000  0.05708
      12     H     0.44595  0.44595  0.00000  0.10811
      13     H     0.47016  0.47016  0.00000  0.05969

   Total alpha = 21.00000, Total beta = 21.00000, Total charge = -0.00000
