                              Psi4 1.0.54 Driver

  ==> Input File <==

--------------------------------------------------------------------------
set {
	reference rhf
	basis cc-pvtz
}

set_num_threads( 4 )
memory 2 gb

molecule MOL {
0 1

O	 0.421241	 1.121741	 0.703181
C	 0.485107	 0.171416	 -0.000134
C	 1.606966	 -0.836201	 0.000174
O	 -0.437783	 -0.135683	 -0.894869
C	 2.988788	 -0.202529	 -0.000115
H	 1.465110	 -1.474645	 -0.864821
H	 1.465209	 -1.474077	 0.865596
H	 3.131767	 0.419673	 -0.873407
H	 3.750876	 -0.972315	 0.000098
H	 3.131883	 0.420264	 0.872742
C	 -1.561341	 0.725970	 -1.010879
C	 -2.461045	 0.168845	 -2.089134
H	 -1.218863	 1.721680	 -1.255047
H	 -2.068183	 0.775604	 -0.057479
H	 -1.942631	 0.122960	 -3.038615
H	 -3.331015	 0.804617	 -2.203926
H	 -2.796848	 -0.828464	 -1.834220

	symmetry c1
}
set optking {
	frozen_dihedral = ("
		4 2 3 6
	")
}

ee,wfn = optimize('scf', return_wfn=True)
oeprop( wfn, 'DIPOLE', 'QUADRUPOLE', 'MULLIKEN_CHARGES')
f=open( 'psi4out.xyz', 'w' )
f.write( "17  " )
f.write( str(ee) + "\n" )
f.write( MOL.save_string_xyz() )
f.close()
--------------------------------------------------------------------------

    Molecular point group: c1
  Charge       = 0
  Multiplicity = 1
  Basis Set: CC-PVTZ
  Basis Set:
  @DF-RHF Final Energy:  -345.03879207910921
    Total Energy =                       -345.0387920791089300
    Molecular point group: c1
  Basis Set: CC-PVTZ
  Basis Set:
  Basis Set: CC-PVTZ
  Basis Set:
  @DF-RHF Final Energy:  -345.03913096137359
    Total Energy =                       -345.0391309613736439
  Basis Set: CC-PVTZ
  Basis Set:
  Basis Set: CC-PVTZ
  Basis Set:
  @DF-RHF Final Energy:  -345.03913372713600
    Total Energy =                       -345.0391337271359475
  Basis Set: CC-PVTZ
  Basis Set:
  Basis Set: CC-PVTZ
  Basis Set:
  @DF-RHF Final Energy:  -345.03916085617288
    Total Energy =                       -345.0391608561727708
  Basis Set: CC-PVTZ
  Basis Set:
  Basis Set: CC-PVTZ
  Basis Set:
  @DF-RHF Final Energy:  -345.03925845583461
    Total Energy =                       -345.0392584558353519
  Basis Set: CC-PVTZ
  Basis Set:
  Basis Set: CC-PVTZ
  Basis Set:
  @DF-RHF Final Energy:  -345.03926539710739
    Total Energy =                       -345.0392653971077834
  Basis Set: CC-PVTZ
  Basis Set:
  Charge       = 0
  Multiplicity = 1
  Basis Set: CC-PVTZ
  Basis Set:

    Orbital Energies (a.u.)
    -----------------------

    Doubly Occupied:

       1A    -20.595787     2A    -20.530428     3A    -11.363425
       4A    -11.282721     5A    -11.234913     6A    -11.220628
       7A    -11.218207     8A     -1.471033     9A     -1.363977
      10A     -1.070699    11A     -1.033125    12A     -0.910946
      13A     -0.850450    14A     -0.777273    15A     -0.696950
      16A     -0.690072    17A     -0.669017    18A     -0.623828
      19A     -0.592075    20A     -0.576463    21A     -0.556706
      22A     -0.530301    23A     -0.525139    24A     -0.511655
      25A     -0.503930    26A     -0.492677    27A     -0.455761
      28A     -0.437135

  @DF-RHF Final Energy:  -345.03926586728136

   => Energetics <=

    Nuclear Repulsion Energy =            315.4188679097273393
    One-Electron Energy =               -1095.3456240491548215
    Two-Electron Energy =                 434.8874902721462377
    DFT Exchange-Correlation Energy =       0.0000000000000000
    Empirical Dispersion Energy =           0.0000000000000000
    PCM Polarization Energy =               0.0000000000000000
    EFP Energy =                            0.0000000000000000
    Total Energy =                       -345.0392658672811876
    Molecular point group: c1
  Basis Set: CC-PVTZ
  Basis Set:

  -Total Gradient:
     Atom            X                  Y                   Z
    ------   -----------------  -----------------  -----------------
       1        0.000002909830    -0.000005287289    -0.000015742047
       2       -0.000626945350    -0.000732590286     0.001075617633
       3        0.000798424387     0.000912157918    -0.001022352339
       4        0.000327746721     0.000397459783    -0.000613220553
       5        0.000006481712     0.000004711582     0.000012619596
       6       -0.000535900837    -0.000619147187     0.000636443866
       7       -0.000003531480     0.000016432927    -0.000016672632
       8       -0.000007275186    -0.000002975159    -0.000010545392
       9        0.000003504661     0.000000210919     0.000000170054
      10        0.000003163659    -0.000005023590     0.000009528251
      11        0.000071330551     0.000043980594    -0.000087288724
      12       -0.000018113256    -0.000006124025     0.000020543989
      13       -0.000034957573     0.000027545356     0.000006515217
      14        0.000017341282    -0.000025791538    -0.000006449879
      15        0.000007071245     0.000008234563     0.000016812053
      16       -0.000002812771    -0.000002499805    -0.000000287064
      17       -0.000008437594    -0.000011294766    -0.000005692030

  **** Optimization is complete! (in 7 steps) ****
    Final optimized geometry and variables:
    Molecular point group: c1

    Geometry (in Angstrom), charge = 0, multiplicity = 1:

    O            0.332109600942     1.017544582799     1.098886550891
    C            0.374736770321     0.038066679531     0.433498557524
    C            1.523494592367    -0.941303603233     0.442346597075
    O           -0.590168767514    -0.321343740788    -0.392505652994
    C            2.879491750361    -0.245763329331     0.380269871279
    H            1.397475409605    -1.649694926997    -0.363408233083
    H            1.438690673333    -1.496078976103     1.371512093956
    H            2.998907315406     0.294312000814    -0.551695753691
    H            3.676598947969    -0.975448728329     0.448484506903
    H            2.985516700668     0.458836296241     1.192792412839
    C           -1.743522614728     0.506266280148    -0.462170574330
    C           -2.694688866810    -0.110808816295    -1.460659926686
    H           -1.445550363186     1.501684357776    -0.759407892373
    H           -2.188117260202     0.574266425703     0.520621710188
    H           -2.237713023744    -0.174699461585    -2.440169921492
    H           -3.588088980994     0.497454395836    -1.538333441966
    H           -2.984640008963    -1.107539069986    -1.152705995665

  Mulliken Charges: (a.u.)
   Center  Symbol    Alpha    Beta     Spin     Total
       1     O     4.20287  4.20287  0.00000 -0.40574
       2     C     2.81291  2.81291  0.00000  0.37418
       3     C     3.08643  3.08643  0.00000 -0.17286
       4     O     4.14773  4.14773  0.00000 -0.29546
       5     C     3.14364  3.14364  0.00000 -0.28728
       6     H     0.43900  0.43900  0.00000  0.12201
       7     H     0.44670  0.44670  0.00000  0.10659
       8     H     0.45364  0.45364  0.00000  0.09272
       9     H     0.44979  0.44979  0.00000  0.10043
      10     H     0.44152  0.44152  0.00000  0.11696
      11     C     2.97751  2.97751  0.00000  0.04498
      12     C     3.13320  3.13320  0.00000 -0.26640
      13     H     0.45393  0.45393  0.00000  0.09213
      14     H     0.45415  0.45415  0.00000  0.09170
      15     H     0.45139  0.45139  0.00000  0.09721
      16     H     0.45422  0.45422  0.00000  0.09156
      17     H     0.45137  0.45137  0.00000  0.09727

   Total alpha = 28.00000, Total beta = 28.00000, Total charge = -0.00000

*** Psi4 exiting successfully. Buy a developer a beer!
