                              Psi4 1.0.54 Driver

  ==> Input File <==

--------------------------------------------------------------------------
set {
	reference rhf
	basis cc-pvtz
}

set_num_threads( 4 )
memory 2 gb

molecule MOL {
0 1

H	 0.094127	 -0.945449	 -1.614066
C	 -0.584234	 -1.309887	 -0.846020
O	 -1.401606	 -0.295183	 -0.366624
H	 -1.219227	 -2.070808	 -1.275755
H	 0.007127	 -1.757353	 -0.049182
C	 -0.718530	 0.758693	 0.228682
C	 0.718529	 0.758687	 -0.228709
H	 -1.176498	 1.708665	 -0.046615
H	 -0.748705	 0.673525	 1.312779
O	 1.401606	 -0.295166	 0.366636
H	 0.748705	 0.673477	 -1.312803
H	 1.176496	 1.708671	 0.046552
C	 2.714315	 -0.441627	 -0.061017
H	 2.765292	 -0.641548	 -1.128869
H	 3.305661	 0.447341	 0.150952
H	 3.143725	 -1.278506	 0.470147

	symmetry c1
}
set optking {
	frozen_dihedral = ("
		2 3 6 7
	")
}

ee,wfn = optimize('scf', return_wfn=True)
oeprop( wfn, 'DIPOLE', 'QUADRUPOLE', 'MULLIKEN_CHARGES')
f=open( 'psi4out.xyz', 'w' )
f.write( "16  " )
f.write( str(ee) + "\n" )
f.write( MOL.save_string_xyz() )
f.close()
--------------------------------------------------------------------------

    Molecular point group: c1
  Charge       = 0
  Multiplicity = 1
  Basis Set: CC-PVTZ
  Basis Set:
  @DF-RHF Final Energy:  -307.07127949977240
    Total Energy =                       -307.0712794997725723
    Molecular point group: c1
  Basis Set: CC-PVTZ
  Basis Set:
  Basis Set: CC-PVTZ
  Basis Set:
  @DF-RHF Final Energy:  -306.99448869717429
    Total Energy =                       -306.9944886971743472
  Basis Set: CC-PVTZ
  Basis Set:
  Basis Set: CC-PVTZ
  Basis Set:
  @DF-RHF Final Energy:  -306.86588004985799
    Total Energy =                       -306.8658800498578216
  Basis Set: CC-PVTZ
  Basis Set:
  Basis Set: CC-PVTZ
  Basis Set:
  @DF-RHF Final Energy:  -306.99687572685878
    Total Energy =                       -306.9968757268586614
  Basis Set: CC-PVTZ
  Basis Set:
  @DF-RHF Final Energy:  -307.08526620035872
    Total Energy =                       -307.0852662003587739
  @DF-RHF Final Energy:  -307.08827122442324
    Total Energy =                       -307.0882712244233517
  @DF-RHF Final Energy:  -307.08912057664776
    Total Energy =                       -307.0891205766473604
  Basis Set: CC-PVTZ
  Basis Set:
  @DF-RHF Final Energy:  -307.08955083570862
    Total Energy =                       -307.0895508357087351
  Basis Set: CC-PVTZ
  Basis Set:
  Basis Set: CC-PVTZ
  Basis Set:
  @DF-RHF Final Energy:  -307.08968023508498
    Total Energy =                       -307.0896802350847565
  Basis Set: CC-PVTZ
  Basis Set:
  Basis Set: CC-PVTZ
  Basis Set:
  @DF-RHF Final Energy:  -307.08969839094334
    Total Energy =                       -307.0896983909433402
  Basis Set: CC-PVTZ
  Basis Set:
  Charge       = 0
  Multiplicity = 1
  Basis Set: CC-PVTZ
  Basis Set:

    Orbital Energies (a.u.)
    -----------------------

    Doubly Occupied:

       1A    -20.557820     2A    -20.540079     3A    -11.274777
       4A    -11.269890     5A    -11.266898     6A    -11.253706
       7A     -1.395170     8A     -1.366516     9A     -1.030910
      10A     -0.951727    11A     -0.896896    12A     -0.812849
      13A     -0.695873    14A     -0.683407    15A     -0.657678
      16A     -0.636558    17A     -0.627460    18A     -0.593196
      19A     -0.555981    20A     -0.547276    21A     -0.517787
      22A     -0.493764    23A     -0.449471    24A     -0.426368
      25A     -0.406314

  @DF-RHF Final Energy:  -307.08969911003288

   => Energetics <=

    Nuclear Repulsion Energy =            264.8704042745940228
    One-Electron Energy =                -944.1034659525373627
    Two-Electron Energy =                 372.1433625679102306
    DFT Exchange-Correlation Energy =       0.0000000000000000
    Empirical Dispersion Energy =           0.0000000000000000
    PCM Polarization Energy =               0.0000000000000000
    EFP Energy =                            0.0000000000000000
    Total Energy =                       -307.0896991100331661
    Molecular point group: c1
  Basis Set: CC-PVTZ
  Basis Set:

  -Total Gradient:
     Atom            X                  Y                   Z
    ------   -----------------  -----------------  -----------------
       1       -0.000008768989    -0.000027396005    -0.000011799190
       2       -0.001701327777     0.002741709238    -0.000549574345
       3        0.003617072558    -0.005120968295     0.000750347400
       4        0.000010398280     0.000001698923     0.000018488671
       5       -0.000009904180    -0.000008252410     0.000007729821
       6       -0.003923959000     0.004478884638     0.000067890987
       7        0.001990062538    -0.002065646844    -0.000221510096
       8       -0.000014990748    -0.000017244553     0.000001306867
       9       -0.000006095574     0.000000322919    -0.000009195181
      10       -0.000058858027    -0.000042330601     0.000018584014
      11        0.000033011068    -0.000017011772    -0.000015945838
      12        0.000006027693     0.000009020245    -0.000010977497
      13        0.000091711553     0.000117716912    -0.000068551571
      14        0.000025613072    -0.000031997886     0.000045343649
      15       -0.000021673388    -0.000027823690    -0.000043014215
      16       -0.000028319080     0.000009319181     0.000020876526

  **** Optimization is complete! (in 11 steps) ****
    Final optimized geometry and variables:
    Molecular point group: c1

    Geometry (in Angstrom), charge = 0, multiplicity = 1:

    H           -1.329576904366    -0.104637164335    -1.515397790334
    C           -1.358837498065    -1.047283613203    -0.979486012239
    O           -1.592498390308    -0.877503307522     0.384168414488
    H           -2.189158114986    -1.625301062268    -1.359458454698
    H           -0.436952354115    -1.582136045160    -1.172962705323
    C           -0.714726494754    -0.134119219471     1.180444133786
    C            0.215065809175     0.848409089128     0.498451444456
    H           -1.329888863253     0.421608243189     1.878346076202
    H           -0.096471283380    -0.817559295700     1.756186894967
    O            1.239557462604     0.179701511083    -0.164839561573
    H           -0.329582639250     1.493592381973    -0.188284402934
    H            0.630588781675     1.487472255446     1.276770809606
    C            2.150290677793     1.014205927621    -0.802142500465
    H            1.669315257755     1.618332266310    -1.568072659745
    H            2.639882330625     1.680810835879    -0.095742494681
    H            2.898949195850     0.391361703415    -1.269069881045

  Mulliken Charges: (a.u.)
   Center  Symbol    Alpha    Beta     Spin     Total
       1     H     0.47446  0.47446  0.00000  0.05107
       2     C     3.03139  3.03139  0.00000 -0.06279
       3     O     4.18310  4.18310  0.00000 -0.36621
       4     H     0.44562  0.44562  0.00000  0.10877
       5     H     0.46264  0.46264  0.00000  0.07473
       6     C     2.95808  2.95808  0.00000  0.08384
       7     C     3.00254  3.00254  0.00000 -0.00509
       8     H     0.46179  0.46179  0.00000  0.07641
       9     H     0.46664  0.46664  0.00000  0.06672
      10     O     4.17561  4.17561  0.00000 -0.35122
      11     H     0.46295  0.46295  0.00000  0.07409
      12     H     0.45738  0.45738  0.00000  0.08523
      13     C     3.03482  3.03482  0.00000 -0.06964
      14     H     0.47001  0.47001  0.00000  0.05997
      15     H     0.46794  0.46794  0.00000  0.06411
      16     H     0.44500  0.44500  0.00000  0.10999

   Total alpha = 25.00000, Total beta = 25.00000, Total charge = -0.00000

*** Psi4 exiting successfully. Buy a developer a beer!
