                              Psi4 1.0.54 Driver

  ==> Input File <==

--------------------------------------------------------------------------
set {
	reference rhf
	basis cc-pvtz
}

set_num_threads( 4 )
memory 2 gb

molecule MOL {
0 1

H	 -2.765297	 -0.641560	 1.128893
C	 -2.714315	 -0.441672	 0.061031
O	 -1.401606	 -0.295224	 -0.366624
H	 -3.143718	 -1.278566	 -0.470109
H	 -3.305652	 0.447296	 -0.150962
C	 -0.718530	 0.758652	 0.228682
C	 0.718529	 0.758646	 -0.228709
H	 -1.176498	 1.708624	 -0.046615
H	 -0.748705	 0.673484	 1.312779
O	 1.401606	 -0.295207	 0.366636
H	 0.748705	 0.673436	 -1.312803
H	 1.176496	 1.708630	 0.046552
C	 2.714315	 -0.441668	 -0.061017
H	 2.765292	 -0.641589	 -1.128869
H	 3.305661	 0.447300	 0.150952
H	 3.143725	 -1.278547	 0.470147

	symmetry c1
}
ee,wfn = energy('scf', return_wfn=True)
oeprop( wfn, 'DIPOLE', 'QUADRUPOLE', 'MULLIKEN_CHARGES')
oeprop( wfn, 'GRID_ESP')
f=open( 'psi4out.xyz', 'w' )
f.write( "16  " )
f.write( str(ee) + "\n" )
f.write( MOL.save_string_xyz() )
f.close()
--------------------------------------------------------------------------

    Molecular point group: c1

    Geometry (in Angstrom), charge = 0, multiplicity = 1:

       Center              X                  Y                   Z               Mass
    ------------   -----------------  -----------------  -----------------  -----------------
           H         -2.765296967474    -0.641519369065     1.128892992616     1.007825032070
           C         -2.714314967474    -0.441631369065     0.061030992616    12.000000000000
           O         -1.401605967474    -0.295183369065    -0.366624007384    15.994914619560
           H         -3.143717967474    -1.278525369065    -0.470109007384     1.007825032070
           H         -3.305651967474     0.447336630935    -0.150962007384     1.007825032070
           C         -0.718529967474     0.758692630935     0.228681992616    12.000000000000
           C          0.718529032526     0.758686630935    -0.228709007384    12.000000000000
           H         -1.176497967474     1.708664630935    -0.046615007384     1.007825032070
           H         -0.748704967474     0.673524630935     1.312778992616     1.007825032070
           O          1.401606032526    -0.295166369065     0.366635992616    15.994914619560
           H          0.748705032526     0.673476630935    -1.312803007384     1.007825032070
           H          1.176496032526     1.708670630935     0.046551992616     1.007825032070
           C          2.714315032526    -0.441627369065    -0.061017007384    12.000000000000
           H          2.765292032526    -0.641548369065    -1.128869007384     1.007825032070
           H          3.305661032526     0.447340630935     0.150951992616     1.007825032070
           H          3.143725032526    -1.278506369065     0.470146992616     1.007825032070

  Charge       = 0
  Multiplicity = 1
  Basis Set: CC-PVTZ
  Basis Set:

    Orbital Energies (a.u.)
    -----------------------

    Doubly Occupied:

       1A    -20.547869     2A    -20.547867     3A    -11.267611
       4A    -11.266933     5A    -11.261611     6A    -11.261610
       7A     -1.391828     8A     -1.374627     9A     -1.032115
      10A     -0.937229    11A     -0.892230    12A     -0.824455
      13A     -0.686519    14A     -0.682878    15A     -0.659536
      16A     -0.638204    17A     -0.632343    18A     -0.598639
      19A     -0.550691    20A     -0.536161    21A     -0.509942
      22A     -0.479830    23A     -0.464838    24A     -0.423336
      25A     -0.413782

  @DF-RHF Final Energy:  -307.09795536543658

   => Energetics <=

    Nuclear Repulsion Energy =            258.9148742108871488
    One-Electron Energy =                -932.2597706889351912
    Two-Electron Energy =                 366.2469411126111822
    DFT Exchange-Correlation Energy =       0.0000000000000000
    Empirical Dispersion Energy =           0.0000000000000000
    PCM Polarization Energy =               0.0000000000000000
    EFP Energy =                            0.0000000000000000
    Total Energy =                       -307.0979553654368033

  Mulliken Charges: (a.u.)
   Center  Symbol    Alpha    Beta     Spin     Total
       1     H     0.47018  0.47018  0.00000  0.05964
       2     C     3.03197  3.03197  0.00000 -0.06394
       3     O     4.17049  4.17049  0.00000 -0.34098
       4     H     0.44635  0.44635  0.00000  0.10731
       5     H     0.47369  0.47369  0.00000  0.05262
       6     C     2.96053  2.96053  0.00000  0.07894
       7     C     2.96053  2.96053  0.00000  0.07894
       8     H     0.47608  0.47608  0.00000  0.04783
       9     H     0.47071  0.47071  0.00000  0.05858
      10     O     4.17049  4.17049  0.00000 -0.34098
      11     H     0.47071  0.47071  0.00000  0.05858
      12     H     0.47608  0.47608  0.00000  0.04783
      13     C     3.03197  3.03197  0.00000 -0.06394
      14     H     0.47018  0.47018  0.00000  0.05964
      15     H     0.47369  0.47369  0.00000  0.05262
      16     H     0.44635  0.44635  0.00000  0.10731

   Total alpha = 25.00000, Total beta = 25.00000, Total charge = -0.00000

*** Psi4 exiting successfully. Buy a developer a beer!
