  ==> Input File <==

--------------------------------------------------------------------------
set {
	reference rhf
	basis 6-31G*
}

set_num_threads( 4 )
memory 2 gb

molecule MOL {
0 1

H	 -3.696164	 0.157999	 -0.638796
C	 -3.085163	 0.627040	 -1.420013
C	 -2.108829	 1.665041	 -0.928142
O	 -3.220319	 0.307354	 -2.556360
C	 -1.220012	 1.144545	 0.209990
H	 -1.518542	 2.005954	 -1.770786
H	 -2.694656	 2.509613	 -0.567368
C	 -0.252658	 0.041456	 -0.226725
H	 -0.655958	 1.979415	 0.615105
H	 -1.848336	 0.781576	 1.021913
C	 1.180775	 0.282413	 0.250794
H	 -0.266029	 -0.034465	 -1.312038
H	 -0.597733	 -0.921000	 0.146291
C	 2.148627	 -0.814315	 -0.201312
H	 1.516199	 1.249228	 -0.115937
H	 1.192670	 0.346017	 1.338083
C	 3.580890	 -0.659131	 0.322722
H	 2.166869	 -0.852443	 -1.289387
H	 1.762857	 -1.776509	 0.128956
C	 4.324889	 0.564933	 -0.213704
H	 4.142010	 -1.551473	 0.056605
H	 3.564836	 -0.624694	 1.410140
H	 4.342616	 0.565491	 -1.300421
H	 3.866655	 1.493402	 0.110242
H	 5.353900	 0.572371	 0.132816

	symmetry c1
}
set optking {
	frozen_dihedral = ("
		3 5 8 12
	")
}

ee = optimize('scf')
oeprop('DIPOLE', 'QUADRUPOLE', 'MULLIKEN_CHARGES')
f=open( 'psi4out.xyz', 'w' )
f.write( "25  " )
f.write( str(ee) + "\n" )
f.write( MOL.save_string_xyz() )
f.close()
--------------------------------------------------------------------------

    Molecular point group: c1
  Charge       = 0
  Multiplicity = 1
  Basis Set: 6-31G*
  Basis Set:
  @DF-RHF Final Energy:  -387.11716258610574
    Total Energy =                       -387.1171625861053371
    Molecular point group: c1
  Basis Set: 6-31G*
  Basis Set:
  Basis Set: 6-31G*
  Basis Set:
  @DF-RHF Final Energy:  -387.11727546513123
    Total Energy =                       -387.1172754651310015
  Basis Set: 6-31G*
  Basis Set:
  Basis Set: 6-31G*
  Basis Set:
  @DF-RHF Final Energy:  -387.11730399824609
    Total Energy =                       -387.1173039982465980
  Basis Set: 6-31G*
  Basis Set:
  Basis Set: 6-31G*
  Basis Set:
  @DF-RHF Final Energy:  -387.11742111074989
    Total Energy =                       -387.1174211107495466
  Basis Set: 6-31G*
  Basis Set:
  @DF-RHF Final Energy:  -387.11750021066717
    Total Energy =                       -387.1175002106672309
  @DF-RHF Final Energy:  -387.11751745525203
    Total Energy =                       -387.1175174552516864
  @DF-RHF Final Energy:  -387.11749610898687
    Total Energy =                       -387.1174961089867566
  @DF-RHF Final Energy:  -387.11752652494522
    Total Energy =                       -387.1175265249449922
  Basis Set: 6-31G*
  Basis Set:
  @DF-RHF Final Energy:  -387.11753087199224
    Total Energy =                       -387.1175308719924715
  Basis Set: 6-31G*
  Basis Set:
  Basis Set: 6-31G*
  Basis Set:
  @DF-RHF Final Energy:  -387.11752845507010
    Total Energy =                       -387.1175284550698734
  Basis Set: 6-31G*
  Basis Set:
  Basis Set: 6-31G*
  Basis Set:
  @DF-RHF Final Energy:  -387.11753141609790
    Total Energy =                       -387.1175314160985863
  Basis Set: 6-31G*
  Basis Set:
  Charge       = 0
  Multiplicity = 1
  Basis Set: 6-31G*
  Basis Set:

    Orbital Energies (a.u.)
    -----------------------

    Doubly Occupied:

       1A    -20.562368     2A    -11.325919     3A    -11.235236
       4A    -11.234660     5A    -11.222234     6A    -11.219390
       7A    -11.217361     8A    -11.215965     9A    -11.209866
      10A     -1.401944    11A     -1.101609    12A     -1.068637
      13A     -1.012381    14A     -0.941025    15A     -0.875271
      16A     -0.821618    17A     -0.785658    18A     -0.781597
      19A     -0.666196    20A     -0.655815    21A     -0.636819
      22A     -0.621829    23A     -0.604088    24A     -0.589073
      25A     -0.577825    26A     -0.546196    27A     -0.536491
      28A     -0.523151    29A     -0.510143    30A     -0.497024
      31A     -0.488934    32A     -0.475042    33A     -0.462644
      34A     -0.458139    35A     -0.440531    36A     -0.409178

  @DF-RHF Final Energy:  -387.11753174556583

   => Energetics <=

    Nuclear Repulsion Energy =            440.4375395703144136
    One-Electron Energy =               -1397.2464306501726696
    Two-Electron Energy =                 569.6913593342922013
    DFT Exchange-Correlation Energy =       0.0000000000000000
    Empirical Dispersion Energy =           0.0000000000000000
    PCM Polarization Energy =               0.0000000000000000
    EFP Energy =                            0.0000000000000000
    Total Energy =                       -387.1175317455661116
    Molecular point group: c1
  Basis Set: 6-31G*
  Basis Set:

  -Total Gradient:
     Atom            X                  Y                   Z
    ------   -----------------  -----------------  -----------------
       1        0.000006272335     0.000006117357     0.000003517977
       2        0.000002783461    -0.000008145730    -0.000001500516
       3        0.001307607729     0.001376403614    -0.000410206224
       4        0.000002746063     0.000001102088    -0.000006851854
       5       -0.002308325938    -0.002370605948     0.000618977940
       6        0.000003349058    -0.000009530392     0.000011797868
       7        0.000001260679     0.000008061917     0.000002298776
       8        0.002964477645     0.002857903234    -0.000358595592
       9       -0.000002469722     0.000013900481     0.000009385902
      10       -0.000007174213    -0.000001146836    -0.000015252020
      11       -0.000017689241     0.000002705376    -0.000004456609
      12       -0.001967517582    -0.001852117346     0.000149736498
      13        0.000014837768    -0.000006006240    -0.000001825540
      14        0.000003740919    -0.000011212495     0.000010112783
      15       -0.000006305732     0.000000163360    -0.000002339464
      16       -0.000005837196    -0.000002015965    -0.000004595922
      17        0.000005135362    -0.000002475431    -0.000005000315
      18       -0.000007039419     0.000005036389     0.000004933971
      19        0.000010722750    -0.000005491392    -0.000000625691
      20       -0.000001289421    -0.000002110946     0.000001254965
      21        0.000004709706    -0.000002417362     0.000002574920
      22       -0.000003006944     0.000003656157    -0.000002868656
      23       -0.000002383398     0.000000596248    -0.000001676547
      24        0.000000593921     0.000000234555     0.000002226213
      25        0.000000801408    -0.000002604692    -0.000001022859

  **** Optimization is complete! (in 12 steps) ****
    Final optimized geometry and variables:
    Molecular point group: c1

    Geometry (in Angstrom), charge = 0, multiplicity = 1:

    H           -3.909109484844    -0.177759890013    -0.130082565560
    C           -3.243149733059     0.265484836952    -0.880676565409
    C           -2.316013921761     1.333265343438    -0.360055252399
    O           -3.282393724618    -0.107609514612    -2.008501854649
    C           -1.400988522140     0.808625124476     0.757661471822
    H           -1.735656468076     1.717868330922    -1.190477631883
    H           -2.931513938781     2.142681552760     0.029432923164
    C           -0.411547040020    -0.281789255432     0.291809298281
    H           -0.850452206734     1.657805127886     1.151092173877
    H           -2.006742805771     0.441771456081     1.582287223132
    C            1.020850129280    -0.050702088846     0.776768433494
    H           -0.425733019665    -0.355422494781    -0.792690393342
    H           -0.751082130982    -1.252869336319     0.645012085768
    C            1.981578845670    -1.159663565685     0.341590166490
    H            1.365628199071     0.910684855583     0.404393605678
    H            1.023959976913     0.022603097671     1.863553089615
    C            3.412796178252    -1.010394096608     0.870373438855
    H            2.004347228335    -1.209342814620    -0.745812823825
    H            1.586522039193    -2.115267703040     0.680068787890
    C            4.169540287690     0.201587641976     0.323786739732
    H            3.967703808215    -1.910379686060     0.617450601102
    H            3.391533447650    -0.963378579584     1.957342953127
    H            4.195431928061     0.187856746859    -0.762513223691
    H            3.715829492666     1.137673896105     0.632172631886
    H            5.195875241393     0.206263971380     0.677700134837

  Mulliken Charges: (a.u.)
   Center  Symbol    Alpha    Beta     Spin     Total
       1     H     0.43223  0.43223  0.00000  0.13553
       2     C     2.83042  2.83042  0.00000  0.33916
       3     C     3.20863  3.20863  0.00000 -0.41726
       4     O     4.23787  4.23787  0.00000 -0.47574
       5     C     3.16816  3.16816  0.00000 -0.33633
       6     H     0.40008  0.40008  0.00000  0.19985
       7     H     0.40910  0.40910  0.00000  0.18181
       8     C     3.16086  3.16086  0.00000 -0.32171
       9     H     0.41089  0.41089  0.00000  0.17823
      10     H     0.41667  0.41667  0.00000  0.16666
      11     C     3.15545  3.15545  0.00000 -0.31091
      12     H     0.41097  0.41097  0.00000  0.17806
      13     H     0.41884  0.41884  0.00000  0.16233
      14     C     3.15382  3.15382  0.00000 -0.30764
      15     H     0.42056  0.42056  0.00000  0.15888
      16     H     0.42337  0.42337  0.00000  0.15325
      17     C     3.15268  3.15268  0.00000 -0.30535
      18     H     0.42188  0.42188  0.00000  0.15624
      19     H     0.42151  0.42151  0.00000  0.15698
      20     C     3.24132  3.24132  0.00000 -0.48263
      21     H     0.42010  0.42010  0.00000  0.15979
      22     H     0.42354  0.42354  0.00000  0.15293
      23     H     0.42143  0.42143  0.00000  0.15714
      24     H     0.42079  0.42079  0.00000  0.15842
      25     H     0.41884  0.41884  0.00000  0.16232

   Total alpha = 36.00000, Total beta = 36.00000, Total charge =  0.00000
