  ==> Input File <==

--------------------------------------------------------------------------
set {
	reference rhf
	basis 6-31G*
}

set_num_threads( 4 )
memory 2 gb

molecule MOL {
0 1

H	 -3.346325	 -0.645989	 -0.899800
O	 -3.517110	 -0.026191	 -0.205115
C	 -2.306886	 0.532354	 0.237577
C	 -1.177863	 -0.397191	 -0.171080
H	 -2.156308	 1.517575	 -0.201710
H	 -2.315015	 0.655684	 1.319734
C	 0.198102	 0.111031	 0.262842
H	 -1.208843	 -0.518759	 -1.250427
H	 -1.368741	 -1.376554	 0.258909
C	 1.331804	 -0.827780	 -0.158768
H	 0.361943	 1.100838	 -0.156218
H	 0.217265	 0.229072	 1.345532
C	 2.723619	 -0.410569	 0.329459
H	 1.342964	 -0.912588	 -1.244120
H	 1.116806	 -1.824343	 0.220779
C	 3.243875	 0.895854	 -0.272975
H	 3.424222	 -1.207124	 0.091250
H	 2.714788	 -0.329854	 1.414619
H	 3.251977	 0.848779	 -1.358681
H	 2.637085	 1.747371	 0.016682
H	 4.259473	 1.094070	 0.055697

	symmetry c1
}
set optking {
	frozen_dihedral = ("
		1 2 3 5
	")
}

ee = optimize('scf')
oeprop('DIPOLE', 'QUADRUPOLE', 'MULLIKEN_CHARGES')
f=open( 'psi4out.xyz', 'w' )
f.write( "21  " )
f.write( str(ee) + "\n" )
f.write( MOL.save_string_xyz() )
f.close()
--------------------------------------------------------------------------

    Molecular point group: c1
  Charge       = 0
  Multiplicity = 1
  Basis Set: 6-31G*
  Basis Set:
  @DF-RHF Final Energy:  -310.20906473329052
    Total Energy =                       -310.2090647332905746
    Molecular point group: c1
  Basis Set: 6-31G*
  Basis Set:
  Basis Set: 6-31G*
  Basis Set:
  @DF-RHF Final Energy:  -310.21061323634558
    Total Energy =                       -310.2106132363452389
  Basis Set: 6-31G*
  Basis Set:
  Basis Set: 6-31G*
  Basis Set:
  @DF-RHF Final Energy:  -310.21097694882974
    Total Energy =                       -310.2109769488300230
  Basis Set: 6-31G*
  Basis Set:
  Basis Set: 6-31G*
  Basis Set:
  @DF-RHF Final Energy:  -310.21098228079455
    Total Energy =                       -310.2109822807949513
  Basis Set: 6-31G*
  Basis Set:
  Basis Set: 6-31G*
  Basis Set:
  @DF-RHF Final Energy:  -310.21097557943807
    Total Energy =                       -310.2109755794380703
  Basis Set: 6-31G*
  Basis Set:
  Basis Set: 6-31G*
  Basis Set:
  @DF-RHF Final Energy:  -310.21098383102691
    Total Energy =                       -310.2109838310270788
  Basis Set: 6-31G*
  Basis Set:
  Charge       = 0
  Multiplicity = 1
  Basis Set: 6-31G*
  Basis Set:

    Orbital Energies (a.u.)
    -----------------------

    Doubly Occupied:

       1A    -20.549385     2A    -11.265971     3A    -11.223650
       4A    -11.222625     5A    -11.219806     6A    -11.219124
       7A    -11.211537     8A     -1.356706     9A     -1.092349
      10A     -1.037553    11A     -0.956875    12A     -0.881388
      13A     -0.825826    14A     -0.783834    15A     -0.676429
      16A     -0.651817    17A     -0.626264    18A     -0.621761
      19A     -0.590949    20A     -0.574690    21A     -0.550302
      22A     -0.528327    23A     -0.507303    24A     -0.500803
      25A     -0.485157    26A     -0.466706    27A     -0.461400
      28A     -0.446178    29A     -0.428160

  @DF-RHF Final Energy:  -310.21098378460357

   => Energetics <=

    Nuclear Repulsion Energy =            312.4165673525025682
    One-Electron Energy =               -1039.3293533510598081
    Two-Electron Energy =                 416.7018022139536697
    DFT Exchange-Correlation Energy =       0.0000000000000000
    Empirical Dispersion Energy =           0.0000000000000000
    PCM Polarization Energy =               0.0000000000000000
    EFP Energy =                            0.0000000000000000
    Total Energy =                       -310.2109837846035134
    Molecular point group: c1
  Basis Set: 6-31G*
  Basis Set:

  -Total Gradient:
     Atom            X                  Y                   Z
    ------   -----------------  -----------------  -----------------
       1        0.000211147010    -0.001588182862     0.001360055686
       2       -0.000464669415     0.002128017789    -0.001288208168
       3        0.000954606980    -0.001301769901    -0.001566748260
       4        0.000018159822    -0.000006142044     0.000010353643
       5       -0.000710969112     0.000760803863     0.001496704217
       6        0.000006082744     0.000000998803     0.000000668334
       7        0.000007390329     0.000004426470    -0.000013372302
       8        0.000000020751     0.000006825359     0.000000783433
       9        0.000000824458    -0.000006025113    -0.000002923246
      10       -0.000004936672    -0.000010632739     0.000006093413
      11        0.000000985979     0.000005283502    -0.000006682055
      12        0.000004335837     0.000000873807    -0.000004243560
      13       -0.000006203437     0.000000423938     0.000008180007
      14        0.000002654908     0.000001281053    -0.000000613643
      15       -0.000013155671    -0.000000871801    -0.000000362367
      16       -0.000004814775     0.000003414534     0.000001480592
      17       -0.000007445455     0.000001908856    -0.000006113347
      18        0.000008442277    -0.000004727393     0.000003690758
      19        0.000002738583    -0.000001693983     0.000002365448
      20       -0.000004195994     0.000003067042    -0.000003632307
      21       -0.000000999142     0.000002720818     0.000002523725

  **** Optimization is complete! (in 7 steps) ****
    Final optimized geometry and variables:
    Molecular point group: c1

    Geometry (in Angstrom), charge = 0, multiplicity = 1:

    H           -3.490970164332    -0.574426619732    -0.867103846525
    O           -3.576482940768     0.032070395772    -0.145948932129
    C           -2.311030143942     0.523030337061     0.219897593971
    C           -1.172594453287    -0.407084824833    -0.177453361534
    H           -2.163228624977     1.511316780901    -0.210526380157
    H           -2.325588721983     0.648008979157     1.296974994733
    C            0.200330316398     0.109297968596     0.256806284629
    H           -1.182861452182    -0.537960781265    -1.259869359239
    H           -1.355697850133    -1.386482260024     0.259236319042
    C            1.341168828041    -0.824844324762    -0.155504202367
    H            0.357267356242     1.097845949756    -0.166501530742
    H            0.211414758919     0.232203178262     1.338431000578
    C            2.727189341549    -0.397129568349     0.340102222259
    H            1.360082278748    -0.912616626525    -1.240662217800
    H            1.130096013269    -1.821504527065     0.226191844355
    C            3.241107269486     0.912493115500    -0.260728704547
    H            3.434290335804    -1.189092363294     0.106319525273
    H            2.711505757078    -0.315845890886     1.425012848327
    H            3.256067551327     0.864487049022    -1.346322084206
    H            2.626859120011     1.760013769887     0.024774250353
    H            4.253213069454     1.118071969595     0.073710480973

  Mulliken Charges: (a.u.)
   Center  Symbol    Alpha    Beta     Spin     Total
       1     H     0.28106  0.28106  0.00000  0.43789
       2     O     4.37740  4.37740  0.00000 -0.75481
       3     C     2.97181  2.97181  0.00000  0.05639
       4     C     3.18430  3.18430  0.00000 -0.36860
       5     H     0.42952  0.42952  0.00000  0.14095
       6     H     0.42149  0.42149  0.00000  0.15702
       7     C     3.15993  3.15993  0.00000 -0.31985
       8     H     0.42510  0.42510  0.00000  0.14981
       9     H     0.41604  0.41604  0.00000  0.16792
      10     C     3.15238  3.15238  0.00000 -0.30475
      11     H     0.41866  0.41866  0.00000  0.16267
      12     H     0.42054  0.42054  0.00000  0.15891
      13     C     3.15286  3.15286  0.00000 -0.30573
      14     H     0.42357  0.42357  0.00000  0.15287
      15     H     0.42103  0.42103  0.00000  0.15794
      16     C     3.24162  3.24162  0.00000 -0.48325
      17     H     0.42000  0.42000  0.00000  0.15999
      18     H     0.42248  0.42248  0.00000  0.15505
      19     H     0.42201  0.42201  0.00000  0.15598
      20     H     0.41993  0.41993  0.00000  0.16013
      21     H     0.41826  0.41826  0.00000  0.16347

   Total alpha = 29.00000, Total beta = 29.00000, Total charge = -0.00000
