                              Psi4 1.0.54 Driver

  ==> Input File <==

--------------------------------------------------------------------------
set {
	reference rhf
	basis cc-pvtz
}

set_num_threads( 4 )
memory 2 gb

molecule MOL {
0 1

H	 -2.303612	 1.748222	 0.530174
O	 -1.466343	 1.309836	 0.552887
C	 -1.605397	 0.107680	 0.001145
C	 -0.310616	 -0.658853	 0.000791
O	 -2.641224	 -0.274037	 -0.422324
C	 0.926581	 0.227233	 0.000178
H	 -0.327628	 -1.313681	 -0.864448
H	 -0.327041	 -1.313334	 0.866298
C	 2.220156	 -0.582071	 -0.000088
H	 0.899945	 0.878221	 -0.866390
H	 0.900542	 0.878581	 0.866486
C	 3.466689	 0.296012	 -0.000457
H	 2.239073	 -1.234095	 -0.869382
H	 2.239505	 -1.233985	 0.869270
H	 3.493549	 0.935857	 -0.875887
H	 4.368821	 -0.304526	 -0.001199
H	 3.494559	 0.935166	 0.875458

	symmetry c1
}
set optking {
	frozen_dihedral = ("
		2 3 4 7
	")
}

ee,wfn = optimize('scf', return_wfn=True)
oeprop( wfn, 'DIPOLE', 'QUADRUPOLE', 'MULLIKEN_CHARGES')
f=open( 'psi4out.xyz', 'w' )
f.write( "17  " )
f.write( str(ee) + "\n" )
f.write( MOL.save_string_xyz() )
f.close()
--------------------------------------------------------------------------

    Molecular point group: c1
  Charge       = 0
  Multiplicity = 1
  Basis Set: CC-PVTZ
  Basis Set:
  @DF-RHF Final Energy:  -345.04571089474712
    Total Energy =                       -345.0457108947470601
    Molecular point group: c1
  Basis Set: CC-PVTZ
  Basis Set:
  Basis Set: CC-PVTZ
  Basis Set:
  @DF-RHF Final Energy:  -345.04635980629615
    Total Energy =                       -345.0463598062959818
  Basis Set: CC-PVTZ
  Basis Set:
  Basis Set: CC-PVTZ
  Basis Set:
  @DF-RHF Final Energy:  -345.04612562483948
    Total Energy =                       -345.0461256248394193
  Basis Set: CC-PVTZ
  Basis Set:
  Basis Set: CC-PVTZ
  Basis Set:
  @DF-RHF Final Energy:  -345.04657212931409
    Total Energy =                       -345.0465721293144270
  Basis Set: CC-PVTZ
  Basis Set:
  Basis Set: CC-PVTZ
  Basis Set:
  @DF-RHF Final Energy:  -345.04658226197097
    Total Energy =                       -345.0465822619706842
  Basis Set: CC-PVTZ
  Basis Set:
  Charge       = 0
  Multiplicity = 1
  Basis Set: CC-PVTZ
  Basis Set:

    Orbital Energies (a.u.)
    -----------------------

    Doubly Occupied:

       1A    -20.606319     2A    -20.537158     3A    -11.373778
       4A    -11.239364     5A    -11.226249     6A    -11.223447
       7A    -11.213466     8A     -1.478641     9A     -1.367845
      10A     -1.095369    11A     -1.020255    12A     -0.910351
      13A     -0.827318    14A     -0.809170    15A     -0.703450
      16A     -0.681680    17A     -0.667669    18A     -0.633853
      19A     -0.592928    20A     -0.582998    21A     -0.578025
      22A     -0.536131    23A     -0.516968    24A     -0.500349
      25A     -0.485568    26A     -0.480594    27A     -0.471162
      28A     -0.436690

  @DF-RHF Final Energy:  -345.04658378525590

   => Energetics <=

    Nuclear Repulsion Energy =            305.3906519665229666
    One-Electron Energy =               -1075.2808814618576889
    Two-Electron Energy =                 424.8436457100784764
    DFT Exchange-Correlation Energy =       0.0000000000000000
    Empirical Dispersion Energy =           0.0000000000000000
    PCM Polarization Energy =               0.0000000000000000
    EFP Energy =                            0.0000000000000000
    Total Energy =                       -345.0465837852563027
    Molecular point group: c1
  Basis Set: CC-PVTZ
  Basis Set:

  -Total Gradient:
     Atom            X                  Y                   Z
    ------   -----------------  -----------------  -----------------
       1        0.000024359220    -0.000045951045    -0.000008493949
       2        0.000176525423     0.000291448451    -0.000713237816
       3       -0.000178551871    -0.000227214598     0.000859679018
       4       -0.000456557162    -0.000730777799     0.000379979572
       5        0.000043659722    -0.000000513454     0.000010990257
       6        0.000024601232     0.000017891821     0.000024846723
       7        0.000352734427     0.000682681178    -0.000528858317
       8        0.000004523871     0.000013035565    -0.000002930947
       9        0.000003666995     0.000005311059    -0.000020387353
      10        0.000004747025    -0.000012338022     0.000002481595
      11       -0.000000656510    -0.000000174450    -0.000005644778
      12        0.000009580981     0.000001679452     0.000004371345
      13        0.000002255885    -0.000002343464    -0.000000823929
      14       -0.000008603263     0.000007696759    -0.000001909842
      15       -0.000000458154    -0.000002418939    -0.000000887473
      16       -0.000001345233     0.000001908192     0.000001889961
      17       -0.000000482588     0.000000079295    -0.000001064065

  **** Optimization is complete! (in 6 steps) ****
    Final optimized geometry and variables:
    Molecular point group: c1

    Geometry (in Angstrom), charge = 0, multiplicity = 1:

    H           -2.550921500387     1.528739273112     0.391816410992
    O           -1.668386951766     1.193192664532     0.442718621755
    C           -1.666618687674    -0.041815963066    -0.045556897408
    C           -0.320160864554    -0.718304020158     0.007940748610
    O           -2.650087113073    -0.552080834375    -0.460711673383
    C            0.898348453807     0.200759294068     0.002634010763
    H           -0.294220596144    -1.402874912662    -0.829003959121
    H           -0.327625844891    -1.327026298796     0.907735692124
    C            2.207114275774    -0.584083062283     0.012212269269
    H            0.866541554679     0.838736138727    -0.875374329687
    H            0.862455267187     0.860460447017     0.860975387301
    C            3.437468646599     0.316451163583     0.004494163937
    H            2.238783696357    -1.245180827875    -0.849313473113
    H            2.235225170744    -1.225181115084     0.889192199357
    H            3.455788366135     0.945885339515    -0.878780326294
    H            4.349990042309    -0.267931670775     0.013059241134
    H            3.451981867722     0.966322705106     0.872861630342

  Mulliken Charges: (a.u.)
   Center  Symbol    Alpha    Beta     Spin     Total
       1     H     0.38285  0.38285  0.00000  0.23431
       2     O     4.15438  4.15438  0.00000 -0.30877
       3     C     2.81350  2.81350  0.00000  0.37301
       4     C     3.09478  3.09478  0.00000 -0.18955
       5     O     4.19562  4.19562  0.00000 -0.39124
       6     C     3.09051  3.09051  0.00000 -0.18102
       7     H     0.43469  0.43469  0.00000  0.13062
       8     H     0.44160  0.44160  0.00000  0.11680
       9     C     3.08790  3.08790  0.00000 -0.17580
      10     H     0.44898  0.44898  0.00000  0.10204
      11     H     0.44405  0.44405  0.00000  0.11189
      12     C     3.14927  3.14927  0.00000 -0.29854
      13     H     0.45284  0.45284  0.00000  0.09432
      14     H     0.45379  0.45379  0.00000  0.09241
      15     H     0.45403  0.45403  0.00000  0.09195
      16     H     0.44715  0.44715  0.00000  0.10570
      17     H     0.45407  0.45407  0.00000  0.09186

   Total alpha = 28.00000, Total beta = 28.00000, Total charge =  0.00000

*** Psi4 exiting successfully. Buy a developer a beer!
