  ==> Input File <==

--------------------------------------------------------------------------
set {
	reference rhf
	basis 6-31G*
}

set_num_threads( 1 )
memory 2 gb

molecule MOL {
0 1

H	 3.619048	 0.562362	 0.800323
O	 2.710413	 0.405765	 1.038263
C	 2.077727	 -0.067559	 -0.035091
C	 0.624473	 -0.343591	 0.253101
O	 2.632341	 -0.235250	 -1.072057
C	 -0.265902	 0.883932	 0.072916
H	 0.324016	 -1.163849	 -0.390541
H	 0.565024	 -0.726111	 1.268924
C	 -1.728698	 0.646073	 0.462102
H	 -0.209144	 1.219470	 -0.958188
H	 0.135059	 1.692851	 0.673903
C	 -2.482460	 -0.343073	 -0.431425
H	 -2.245265	 1.602650	 0.432430
H	 -1.779332	 0.308348	 1.496285
C	 -3.960546	 -0.461025	 -0.060175
H	 -2.395034	 -0.026811	 -1.468912
H	 -2.024850	 -1.327147	 -0.371646
H	 -4.472726	 -1.168004	 -0.705284
H	 -4.465146	 0.496508	 -0.151489
H	 -4.081218	 -0.800940	 0.964585

	symmetry c1
}
set optking {
	frozen_dihedral = ("
		16 12 9 6,
		7 4 6 10,
		12 9 6 10,
		1 2 3 5
	")
}

ee = energy('scf')
oeprop('DIPOLE', 'QUADRUPOLE', 'MULLIKEN_CHARGES')
f=open( 'psi4out.xyz', 'w' )
f.write( "20  " )
f.write( str(ee) + "\n" )
f.write( MOL.save_string_xyz() )
f.close()
--------------------------------------------------------------------------

    Molecular point group: c1

    Geometry (in Angstrom), charge = 0, multiplicity = 1:

       Center              X                  Y                   Z               Mass
    ------------   -----------------  -----------------  -----------------  -----------------
           H          3.623620586134     0.500518523788     0.764147054226     1.007825032070
           O          2.714985586134     0.343921523788     1.002087054226    15.994914619560
           C          2.082299586134    -0.129402476212    -0.071266945774    12.000000000000
           C          0.629045586134    -0.405434476212     0.216925054226    12.000000000000
           O          2.636913586134    -0.297093476212    -1.108232945774    15.994914619560
           C         -0.261329413866     0.822088523788     0.036740054226    12.000000000000
           H          0.328588586134    -1.225692476212    -0.426716945774     1.007825032070
           H          0.569596586134    -0.787954476212     1.232748054226     1.007825032070
           C         -1.724125413866     0.584229523788     0.425926054226    12.000000000000
           H         -0.204571413866     1.157626523788    -0.994363945774     1.007825032070
           H          0.139631586134     1.631007523788     0.637727054226     1.007825032070
           C         -2.477887413866    -0.404916476212    -0.467600945774    12.000000000000
           H         -2.240692413866     1.540806523788     0.396254054226     1.007825032070
           H         -1.774759413866     0.246504523788     1.460109054226     1.007825032070
           C         -3.955973413866    -0.522868476212    -0.096350945774    12.000000000000
           H         -2.390461413866    -0.088654476212    -1.505087945774     1.007825032070
           H         -2.020277413866    -1.388990476212    -0.407821945774     1.007825032070
           H         -4.468153413866    -1.229847476212    -0.741459945774     1.007825032070
           H         -4.460573413866     0.434664523788    -0.187664945774     1.007825032070
           H         -4.076645413866    -0.862783476212     0.928409054226     1.007825032070

  Charge       = 0
  Multiplicity = 1
  Basis Set: 6-31G*
  Basis Set:

    Orbital Energies (a.u.)
    -----------------------

    Doubly Occupied:

       1A    -20.612496     2A    -20.549495     3A    -11.379620
       4A    -11.237880     5A    -11.233339     6A    -11.224959
       7A    -11.222042     8A    -11.213793     9A     -1.473595
      10A     -1.364013    11A     -1.100205    12A     -1.042537
      13A     -0.961498    14A     -0.866843    15A     -0.821730
      16A     -0.788534    17A     -0.701084    18A     -0.686147
      19A     -0.645976    20A     -0.629998    21A     -0.620741
      22A     -0.593953    23A     -0.578578    24A     -0.555657
      25A     -0.539165    26A     -0.520812    27A     -0.498538
      28A     -0.484069    29A     -0.475389    30A     -0.470505
      31A     -0.458957    32A     -0.435512

  @DF-RHF Final Energy:  -383.94655268007733

   => Energetics <=

    Nuclear Repulsion Energy =            375.9943795095791188
    One-Electron Energy =               -1267.9065449717445517
    Two-Electron Energy =                 507.9656127820886695
    DFT Exchange-Correlation Energy =       0.0000000000000000
    Empirical Dispersion Energy =           0.0000000000000000
    PCM Polarization Energy =               0.0000000000000000
    EFP Energy =                            0.0000000000000000
    Total Energy =                       -383.9465526800767066

  Mulliken Charges: (a.u.)
   Center  Symbol    Alpha    Beta     Spin     Total
       1     H     0.26822  0.26822  0.00000  0.46355
       2     O     4.34699  4.34699  0.00000 -0.69397
       3     C     2.63416  2.63416  0.00000  0.73169
       4     C     3.20005  3.20005  0.00000 -0.40009
       5     O     4.27785  4.27785  0.00000 -0.55569
       6     C     3.16562  3.16562  0.00000 -0.33125
       7     H     0.39746  0.39746  0.00000  0.20508
       8     H     0.40323  0.40323  0.00000  0.19354
       9     C     3.15440  3.15440  0.00000 -0.30881
      10     H     0.40960  0.40960  0.00000  0.18080
      11     H     0.40854  0.40854  0.00000  0.18292
      12     C     3.15488  3.15488  0.00000 -0.30977
      13     H     0.41773  0.41773  0.00000  0.16454
      14     H     0.42102  0.42102  0.00000  0.15797
      15     C     3.23969  3.23969  0.00000 -0.47938
      16     H     0.42020  0.42020  0.00000  0.15959
      17     H     0.42101  0.42101  0.00000  0.15798
      18     H     0.41743  0.41743  0.00000  0.16514
      19     H     0.42080  0.42080  0.00000  0.15840
      20     H     0.42113  0.42113  0.00000  0.15775

   Total alpha = 32.00000, Total beta = 32.00000, Total charge =  0.00000
