  ==> Input File <==

--------------------------------------------------------------------------
set {
	reference rhf
	basis 6-31G*
}

set_num_threads( 4 )
memory 2 gb

molecule MOL {
0 1

H	 2.381711	 2.321925	 0.847445
N	 1.564715	 1.748999	 0.759027
C	 1.865559	 0.531981	 0.018834
H	 0.879369	 2.295382	 0.272614
C	 0.645745	 -0.382037	 -0.029944
H	 2.674106	 0.023560	 0.535184
H	 2.215613	 0.723898	 -0.998530
C	 -0.679275	 0.379305	 0.025956
H	 0.698998	 -0.976915	 -0.937203
H	 0.693479	 -1.083846	 0.802235
C	 -1.903357	 -0.536963	 -0.023547
H	 -0.726309	 1.082987	 -0.803784
H	 -0.717680	 0.977832	 0.934877
C	 -3.225172	 0.228290	 0.028445
H	 -1.867824	 -1.134999	 -0.931459
H	 -1.860449	 -1.239604	 0.805977
H	 -3.313397	 0.915643	 -0.808262
H	 -4.073500	 -0.448134	 -0.008893
H	 -3.306061	 0.809945	 0.942516

	symmetry c1
}
set optking {
	frozen_dihedral = ("
		6 3 5 9
	")
}

ee = optimize('scf')
oeprop('DIPOLE', 'QUADRUPOLE', 'MULLIKEN_CHARGES')
f=open( 'psi4out.xyz', 'w' )
f.write( "19  " )
f.write( str(ee) + "\n" )
f.write( MOL.save_string_xyz() )
f.close()
--------------------------------------------------------------------------

    Molecular point group: c1
  Charge       = 0
  Multiplicity = 1
  Basis Set: 6-31G*
  Basis Set:
  @DF-RHF Final Energy:  -251.34406759121111
    Total Energy =                       -251.3440675912112283
    Molecular point group: c1
  Basis Set: 6-31G*
  Basis Set:
  Basis Set: 6-31G*
  Basis Set:
  @DF-RHF Final Energy:  -251.34454663661450
    Total Energy =                       -251.3445466366144387
  Basis Set: 6-31G*
  Basis Set:
  Basis Set: 6-31G*
  Basis Set:
  @DF-RHF Final Energy:  -251.34614768731950
    Total Energy =                       -251.3461476873194442
  Basis Set: 6-31G*
  Basis Set:
  Basis Set: 6-31G*
  Basis Set:
  @DF-RHF Final Energy:  -251.34625559971187
    Total Energy =                       -251.3462555997119239
  Basis Set: 6-31G*
  Basis Set:
  Basis Set: 6-31G*
  Basis Set:
  @DF-RHF Final Energy:  -251.34626667021649
    Total Energy =                       -251.3462666702163233
  Basis Set: 6-31G*
  Basis Set:
  Basis Set: 6-31G*
  Basis Set:
  @DF-RHF Final Energy:  -251.34627022613665
    Total Energy =                       -251.3462702261368804
  Basis Set: 6-31G*
  Basis Set:
  Charge       = 0
  Multiplicity = 1
  Basis Set: 6-31G*
  Basis Set:

    Orbital Energies (a.u.)
    -----------------------

    Doubly Occupied:

       1A    -15.531868     2A    -11.240794     3A    -11.211715
       4A    -11.209821     5A    -11.208139     6A    -11.205728
       7A     -1.175702     8A     -1.068249     9A     -0.994091
      10A     -0.905598    11A     -0.813878    12A     -0.776315
      13A     -0.664671    14A     -0.649972    15A     -0.612375
      16A     -0.582952    17A     -0.560537    18A     -0.550388
      19A     -0.524535    20A     -0.498613    21A     -0.486005
      22A     -0.462125    23A     -0.458569    24A     -0.443681
      25A     -0.378860

  @DF-RHF Final Energy:  -251.34627084608707

   => Energetics <=

    Nuclear Repulsion Energy =            249.9378037841789819
    One-Electron Energy =                -834.1377922030550280
    Two-Electron Energy =                 332.8537175727886961
    DFT Exchange-Correlation Energy =       0.0000000000000000
    Empirical Dispersion Energy =           0.0000000000000000
    PCM Polarization Energy =               0.0000000000000000
    EFP Energy =                            0.0000000000000000
    Total Energy =                       -251.3462708460873500
    Molecular point group: c1
  Basis Set: 6-31G*
  Basis Set:

  -Total Gradient:
     Atom            X                  Y                   Z
    ------   -----------------  -----------------  -----------------
       1        0.000003392247    -0.000016757864    -0.000006242451
       2        0.000005488814    -0.000030752437    -0.000003424143
       3        0.001406176040    -0.002098422617    -0.007750546936
       4       -0.000002571200    -0.000011435586    -0.000007217906
       5        0.003748464056    -0.005029328825     0.005090919782
       6       -0.001762326660     0.002586802611     0.005778477584
       7        0.000007486422     0.000004853475    -0.000003284955
       8        0.000006387442     0.000003875190    -0.000009987383
       9       -0.003415418071     0.004611789067    -0.003096795433
      10       -0.000005536423    -0.000001327367     0.000001916266
      11       -0.000003555160    -0.000012380198    -0.000000257902
      12        0.000011148817     0.000006141656     0.000001577529
      13        0.000002104066    -0.000009000761     0.000000861517
      14        0.000004740101     0.000000755345     0.000000389938
      15       -0.000001633106    -0.000003414191     0.000000723579
      16       -0.000004308596    -0.000001486448     0.000001225920
      17        0.000001352803     0.000000628770     0.000001891203
      18        0.000001338985    -0.000000126834    -0.000001436696
      19       -0.000002730578    -0.000000412986     0.000001210487

  **** Optimization is complete! (in 7 steps) ****
    Final optimized geometry and variables:
    Molecular point group: c1

    Geometry (in Angstrom), charge = 0, multiplicity = 1:

    H            2.828774859528     1.881107800320     0.747024391517
    N            1.953426449016     1.406623264509     0.637948374939
    C            2.137946952515     0.187457364862    -0.144136825713
    H            1.337355278127     2.044968193540     0.173546490082
    C            0.893462352151    -0.718309001200    -0.118713267513
    H            2.955122291063    -0.336496682320     0.339296284182
    H            2.428482362016     0.388407817513    -1.175953556843
    C           -0.444903874237     0.028945021848    -0.095266804382
    H            0.898678741956    -1.323140805697    -1.022904956349
    H            0.939841268414    -1.386472438864     0.735463212044
    C           -1.645975723903    -0.916412811721    -0.164752538844
    H           -0.492972114554     0.720774995949    -0.937102002178
    H           -0.511492761898     0.628702157236     0.806282295958
    C           -2.985771022259    -0.181897324412    -0.129111715950
    H           -1.586599890378    -1.513949889165    -1.072117481498
    H           -1.598032000659    -1.617843849555     0.665557587345
    H           -3.079422431782     0.504221973318    -0.966430821786
    H           -3.818019126724    -0.877496118286    -0.177800373854
    H           -3.090969817911     0.396607219777     0.784288643514

  Mulliken Charges: (a.u.)
   Center  Symbol    Alpha    Beta     Spin     Total
       1     H     0.33216  0.33216  0.00000  0.33568
       2     N     3.92382  3.92382  0.00000 -0.84765
       3     C     3.06527  3.06527  0.00000 -0.13053
       4     H     0.33320  0.33320  0.00000  0.33360
       5     C     3.15018  3.15018  0.00000 -0.30036
       6     H     0.41877  0.41877  0.00000  0.16245
       7     H     0.43203  0.43203  0.00000  0.13594
       8     C     3.15965  3.15965  0.00000 -0.31929
       9     H     0.42520  0.42520  0.00000  0.14961
      10     H     0.41839  0.41839  0.00000  0.16322
      11     C     3.15080  3.15080  0.00000 -0.30160
      12     H     0.43079  0.43079  0.00000  0.13842
      13     H     0.40944  0.40944  0.00000  0.18111
      14     C     3.23901  3.23901  0.00000 -0.47802
      15     H     0.42461  0.42461  0.00000  0.15078
      16     H     0.42245  0.42245  0.00000  0.15510
      17     H     0.42310  0.42310  0.00000  0.15380
      18     H     0.41998  0.41998  0.00000  0.16004
      19     H     0.42114  0.42114  0.00000  0.15771

   Total alpha = 25.00000, Total beta = 25.00000, Total charge =  0.00000
