  ==> Input File <==

--------------------------------------------------------------------------
set {
	reference rhf
	basis 6-31G*
}

set_num_threads( 4 )
memory 2 gb

molecule MOL {
0 1

H	 2.949166	 -2.855535	 2.583282
O	 3.696704	 -2.793547	 2.006727
C	 3.374538	 -3.340230	 0.753172
C	 2.435188	 -2.459456	 -0.063275
H	 4.315786	 -3.453366	 0.230747
H	 2.948058	 -4.335857	 0.869879
C	 1.052623	 -2.272863	 0.566460
H	 2.906253	 -1.490007	 -0.203396
H	 2.325690	 -2.904694	 -1.050767
C	 0.115918	 -1.429151	 -0.302766
H	 1.164113	 -1.804291	 1.540306
H	 0.598207	 -3.248773	 0.738057
C	 -1.309753	 -1.282496	 0.241564
H	 0.550862	 -0.441253	 -0.443222
H	 0.062163	 -1.879553	 -1.291679
C	 -2.037799	 -0.007733	 -0.193645
H	 -1.890610	 -2.142323	 -0.085726
H	 -1.285946	 -1.330893	 1.329189
C	 -3.489788	 0.042957	 0.286558
H	 -2.017067	 0.064384	 -1.280144
H	 -1.513726	 0.868678	 0.179924
C	 -4.216917	 1.317354	 -0.141063
H	 -4.025645	 -0.823308	 -0.095450
H	 -3.513059	 -0.038752	 1.371301
H	 -4.239342	 1.411634	 -1.223113
H	 -5.243387	 1.322503	 0.212445
H	 -3.726170	 2.201406	 0.256408

	symmetry c1
}
set optking {
	frozen_dihedral = ("
		14 10 13 16
	")
}

ee = optimize('scf')
oeprop('DIPOLE', 'QUADRUPOLE', 'MULLIKEN_CHARGES')
f=open( 'psi4out.xyz', 'w' )
f.write( "27  " )
f.write( str(ee) + "\n" )
f.write( MOL.save_string_xyz() )
f.close()
--------------------------------------------------------------------------

    Molecular point group: c1
  Charge       = 0
  Multiplicity = 1
  Basis Set: 6-31G*
  Basis Set:
  @DF-RHF Final Energy:  -388.28072417936085
    Total Energy =                       -388.2807241793614139
    Molecular point group: c1
  Basis Set: 6-31G*
  Basis Set:
  Basis Set: 6-31G*
  Basis Set:
  @DF-RHF Final Energy:  -388.28115898709234
    Total Energy =                       -388.2811589870922262
  Basis Set: 6-31G*
  Basis Set:
  Basis Set: 6-31G*
  Basis Set:
  @DF-RHF Final Energy:  -388.28118403167832
    Total Energy =                       -388.2811840316774123
  Basis Set: 6-31G*
  Basis Set:
  Basis Set: 6-31G*
  Basis Set:
  @DF-RHF Final Energy:  -388.28121195420442
    Total Energy =                       -388.2812119542037408
  Basis Set: 6-31G*
  Basis Set:
  Basis Set: 6-31G*
  Basis Set:
  @DF-RHF Final Energy:  -388.28121519617326
    Total Energy =                       -388.2812151961729796
  Basis Set: 6-31G*
  Basis Set:
  Charge       = 0
  Multiplicity = 1
  Basis Set: 6-31G*
  Basis Set:

    Orbital Energies (a.u.)
    -----------------------

    Doubly Occupied:

       1A    -20.552245     2A    -11.267125     3A    -11.220753
       4A    -11.216761     5A    -11.215616     6A    -11.215305
       7A    -11.215292     8A    -11.214170     9A    -11.208951
      10A     -1.359044    11A     -1.094436    12A     -1.062630
      13A     -1.011530    14A     -0.950545    15A     -0.882630
      16A     -0.820319    17A     -0.792738    18A     -0.789813
      19A     -0.694224    20A     -0.656089    21A     -0.636269
      22A     -0.613128    23A     -0.599005    24A     -0.587854
      25A     -0.574981    26A     -0.553766    27A     -0.540104
      28A     -0.519614    29A     -0.512811    30A     -0.488310
      31A     -0.485032    32A     -0.475277    33A     -0.468070
      34A     -0.462712    35A     -0.458767    36A     -0.442779
      37A     -0.420165

  @DF-RHF Final Energy:  -388.28121497577536

   => Energetics <=

    Nuclear Repulsion Energy =            451.5898314882736031
    One-Electron Energy =               -1421.1843646574423019
    Two-Electron Energy =                 581.3133181933934566
    DFT Exchange-Correlation Energy =       0.0000000000000000
    Empirical Dispersion Energy =           0.0000000000000000
    PCM Polarization Energy =               0.0000000000000000
    EFP Energy =                            0.0000000000000000
    Total Energy =                       -388.2812149757752422
    Molecular point group: c1
  Basis Set: 6-31G*
  Basis Set:

  -Total Gradient:
     Atom            X                  Y                   Z
    ------   -----------------  -----------------  -----------------
       1       -0.000014185722     0.000007346870     0.000008905793
       2       -0.000022254698    -0.000004956592     0.000009380163
       3        0.000019079075     0.000035792987    -0.000018346541
       4       -0.000009383477    -0.000009754045    -0.000028098574
       5       -0.000000438628     0.000003334694    -0.000005850100
       6       -0.000001456926     0.000005572551    -0.000000475998
       7       -0.000023519289     0.000014775907     0.000008105148
       8        0.000005895306    -0.000010112841    -0.000011169855
       9        0.000009365313    -0.000013067557    -0.000000750174
      10        0.002283360655     0.000525946987     0.005602920021
      11        0.000005212514    -0.000017147969     0.000000851702
      12       -0.000009643559    -0.000018938627    -0.000008731923
      13       -0.001883224881    -0.001950029043    -0.004247390732
      14       -0.001410518743     0.000092701402    -0.003780945873
      15        0.000011798747    -0.000031015325     0.000049300029
      16        0.001100849929     0.001434208902     0.002436464295
      17       -0.000061947078    -0.000008787355     0.000004087928
      18       -0.000009092040     0.000028618977    -0.000015205497
      19       -0.000013175717    -0.000061220949    -0.000007802780
      20        0.000025287820    -0.000052398949     0.000014074015
      21       -0.000015133521     0.000032731713    -0.000012146363
      22        0.000030907840     0.000008837886     0.000013654102
      23       -0.000017907977    -0.000000436960    -0.000005802306
      24       -0.000005276495    -0.000011332302    -0.000010000124
      25       -0.000005788720    -0.000005455726     0.000002345759
      26        0.000008823995    -0.000003069992     0.000010400899
      27        0.000002366268     0.000007855354    -0.000007773016

  **** Optimization is complete! (in 6 steps) ****
    Final optimized geometry and variables:
    Molecular point group: c1

    Geometry (in Angstrom), charge = 0, multiplicity = 1:

    H            2.893311333669    -1.484201102473     2.209890890318
    O            3.654936867865    -1.404741478264     1.654225454597
    C            3.373485798153    -1.939709654847     0.386020451770
    C            2.439581375321    -1.063801577193    -0.441861398441
    H            4.329268418925    -2.029658624460    -0.113969668272
    H            2.961472296379    -2.943916143677     0.478794434537
    C            1.040264205301    -0.907571522963     0.156822163516
    H            2.897643914364    -0.085121071153    -0.558995217901
    H            2.360363818437    -1.498317495842    -1.436951271958
    C            0.107771750348    -0.058832589149    -0.707151486808
    H            1.113780613393    -0.450976926998     1.141699228802
    H            0.595531751880    -1.892013259525     0.302647141154
    C           -1.318070284810     0.057961599551    -0.148395273276
    H            0.530046680802     0.933667232273    -0.850474513078
    H            0.060372837905    -0.490113849412    -1.705782700208
    C           -2.041845760153     1.330474725720    -0.592332428692
    H           -1.896093209494    -0.818050693479    -0.434007166335
    H           -1.280073355792     0.050661694078     0.939993762575
    C           -3.479990771461     1.420414840643    -0.079535738092
    H           -2.045098811797     1.387373654024    -1.680166738726
    H           -1.480670646976     2.195879542254    -0.244781148091
    C           -4.187523529137     2.705932654860    -0.506835483855
    H           -4.044416211360     0.562022769796    -0.437625847447
    H           -3.479571915431     1.353039531111     1.006474057466
    H           -4.235727171791     2.785661185205    -1.589219685840
    H           -5.204075908033     2.740777056134    -0.127314595434
    H           -3.665503312465     3.583068867987    -0.134864276890

  Mulliken Charges: (a.u.)
   Center  Symbol    Alpha    Beta     Spin     Total
       1     H     0.27986  0.27986  0.00000  0.44027
       2     O     4.37096  4.37096  0.00000 -0.74191
       3     C     2.99738  2.99738  0.00000  0.00524
       4     C     3.16166  3.16166  0.00000 -0.32331
       5     H     0.41438  0.41438  0.00000  0.17123
       6     H     0.43202  0.43202  0.00000  0.13597
       7     C     3.16210  3.16210  0.00000 -0.32420
       8     H     0.41486  0.41486  0.00000  0.17028
       9     H     0.42406  0.42406  0.00000  0.15187
      10     C     3.15246  3.15246  0.00000 -0.30493
      11     H     0.42489  0.42489  0.00000  0.15022
      12     H     0.42448  0.42448  0.00000  0.15103
      13     C     3.15273  3.15273  0.00000 -0.30546
      14     H     0.42023  0.42023  0.00000  0.15954
      15     H     0.42235  0.42235  0.00000  0.15530
      16     C     3.15201  3.15201  0.00000 -0.30402
      17     H     0.42187  0.42187  0.00000  0.15626
      18     H     0.42445  0.42445  0.00000  0.15110
      19     C     3.15178  3.15178  0.00000 -0.30357
      20     H     0.42391  0.42391  0.00000  0.15218
      21     H     0.42311  0.42311  0.00000  0.15379
      22     C     3.23926  3.23926  0.00000 -0.47853
      23     H     0.42314  0.42314  0.00000  0.15372
      24     H     0.42328  0.42328  0.00000  0.15344
      25     H     0.42173  0.42173  0.00000  0.15654
      26     H     0.41935  0.41935  0.00000  0.16130
      27     H     0.42168  0.42168  0.00000  0.15665

   Total alpha = 37.00000, Total beta = 37.00000, Total charge =  0.00000
