  ==> Input File <==

--------------------------------------------------------------------------
set {
	reference rhf
	basis 6-31G*
}

set_num_threads( 4 )
memory 2 gb

molecule MOL {
0 1

O	 -1.337384	 -0.027807	 -1.038710
C	 -1.083277	 0.139568	 0.115197
C	 0.323299	 -0.082943	 0.642902
C	 -2.144332	 0.554017	 1.110296
C	 1.355627	 -0.005344	 -0.493127
H	 0.396251	 -1.044647	 1.143147
H	 0.528637	 0.693580	 1.371677
C	 2.786168	 -0.195604	 0.007473
H	 1.132807	 -0.760304	 -1.243899
H	 1.259610	 0.958506	 -0.981915
H	 3.495561	 -0.130713	 -0.811210
H	 2.912696	 -1.165395	 0.480041
H	 3.049284	 0.565503	 0.735850
H	 -2.146169	 -0.109441	 1.970231
H	 -3.116986	 0.546661	 0.638462
H	 -1.929298	 1.554011	 1.477686

	symmetry c1
}
set optking {
	frozen_dihedral = ("
		4 2 3 5
	")
}

ee = optimize('scf')
oeprop('DIPOLE', 'QUADRUPOLE', 'MULLIKEN_CHARGES')
f=open( 'psi4out.xyz', 'w' )
f.write( "16  " )
f.write( str(ee) + "\n" )
f.write( MOL.save_string_xyz() )
f.close()
--------------------------------------------------------------------------

    Molecular point group: c1
  Charge       = 0
  Multiplicity = 1
  Basis Set: 6-31G*
  Basis Set:
  @DF-RHF Final Energy:  -270.03091124319201
    Total Energy =                       -270.0309112431917242
    Molecular point group: c1
  Basis Set: 6-31G*
  Basis Set:
  Basis Set: 6-31G*
  Basis Set:
  @DF-RHF Final Energy:  -270.03103471596881
    Total Energy =                       -270.0310347159686444
  Basis Set: 6-31G*
  Basis Set:
  Basis Set: 6-31G*
  Basis Set:
  @DF-RHF Final Energy:  -270.03093499309830
    Total Energy =                       -270.0309349930981853
  Basis Set: 6-31G*
  Basis Set:
  Basis Set: 6-31G*
  Basis Set:
  @DF-RHF Final Energy:  -270.03204661952941
    Total Energy =                       -270.0320466195292397
  Basis Set: 6-31G*
  Basis Set:
  @DF-RHF Final Energy:  -270.03187699695161
    Total Energy =                       -270.0318769969516097
  Basis Set: 6-31G*
  Basis Set:
  @DF-RHF Final Energy:  -270.03193515820550
    Total Energy =                       -270.0319351582053855
  Basis Set: 6-31G*
  Basis Set:
  Basis Set: 6-31G*
  Basis Set:
  @DF-RHF Final Energy:  -270.03206633549473
    Total Energy =                       -270.0320663354947328
  Basis Set: 6-31G*
  Basis Set:
  Basis Set: 6-31G*
  Basis Set:
  @DF-RHF Final Energy:  -270.03206740458234
    Total Energy =                       -270.0320674045822784
  Basis Set: 6-31G*
  Basis Set:
  Charge       = 0
  Multiplicity = 1
  Basis Set: 6-31G*
  Basis Set:

    Orbital Energies (a.u.)
    -----------------------

    Doubly Occupied:

       1A    -20.550157     2A    -11.326766     3A    -11.232369
       4A    -11.228934     5A    -11.220687     6A    -11.214059
       7A     -1.395808     8A     -1.077403     9A     -1.015780
      10A     -0.947084    11A     -0.824635    12A     -0.732247
      13A     -0.655333    14A     -0.649538    15A     -0.623718
      16A     -0.599045    17A     -0.567722    18A     -0.559812
      19A     -0.546697    20A     -0.501837    21A     -0.491588
      22A     -0.482492    23A     -0.475929    24A     -0.400690

  @DF-RHF Final Energy:  -270.03206794969753

   => Energetics <=

    Nuclear Repulsion Energy =            236.7680143862926911
    One-Electron Energy =                -834.9595003212607480
    Two-Electron Energy =                 328.1594179852704656
    DFT Exchange-Correlation Energy =       0.0000000000000000
    Empirical Dispersion Energy =           0.0000000000000000
    PCM Polarization Energy =               0.0000000000000000
    EFP Energy =                            0.0000000000000000
    Total Energy =                       -270.0320679496976481
    Molecular point group: c1
  Basis Set: 6-31G*
  Basis Set:

  -Total Gradient:
     Atom            X                  Y                   Z
    ------   -----------------  -----------------  -----------------
       1        0.000009497169    -0.000004201388     0.000012154630
       2       -0.000222597738    -0.000893652228     0.000276512063
       3       -0.000000977739    -0.000851459557    -0.000271321013
       4        0.000179296941     0.000870162653    -0.000166807035
       5        0.000044191672     0.000885807488     0.000151845790
       6       -0.000006683463    -0.000004897310     0.000003042046
       7        0.000007753761     0.000006984088    -0.000001849276
       8       -0.000001526291     0.000008831751     0.000005430898
       9       -0.000010011221    -0.000008835401     0.000004382640
      10        0.000001669559    -0.000003529168    -0.000013730050
      11       -0.000003880051     0.000005701316    -0.000000659623
      12        0.000004387593    -0.000001864318    -0.000006000437
      13       -0.000000907252    -0.000005882101     0.000007990509
      14       -0.000003608315    -0.000001436003     0.000003415918
      15       -0.000002362430     0.000003215806    -0.000001074892
      16        0.000005757810    -0.000004945629    -0.000003332166

  **** Optimization is complete! (in 9 steps) ****
    Final optimized geometry and variables:
    Molecular point group: c1

    Geometry (in Angstrom), charge = 0, multiplicity = 1:

    O           -1.378471796264    -0.097110749204    -1.097270866880
    C           -1.083182386147     0.065772874603     0.046949594001
    C            0.339020546193    -0.120364369584     0.545916644021
    C           -2.112678641653     0.476301487854     1.077945765387
    C            1.394415460317    -0.053944900799    -0.555558337523
    H            0.374293520371    -1.087034641445     1.048862797873
    H            0.541740269205     0.618470865396     1.318433086927
    C            2.808070357983    -0.273903303150    -0.019265404570
    H            1.163947058875    -0.793922813789    -1.312742346675
    H            1.334457463614     0.912152876635    -1.047886193081
    H            3.539384751572    -0.216816208482    -0.819020207303
    H            2.905602139220    -1.250263432158     0.447447378597
    H            3.072315738349     0.474259581734     0.723120746475
    H           -2.038649682882    -0.136568124266     1.971163903594
    H           -3.106065688526     0.397918474945     0.658460099353
    H           -1.932046323773     1.505425242178     1.376901194642

  Mulliken Charges: (a.u.)
   Center  Symbol    Alpha    Beta     Spin     Total
       1     O     4.26191  4.26191  0.00000 -0.52381
       2     C     2.73482  2.73482  0.00000  0.53036
       3     C     3.20915  3.20915  0.00000 -0.41829
       4     C     3.28744  3.28744  0.00000 -0.57487
       5     C     3.14966  3.14966  0.00000 -0.29933
       6     H     0.40628  0.40628  0.00000  0.18744
       7     H     0.41341  0.41341  0.00000  0.17318
       8     C     3.24185  3.24185  0.00000 -0.48369
       9     H     0.40603  0.40603  0.00000  0.18794
      10     H     0.41604  0.41604  0.00000  0.16792
      11     H     0.41563  0.41563  0.00000  0.16873
      12     H     0.42169  0.42169  0.00000  0.15662
      13     H     0.42268  0.42268  0.00000  0.15463
      14     H     0.41041  0.41041  0.00000  0.17919
      15     H     0.39684  0.39684  0.00000  0.20632
      16     H     0.40617  0.40617  0.00000  0.18766

   Total alpha = 24.00000, Total beta = 24.00000, Total charge = -0.00000
