  ==> Input File <==

--------------------------------------------------------------------------
set {
	reference rhf
	basis 6-31G*
}

set_num_threads( 1 )
memory 2 gb

molecule MOL {
0 1

H	 -1.731265	 -0.912134	 0.385567
O	 -2.035884	 -0.060112	 0.102722
C	 -0.955155	 0.788182	 -0.092531
C	 0.353668	 0.040312	 -0.004810
H	 -0.985057	 1.290372	 -1.054184
H	 -0.974469	 1.533190	 0.688632
F	 0.394464	 -0.937475	 -0.903053
F	 1.368604	 0.853376	 -0.249821
F	 0.546173	 -0.502608	 1.179981

	symmetry c1
}
set optking {
	frozen_dihedral = ("
		7 4 3 5
	")
}

ee = energy('scf')
oeprop('DIPOLE', 'QUADRUPOLE', 'MULLIKEN_CHARGES')
f=open( 'psi4out.xyz', 'w' )
f.write( "9  " )
f.write( str(ee) + "\n" )
f.write( MOL.save_string_xyz() )
f.close()
--------------------------------------------------------------------------

    Molecular point group: c1

    Geometry (in Angstrom), charge = 0, multiplicity = 1:

       Center              X                  Y                   Z               Mass
    ------------   -----------------  -----------------  -----------------  -----------------
           H         -1.734970349556    -0.909737631066     0.375467383948     1.007825032070
           O         -2.039589349556    -0.057715631066     0.092622383948    15.994914619560
           C         -0.958860349556     0.790578368934    -0.102630616052    12.000000000000
           C          0.349962650444     0.042708368934    -0.014909616052    12.000000000000
           H         -0.988762349556     1.292768368934    -1.064283616052     1.007825032070
           H         -0.978174349556     1.535586368934     0.678532383948     1.007825032070
           F          0.390758650444    -0.935078631066    -0.913152616052    18.998403224000
           F          1.364898650444     0.855772368934    -0.259920616052    18.998403224000
           F          0.542467650444    -0.500211631066     1.169881383948    18.998403224000

  Charge       = 0
  Multiplicity = 1
  Basis Set: 6-31G*
  Basis Set:

    Orbital Energies (a.u.)
    -----------------------

    Doubly Occupied:

       1A    -26.355115     2A    -26.349000     3A    -26.347679
       4A    -20.586719     5A    -11.509421     6A    -11.309185
       7A     -1.749223     8A     -1.649228     9A     -1.643524
      10A     -1.401511    11A     -1.050709    12A     -0.930015
      13A     -0.838708    14A     -0.837615    15A     -0.816508
      16A     -0.722261    17A     -0.720462    18A     -0.679913
      19A     -0.675135    20A     -0.670470    21A     -0.651388
      22A     -0.644869    23A     -0.623260    24A     -0.525641
      25A     -0.475705

  @DF-RHF Final Energy:  -450.65724428388205

   => Energetics <=

    Nuclear Repulsion Energy =            277.7881081344227141
    One-Electron Energy =               -1177.3641865790355041
    Two-Electron Energy =                 448.9188341607307393
    DFT Exchange-Correlation Energy =       0.0000000000000000
    Empirical Dispersion Energy =           0.0000000000000000
    PCM Polarization Energy =               0.0000000000000000
    EFP Energy =                            0.0000000000000000
    Total Energy =                       -450.6572442838820507

  Mulliken Charges: (a.u.)
   Center  Symbol    Alpha    Beta     Spin     Total
       1     H     0.27044  0.27044  0.00000  0.45912
       2     O     4.36974  4.36974  0.00000 -0.73948
       3     C     3.02291  3.02291  0.00000 -0.04583
       4     C     2.48983  2.48983  0.00000  1.02034
       5     H     0.40250  0.40250  0.00000  0.19500
       6     H     0.40633  0.40633  0.00000  0.18735
       7     F     4.68132  4.68132  0.00000 -0.36265
       8     F     4.67999  4.67999  0.00000 -0.35998
       9     F     4.67693  4.67693  0.00000 -0.35387

   Total alpha = 25.00000, Total beta = 25.00000, Total charge =  0.00000
