  ==> Input File <==

--------------------------------------------------------------------------
set {
	reference rhf
	basis 6-31G*
}

set_num_threads( 4 )
memory 2 gb

molecule MOL {
0 1

O	 0.216491	 0.013008	 -0.762521
C	 1.122059	 0.121804	 -0.000188
C	 1.241602	 1.171918	 1.077246
O	 2.172624	 -0.688929	 0.000216
C	 0.057845	 2.133248	 1.120896
H	 1.362481	 0.653043	 2.024301
H	 2.174543	 1.703489	 0.910493
C	 0.204389	 3.186398	 2.220336
H	 -0.857006	 1.568606	 1.271666
H	 -0.044077	 2.620231	 0.156032
C	 -0.976773	 4.154572	 2.270318
H	 0.306953	 2.693104	 3.184815
H	 1.123863	 3.747472	 2.065953
H	 -1.907554	 3.627190	 2.457853
H	 -0.848180	 4.890305	 3.057996
H	 -1.084423	 4.689526	 1.331236
C	 3.452279	 -0.082609	 0.000533
H	 3.583069	 0.529321	 -0.880332
H	 4.163299	 -0.894027	 0.001117
H	 3.582335	 0.529955	 0.881077

	symmetry c1
}
set optking {
	frozen_dihedral = ("
		1 2 4 17
	")
}

ee = optimize('scf')
oeprop('DIPOLE', 'QUADRUPOLE', 'MULLIKEN_CHARGES')
f=open( 'psi4out.xyz', 'w' )
f.write( "20  " )
f.write( str(ee) + "\n" )
f.write( MOL.save_string_xyz() )
f.close()
--------------------------------------------------------------------------

    Molecular point group: c1
  Charge       = 0
  Multiplicity = 1
  Basis Set: 6-31G*
  Basis Set:
  @DF-RHF Final Energy:  -383.91549564842757
    Total Energy =                       -383.9154956484276227
    Molecular point group: c1
  Basis Set: 6-31G*
  Basis Set:
  Basis Set: 6-31G*
  Basis Set:
  @DF-RHF Final Energy:  -383.91587465232988
    Total Energy =                       -383.9158746523300465
  Basis Set: 6-31G*
  Basis Set:
  Basis Set: 6-31G*
  Basis Set:
  @DF-RHF Final Energy:  -383.92050781185520
    Total Energy =                       -383.9205078118549181
  Basis Set: 6-31G*
  Basis Set:
  Basis Set: 6-31G*
  Basis Set:
  @DF-RHF Final Energy:  -383.92111996047527
    Total Energy =                       -383.9211199604751528
  Basis Set: 6-31G*
  Basis Set:
  @DF-RHF Final Energy:  -383.92200627425535
    Total Energy =                       -383.9220062742554092
  Basis Set: 6-31G*
  Basis Set:
  @DF-RHF Final Energy:  -383.92222303446573
    Total Energy =                       -383.9222230344655600
  Basis Set: 6-31G*
  Basis Set:
  Basis Set: 6-31G*
  Basis Set:
  @DF-RHF Final Energy:  -383.92224810086634
    Total Energy =                       -383.9222481008664545
  Basis Set: 6-31G*
  Basis Set:
  Basis Set: 6-31G*
  Basis Set:
  @DF-RHF Final Energy:  -383.92225868968490
    Total Energy =                       -383.9222586896847815
  Basis Set: 6-31G*
  Basis Set:
  Charge       = 0
  Multiplicity = 1
  Basis Set: 6-31G*
  Basis Set:

    Orbital Energies (a.u.)
    -----------------------

    Doubly Occupied:

       1A    -20.592248     2A    -20.550095     3A    -11.374607
       4A    -11.295248     5A    -11.243358     6A    -11.224163
       7A    -11.223540     8A    -11.213330     9A     -1.459988
      10A     -1.367432    11A     -1.091215    12A     -1.017249
      13A     -0.978765    14A     -0.900458    15A     -0.809750
      16A     -0.766444    17A     -0.697555    18A     -0.683063
      19A     -0.674000    20A     -0.648473    21A     -0.612474
      22A     -0.591289    23A     -0.589984    24A     -0.553501
      25A     -0.539328    26A     -0.518548    27A     -0.498497
      28A     -0.483355    29A     -0.480272    30A     -0.473921
      31A     -0.451044    32A     -0.432737

  @DF-RHF Final Energy:  -383.92225940365824

   => Energetics <=

    Nuclear Repulsion Energy =            382.3809451956178691
    One-Electron Energy =               -1280.5345416344157456
    Two-Electron Energy =                 514.2313370351400863
    DFT Exchange-Correlation Energy =       0.0000000000000000
    Empirical Dispersion Energy =           0.0000000000000000
    PCM Polarization Energy =               0.0000000000000000
    EFP Energy =                            0.0000000000000000
    Total Energy =                       -383.9222594036577902
    Molecular point group: c1
  Basis Set: 6-31G*
  Basis Set:

  -Total Gradient:
     Atom            X                  Y                   Z
    ------   -----------------  -----------------  -----------------
       1        0.002200170051     0.002080034866    -0.002397653586
       2       -0.003201753745    -0.002903083417     0.001807394873
       3       -0.000007816168     0.000035121640    -0.000018283317
       4        0.000915162553     0.000750486126     0.003850610733
       5        0.000038829303    -0.000004721527    -0.000004001470
       6        0.000004893899    -0.000006935992     0.000004394937
       7        0.000002160402    -0.000001698181     0.000005698541
       8       -0.000019258876    -0.000008806258     0.000020750006
       9       -0.000009268484     0.000006687443     0.000002029247
      10        0.000004378804    -0.000006749032    -0.000007279113
      11        0.000006162051     0.000002595942    -0.000004375698
      12        0.000001052343    -0.000000192542     0.000004029306
      13       -0.000002606925    -0.000000928878    -0.000000095731
      14        0.000002097203     0.000000059342     0.000005137561
      15        0.000002635019     0.000002308898    -0.000003797978
      16       -0.000003368708    -0.000003286023    -0.000002179971
      17        0.000061238575     0.000076762437    -0.003276277293
      18        0.000042980195     0.000001576178    -0.000000064087
      19       -0.000017789055    -0.000006591531     0.000006574313
      20       -0.000019898440    -0.000012639484     0.000007388732

  **** Optimization is complete! (in 9 steps) ****
    Final optimized geometry and variables:
    Molecular point group: c1

    Geometry (in Angstrom), charge = 0, multiplicity = 1:

    O           -0.641334946971    -1.078700223190    -1.555538099994
    C            0.225525481506    -1.025336993753    -0.753941802914
    C            0.325190090239     0.044677536037     0.313858090685
    O            1.186748515248    -1.967371836611    -0.736275180068
    C           -0.930993066138     0.905947619597     0.419069569552
    H            0.545035328539    -0.444994873652     1.258885073378
    H            1.187271208534     0.669995781028     0.091788853497
    C           -0.809657965576     1.981229299474     1.499928501110
    H           -1.784501744594     0.268487333158     0.628433402185
    H           -1.127576128372     1.367814844906    -0.542501389770
    C           -2.064292657486     2.846221714933     1.612830132630
    H           -0.608559395159     1.511392927117     2.460596138453
    H            0.047488309603     2.616852565066     1.285899491539
    H           -2.933257873848     2.244443702408     1.862274540591
    H           -1.951760432843     3.601637567941     2.384085638379
    H           -2.273715826721     3.355963866134     0.676996291187
    C            2.543865074237    -1.587579211334    -0.707566014816
    H            2.767896222044    -0.886634269801    -1.503373459064
    H            3.110686995902    -2.491761582665    -0.864963768036
    H            2.823055270306    -1.156841251765     0.246614402165

  Mulliken Charges: (a.u.)
   Center  Symbol    Alpha    Beta     Spin     Total
       1     O     4.25558  4.25558  0.00000 -0.51115
       2     C     2.60693  2.60693  0.00000  0.78614
       3     C     3.22623  3.22623  0.00000 -0.45246
       4     O     4.30927  4.30927  0.00000 -0.61853
       5     C     3.14938  3.14938  0.00000 -0.29876
       6     H     0.40197  0.40197  0.00000  0.19606
       7     H     0.40535  0.40535  0.00000  0.18930
       8     C     3.15453  3.15453  0.00000 -0.30906
       9     H     0.41136  0.41136  0.00000  0.17729
      10     H     0.40845  0.40845  0.00000  0.18311
      11     C     3.23957  3.23957  0.00000 -0.47914
      12     H     0.42293  0.42293  0.00000  0.15414
      13     H     0.42389  0.42389  0.00000  0.15222
      14     H     0.41922  0.41922  0.00000  0.16156
      15     H     0.41840  0.41840  0.00000  0.16321
      16     H     0.41933  0.41933  0.00000  0.16133
      17     C     3.09400  3.09400  0.00000 -0.18799
      18     H     0.41536  0.41536  0.00000  0.16929
      19     H     0.39958  0.39958  0.00000  0.20084
      20     H     0.41869  0.41869  0.00000  0.16261

   Total alpha = 32.00000, Total beta = 32.00000, Total charge =  0.00000
