  ==> Input File <==

--------------------------------------------------------------------------
set {
	reference rhf
	basis 6-31G*
}

set_num_threads( 1 )
memory 2 gb

molecule MOL {
0 1

H	 -1.987141	 0.481599	 2.261691
O	 -1.576677	 1.319928	 2.103225
C	 -0.814096	 1.257388	 0.927833
C	 0.471123	 0.478590	 1.145437
H	 -1.374891	 0.815778	 0.108780
H	 -0.576898	 2.275501	 0.652820
O	 1.171513	 0.459272	 -0.058250
H	 0.242516	 -0.537664	 1.472464
H	 1.055423	 0.950638	 1.933058
C	 2.397842	 -0.198080	 -0.002151
H	 2.508049	 -0.905315	 -0.822092
H	 3.173794	 0.550865	 -0.078850
H	 2.517602	 -0.735921	 0.936026

	symmetry c1
}
set optking {
	frozen_dihedral = ("
		8 4 3 5,
		1 2 3 5,
		10 7 4 8
	")
}

ee = energy('scf')
oeprop('DIPOLE', 'QUADRUPOLE', 'MULLIKEN_CHARGES')
f=open( 'psi4out.xyz', 'w' )
f.write( "13  " )
f.write( str(ee) + "\n" )
f.write( MOL.save_string_xyz() )
f.close()
--------------------------------------------------------------------------

    Molecular point group: c1

    Geometry (in Angstrom), charge = 0, multiplicity = 1:

       Center              X                  Y                   Z               Mass
    ------------   -----------------  -----------------  -----------------  -----------------
           H         -2.299817579191    -0.173620914120     1.419152422990     1.007825032070
           O         -1.889353579191     0.664708085880     1.260686422990    15.994914619560
           C         -1.126772579191     0.602168085880     0.085294422990    12.000000000000
           C          0.158446420809    -0.176629914120     0.302898422990    12.000000000000
           H         -1.687567579191     0.160558085880    -0.733758577010     1.007825032070
           H         -0.889574579191     1.620281085880    -0.189718577010     1.007825032070
           O          0.858836420809    -0.195947914120    -0.900788577010    15.994914619560
           H         -0.070160579191    -1.192883914120     0.629925422990     1.007825032070
           H          0.742746420809     0.295418085880     1.090519422990     1.007825032070
           C          2.085165420809    -0.853299914120    -0.844689577010    12.000000000000
           H          2.195372420809    -1.560534914120    -1.664630577010     1.007825032070
           H          2.861117420809    -0.104354914120    -0.921388577010     1.007825032070
           H          2.204925420809    -1.391140914120     0.093487422990     1.007825032070

  Charge       = 0
  Multiplicity = 1
  Basis Set: 6-31G*
  Basis Set:

    Orbital Energies (a.u.)
    -----------------------

    Doubly Occupied:

       1A    -20.559995     2A    -20.559182     3A    -11.271518
       4A    -11.269356     5A    -11.268624     6A     -1.387725
       7A     -1.364968     8A     -1.017911     9A     -0.913021
      10A     -0.842906    11A     -0.709020    12A     -0.671713
      13A     -0.659961    14A     -0.638023    15A     -0.595838
      16A     -0.567007    17A     -0.549574    18A     -0.489539
      19A     -0.482711    20A     -0.438376    21A     -0.416476

  @DF-RHF Final Energy:  -267.94634401192377

   => Energetics <=

    Nuclear Repulsion Energy =            190.2875500740002792
    One-Electron Energy =                -743.1209105683905136
    Two-Electron Energy =                 284.8870164824659810
    DFT Exchange-Correlation Energy =       0.0000000000000000
    Empirical Dispersion Energy =           0.0000000000000000
    PCM Polarization Energy =               0.0000000000000000
    EFP Energy =                            0.0000000000000000
    Total Energy =                       -267.9463440119242819

  Mulliken Charges: (a.u.)
   Center  Symbol    Alpha    Beta     Spin     Total
       1     H     0.28133  0.28133  0.00000  0.43735
       2     O     4.37082  4.37082  0.00000 -0.74165
       3     C     3.00499  3.00499  0.00000 -0.00997
       4     C     2.99828  2.99828  0.00000  0.00343
       5     H     0.42227  0.42227  0.00000  0.15546
       6     H     0.40848  0.40848  0.00000  0.18303
       7     O     4.30939  4.30939  0.00000 -0.61879
       8     H     0.43690  0.43690  0.00000  0.12620
       9     H     0.42316  0.42316  0.00000  0.15368
      10     C     3.07800  3.07800  0.00000 -0.15601
      11     H     0.41800  0.41800  0.00000  0.16400
      12     H     0.41991  0.41991  0.00000  0.16018
      13     H     0.42846  0.42846  0.00000  0.14308

   Total alpha = 21.00000, Total beta = 21.00000, Total charge = -0.00000
