                              Psi4 1.0.54 Driver

  ==> Input File <==

--------------------------------------------------------------------------
set {
	reference rhf
	basis cc-pvtz
}

set_num_threads( 4 )
memory 2 gb

molecule MOL {
0 1

O	 2.624676	 -0.133295	 -0.700013
C	 1.704209	 0.119472	 -0.000093
C	 0.380337	 -0.600947	 -0.000234
O	 1.721310	 1.092983	 0.895676
C	 -0.824290	 0.329213	 -0.000115
H	 0.371455	 -1.255476	 -0.865660
H	 0.371410	 -1.255787	 0.864952
C	 -2.146151	 -0.432825	 -0.000068
H	 -0.773936	 0.979158	 -0.866319
H	 -0.773838	 0.979034	 0.866186
C	 -3.366283	 0.483552	 0.000557
H	 -2.189286	 -1.084450	 -0.869996
H	 -2.188867	 -1.085083	 0.869399
C	 -4.687436	 -0.278003	 0.000108
H	 -3.325150	 1.134819	 -0.867957
H	 -3.325087	 1.133730	 0.869885
H	 -4.773783	 -0.912098	 -0.876078
H	 -5.531922	 0.401392	 0.000363
H	 -4.773901	 -0.912898	 0.875703
C	 2.906978	 1.854419	 1.003990
H	 3.740637	 1.225022	 1.278007
H	 2.722466	 2.584381	 1.775325
H	 3.130070	 2.347650	 0.069556

	symmetry c1
}
set optking {
	frozen_dihedral = ("
		1 2 3 6
	")
}

ee,wfn = optimize('scf', return_wfn=True)
oeprop( wfn, 'DIPOLE', 'QUADRUPOLE', 'MULLIKEN_CHARGES')
f=open( 'psi4out.xyz', 'w' )
f.write( "23  " )
f.write( str(ee) + "\n" )
f.write( MOL.save_string_xyz() )
f.close()
--------------------------------------------------------------------------

    Molecular point group: c1
  Charge       = 0
  Multiplicity = 1
  Basis Set: CC-PVTZ
  Basis Set:
  @DF-RHF Final Energy:  -423.12907962201518
    Total Energy =                       -423.1290796220155244
    Molecular point group: c1
  Basis Set: CC-PVTZ
  Basis Set:
  Basis Set: CC-PVTZ
  Basis Set:
  @DF-RHF Final Energy:  -423.12758534669558
    Total Energy =                       -423.1275853466958097
  Basis Set: CC-PVTZ
  Basis Set:
  Basis Set: CC-PVTZ
  Basis Set:
  @DF-RHF Final Energy:  -423.12931263940033
    Total Energy =                       -423.1293126394006094
  Basis Set: CC-PVTZ
  Basis Set:
  Basis Set: CC-PVTZ
  Basis Set:
  @DF-RHF Final Energy:  -423.12949206063865
    Total Energy =                       -423.1294920606383130
  Basis Set: CC-PVTZ
  Basis Set:
  Basis Set: CC-PVTZ
  Basis Set:
  @DF-RHF Final Energy:  -423.12952926431063
    Total Energy =                       -423.1295292643110315
  Basis Set: CC-PVTZ
  Basis Set:
  Basis Set: CC-PVTZ
  Basis Set:
  @DF-RHF Final Energy:  -423.12953284135403
    Total Energy =                       -423.1295328413543757
  Basis Set: CC-PVTZ
  Basis Set:
  Charge       = 0
  Multiplicity = 1
  Basis Set: CC-PVTZ
  Basis Set:

    Orbital Energies (a.u.)
    -----------------------

    Doubly Occupied:

       1A    -20.597272     2A    -20.532160     3A    -11.363737
       4A    -11.278783     5A    -11.233040     6A    -11.224533
       7A    -11.219060     8A    -11.217813     9A    -11.210081
      10A     -1.472186    11A     -1.364395    12A     -1.098015
      13A     -1.046503    14A     -0.984524    15A     -0.936080
      16A     -0.848548    17A     -0.798536    18A     -0.775756
      19A     -0.695440    20A     -0.684465    21A     -0.675939
      22A     -0.655255    23A     -0.610336    24A     -0.594021
      25A     -0.579606    26A     -0.569222    27A     -0.549951
      28A     -0.529583    29A     -0.525262    30A     -0.507020
      31A     -0.490303    32A     -0.479470    33A     -0.471018
      34A     -0.469314    35A     -0.458644    36A     -0.429347

  @DF-RHF Final Energy:  -423.12953308112486

   => Energetics <=

    Nuclear Repulsion Energy =            455.7403028349528427
    One-Electron Energy =               -1479.3892397118720510
    Two-Electron Energy =                 600.5194037957943465
    DFT Exchange-Correlation Energy =       0.0000000000000000
    Empirical Dispersion Energy =           0.0000000000000000
    PCM Polarization Energy =               0.0000000000000000
    EFP Energy =                            0.0000000000000000
    Total Energy =                       -423.1295330811248050
    Molecular point group: c1
  Basis Set: CC-PVTZ
  Basis Set:

  -Total Gradient:
     Atom            X                  Y                   Z
    ------   -----------------  -----------------  -----------------
       1        0.000231604373    -0.000492457124     0.000650588564
       2       -0.000414323410     0.000767018318    -0.001070143145
       3        0.000477109141    -0.000908525295     0.000886310822
       4        0.000024834752     0.000083725591     0.000045571012
       5       -0.000004628126     0.000003815559     0.000006558792
       6       -0.000300531339     0.000572971017    -0.000501589055
       7        0.000004681065    -0.000000555619     0.000008119513
       8       -0.000003017945    -0.000000814165    -0.000019472886
       9       -0.000005020367    -0.000002020673    -0.000009322556
      10        0.000007976501     0.000001169637     0.000002993011
      11       -0.000000175488     0.000001638163     0.000006836042
      12       -0.000005743751    -0.000003190282    -0.000010843696
      13        0.000003970778    -0.000000598925     0.000003359998
      14        0.000001552408    -0.000003929468    -0.000001132590
      15        0.000001553703    -0.000001696097    -0.000006028931
      16        0.000005863996     0.000008578796     0.000006788552
      17       -0.000002908433    -0.000003907779    -0.000004823410
      18        0.000000373953     0.000002267884     0.000000582849
      19       -0.000002643293    -0.000004011447     0.000007056160
      20       -0.000034086034    -0.000034822200     0.000002814539
      21        0.000015150881    -0.000009458492     0.000007923229
      22       -0.000007519561     0.000012327201     0.000011451925
      23        0.000005926201     0.000012475402    -0.000023598738

  **** Optimization is complete! (in 7 steps) ****
    Final optimized geometry and variables:
    Molecular point group: c1

    Geometry (in Angstrom), charge = 0, multiplicity = 1:

    O            2.761252441184    -0.559969612691    -0.737259714327
    C            1.851029210215    -0.208038237587    -0.066397173006
    C            0.501430302365    -0.879698459625    -0.041623931875
    O            1.926437723917     0.809622783639     0.774884168798
    C           -0.687932473045     0.076425295548    -0.140035186754
    H            0.493231088042    -1.588015160351    -0.857608303554
    H            0.445180268892    -1.442186787123     0.885681772576
    C           -2.021603140655    -0.664427272840    -0.162712601453
    H           -0.592846968142     0.674533198143    -1.042113259934
    H           -0.666859625696     0.767515739512     0.693327215004
    C           -3.224802418279     0.268584574096    -0.264019589418
    H           -2.035678201199    -1.359387760077    -0.998675677432
    H           -2.111766038928    -1.268773753696     0.736992214049
    C           -4.556958359917    -0.473349799347    -0.283382607348
    H           -3.135583153348     0.871970861787    -1.163136645648
    H           -3.211044151364     0.963147514142     0.571314316456
    H           -4.615077363718    -1.151587293185    -1.128147281693
    H           -5.389285494654     0.217010659305    -0.356223398256
    H           -4.691760344379    -1.059585946650     0.619531471845
    C            3.160494479437     1.493692537302     0.856123838760
    H            3.945853051386     0.825631137981     1.177178642982
    H            3.018700637505     2.278165190405     1.581745974685
    H            3.426161686649     1.915082033645    -0.101935300499

  Mulliken Charges: (a.u.)
   Center  Symbol    Alpha    Beta     Spin     Total
       1     O     4.19982  4.19982  0.00000 -0.39963
       2     C     2.81345  2.81345  0.00000  0.37310
       3     C     3.07881  3.07881  0.00000 -0.15762
       4     O     4.14748  4.14748  0.00000 -0.29495
       5     C     3.09721  3.09721  0.00000 -0.19442
       6     H     0.43646  0.43646  0.00000  0.12707
       7     H     0.44691  0.44691  0.00000  0.10619
       8     C     3.09126  3.09126  0.00000 -0.18251
       9     H     0.45017  0.45017  0.00000  0.09966
      10     H     0.44258  0.44258  0.00000  0.11483
      11     C     3.08388  3.08388  0.00000 -0.16776
      12     H     0.45288  0.45288  0.00000  0.09424
      13     H     0.45436  0.45436  0.00000  0.09129
      14     C     3.15035  3.15035  0.00000 -0.30071
      15     H     0.45364  0.45364  0.00000  0.09272
      16     H     0.45384  0.45384  0.00000  0.09233
      17     H     0.45458  0.45458  0.00000  0.09084
      18     H     0.44771  0.44771  0.00000  0.10458
      19     H     0.45493  0.45493  0.00000  0.09015
      20     C     3.03661  3.03661  0.00000 -0.07322
      21     H     0.45311  0.45311  0.00000  0.09379
      22     H     0.44601  0.44601  0.00000  0.10798
      23     H     0.45396  0.45396  0.00000  0.09207

   Total alpha = 36.00000, Total beta = 36.00000, Total charge = -0.00000

*** Psi4 exiting successfully. Buy a developer a beer!
