  ==> Input File <==

--------------------------------------------------------------------------
set {
	reference rhf
	basis cc-pvtz
}

set_num_threads( 4 )
memory 2 gb

molecule MOL {
0 1

H	 0.149570	 -3.064734	 4.293561
C	 0.496171	 -2.550252	 3.418752
C	 -0.063221	 -2.816253	 2.176916
C	 1.501920	 -1.616301	 3.508635
H	 -0.849210	 -3.542006	 2.087268
C	 0.377826	 -2.159404	 1.053507
H	 1.946970	 -1.397042	 4.460762
C	 1.959335	 -0.943684	 2.384016
H	 -0.047619	 -2.357547	 0.089450
C	 1.395260	 -1.216051	 1.151249
H	 2.743455	 -0.222622	 2.487391
O	 1.760432	 -0.625184	 0.000000
C	 2.773565	 0.334879	 0.000000
H	 2.728295	 0.960928	 -0.884150
H	 3.706387	 -0.206610	 0.000000
H	 2.728295	 0.960928	 0.884150

	symmetry c1
}
set optking {
	frozen_dihedral = ("
		10 12 13 14
	")
}

ee = optimize('scf')
oeprop('DIPOLE', 'QUADRUPOLE', 'MULLIKEN_CHARGES')
f=open( 'psi4out.xyz', 'w' )
f.write( "16  " )
f.write( str(ee) + "\n" )
f.write( MOL.save_string_xyz() )
f.close()
--------------------------------------------------------------------------

    Molecular point group: c1
  Charge       = 0
  Multiplicity = 1
  Basis Set: CC-PVTZ
  Basis Set:
  @DF-RHF Final Energy:  -344.70006479340788
    Total Energy =                       -344.7000647934079325
    Molecular point group: c1
  Basis Set: CC-PVTZ
  Basis Set:
  Basis Set: CC-PVTZ
  Basis Set:
  @DF-RHF Final Energy:  -344.70186341338592
    Total Energy =                       -344.7018634133860360
  Basis Set: CC-PVTZ
  Basis Set:
  Basis Set: CC-PVTZ
  Basis Set:
  @DF-RHF Final Energy:  -344.70278228667530
    Total Energy =                       -344.7027822866751308
  Basis Set: CC-PVTZ
  Basis Set:
  Basis Set: CC-PVTZ
  Basis Set:
  @DF-RHF Final Energy:  -344.70284753753123
    Total Energy =                       -344.7028475375312269
  Basis Set: CC-PVTZ
  Basis Set:
  Basis Set: CC-PVTZ
  Basis Set:
  @DF-RHF Final Energy:  -344.70285782719333
    Total Energy =                       -344.7028578271933839
  Basis Set: CC-PVTZ
  Basis Set:
  Charge       = 0
  Multiplicity = 1
  Basis Set: CC-PVTZ
  Basis Set:

    Orbital Energies (a.u.)
    -----------------------

    Doubly Occupied:

       1A    -20.579268     2A    -11.293423     3A    -11.278275
       4A    -11.231284     5A    -11.230007     6A    -11.221910
       7A    -11.218058     8A    -11.217117     9A     -1.418617
      10A     -1.150971    11A     -1.025415    12A     -1.016720
      13A     -0.943931    14A     -0.834787    15A     -0.808388
      16A     -0.725675    17A     -0.667616    18A     -0.666662
      19A     -0.659740    20A     -0.618950    21A     -0.590560
      22A     -0.580448    23A     -0.527826    24A     -0.522881
      25A     -0.512156    26A     -0.480307    27A     -0.465269
      28A     -0.339709    29A     -0.310435

  @DF-RHF Final Energy:  -344.70285881088444

   => Energetics <=

    Nuclear Repulsion Energy =            348.8195389057052580
    One-Electron Energy =               -1158.7719871918072840
    Two-Electron Energy =                 465.2495894752177037
    DFT Exchange-Correlation Energy =       0.0000000000000000
    Empirical Dispersion Energy =           0.0000000000000000
    PCM Polarization Energy =               0.0000000000000000
    EFP Energy =                            0.0000000000000000
    Total Energy =                       -344.7028588108843223
    Molecular point group: c1
  Basis Set: CC-PVTZ
  Basis Set:

  -Total Gradient:
     Atom            X                  Y                   Z
    ------   -----------------  -----------------  -----------------
       1       -0.000010941622    -0.000010000357    -0.000010802496
       2        0.000081423079     0.000094530997     0.000075794852
       3        0.000007996457    -0.000016417787    -0.000168264598
       4       -0.000081768590    -0.000110760866     0.000048759325
       5       -0.000009555765    -0.000000441898     0.000011189517
       6       -0.000095907313    -0.000148229235     0.000106545952
       7        0.000009093263     0.000012498194    -0.000013677804
       8        0.000021336416    -0.000007662816    -0.000205788059
       9       -0.000001201059     0.000013436225     0.000000818255
      10       -0.001701667540     0.001585450498     0.000072365710
      11        0.000021337274     0.000048471531    -0.000017139922
      12        0.002163407490    -0.001765847995     0.000196266359
      13        0.001383448432    -0.001135791642    -0.000967373470
      14       -0.001805074949     0.001386438528     0.000836081658
      15        0.000014721549     0.000046778287    -0.000023233543
      16        0.000003352879     0.000007548340     0.000058458262

  **** Optimization is complete! (in 6 steps) ****
    Final optimized geometry and variables:
    Molecular point group: c1

    Geometry (in Angstrom), charge = 0, multiplicity = 1:

    H           -1.266314247482    -1.587708439622     2.655935192505
    C           -0.881054892040    -1.107662360858     1.777691579348
    C           -1.448811148481    -1.351825286933     0.535662075765
    C            0.185264464676    -0.242335373137     1.863809331867
    H           -2.280692035670    -2.024959066378     0.449522321991
    C           -0.960159526544    -0.736870900539    -0.592454977024
    H            0.641194942720    -0.045424141366     2.815659581338
    C            0.692593532247     0.383737822580     0.734445836853
    H           -1.392626784038    -0.917226919128    -1.556872458922
    C            0.114806553323     0.139656767586    -0.497897722478
    H            1.531264831318     1.042477500381     0.830040964917
    O            0.539778913885     0.681193144445    -1.653537597378
    C            1.402156312371     1.780694506086    -1.637510445447
    H            1.321400706461     2.250511958675    -2.605572859625
    H            2.428650350638     1.478460395143    -1.463123529693
    H            1.109488217495     2.502384457805    -0.884233286676

  Mulliken Charges: (a.u.)
   Center  Symbol    Alpha    Beta     Spin     Total
       1     H     0.42440  0.42440  0.00000  0.15120
       2     C     3.10041  3.10041  0.00000 -0.20082
       3     C     3.05834  3.05834  0.00000 -0.11668
       4     C     3.06211  3.06211  0.00000 -0.12423
       5     H     0.42296  0.42296  0.00000  0.15408
       6     C     3.11081  3.11081  0.00000 -0.22162
       7     H     0.42340  0.42340  0.00000  0.15320
       8     C     3.14086  3.14086  0.00000 -0.28173
       9     H     0.42060  0.42060  0.00000  0.15880
      10     C     2.85240  2.85240  0.00000  0.29521
      11     H     0.42285  0.42285  0.00000  0.15431
      12     O     4.15323  4.15323  0.00000 -0.30646
      13     C     3.04351  3.04351  0.00000 -0.08702
      14     H     0.44036  0.44036  0.00000  0.11927
      15     H     0.45970  0.45970  0.00000  0.08061
      16     H     0.46407  0.46407  0.00000  0.07187

   Total alpha = 29.00000, Total beta = 29.00000, Total charge =  0.00000
