  ==> Input File <==

--------------------------------------------------------------------------
set {
	reference rhf
	basis 6-31G*
}

set_num_threads( 1 )
memory 2 gb

molecule MOL {
0 1

O	 -2.439739	 -0.935931	 -0.423848
C	 -1.921153	 0.064240	 -0.045697
C	 -2.624470	 1.379923	 0.150949
O	 -0.632575	 0.154573	 0.251549
H	 -2.168117	 2.136577	 -0.476876
H	 -3.669540	 1.273223	 -0.098610
H	 -2.519365	 1.700893	 1.180846
C	 0.160891	 -1.019931	 0.106212
C	 1.589627	 -0.672828	 0.480843
H	 0.089836	 -1.367806	 -0.916050
H	 -0.238459	 -1.792301	 0.749618
C	 2.555691	 -0.653873	 -0.705227
H	 1.923213	 -1.406596	 1.211759
H	 1.597004	 0.292329	 0.980519
C	 3.989145	 -0.327470	 -0.288488
H	 2.534654	 -1.622793	 -1.200050
H	 2.214408	 0.073461	 -1.434521
H	 4.653908	 -0.319154	 -1.146424
H	 4.370373	 -1.059303	 0.418168
H	 4.047188	 0.649011	 0.183947

	symmetry c1
}
set optking {
	frozen_dihedral = ("
		16 12 9 8,
		2 4 8 10,
		1 2 4 8
	")
}

ee = energy('scf')
oeprop('DIPOLE', 'QUADRUPOLE', 'MULLIKEN_CHARGES')
f=open( 'psi4out.xyz', 'w' )
f.write( "20  " )
f.write( str(ee) + "\n" )
f.write( MOL.save_string_xyz() )
f.close()
--------------------------------------------------------------------------

    Molecular point group: c1

    Geometry (in Angstrom), charge = 0, multiplicity = 1:

       Center              X                  Y                   Z               Mass
    ------------   -----------------  -----------------  -----------------  -----------------
           O         -2.515468044945    -0.688602895723    -0.364194822220    15.994914619560
           C         -1.996882044945     0.311568104277     0.013956177780    12.000000000000
           C         -2.700199044945     1.627251104277     0.210602177780    12.000000000000
           O         -0.708304044945     0.401901104277     0.311202177780    15.994914619560
           H         -2.243846044945     2.383905104277    -0.417222822220     1.007825032070
           H         -3.745269044945     1.520551104277    -0.038956822220     1.007825032070
           H         -2.595094044945     1.948221104277     1.240499177780     1.007825032070
           C          0.085161955055    -0.772602895723     0.165865177780    12.000000000000
           C          1.513897955055    -0.425499895723     0.540496177780    12.000000000000
           H          0.014106955055    -1.120477895723    -0.856396822220     1.007825032070
           H         -0.314188044945    -1.544972895723     0.809271177780     1.007825032070
           C          2.479961955055    -0.406544895723    -0.645573822220    12.000000000000
           H          1.847483955055    -1.159267895723     1.271412177780     1.007825032070
           H          1.521274955055     0.539657104277     1.040172177780     1.007825032070
           C          3.913415955055    -0.080141895723    -0.228834822220    12.000000000000
           H          2.458924955055    -1.375464895723    -1.140396822220     1.007825032070
           H          2.138678955055     0.320789104277    -1.374867822220     1.007825032070
           H          4.578178955055    -0.071825895723    -1.086770822220     1.007825032070
           H          4.294643955055    -0.811974895723     0.477821177780     1.007825032070
           H          3.971458955055     0.896339104277     0.243600177780     1.007825032070

  Charge       = 0
  Multiplicity = 1
  Basis Set: 6-31G*
  Basis Set:

    Orbital Energies (a.u.)
    -----------------------

    Doubly Occupied:

       1A    -20.600925     2A    -20.543401     3A    -11.373533
       4A    -11.280804     5A    -11.232939     6A    -11.224106
       7A    -11.222823     8A    -11.214571     9A     -1.467164
      10A     -1.361480    11A     -1.086831    12A     -1.028952
      13A     -0.980974    14A     -0.880635    15A     -0.807673
      16A     -0.781001    17A     -0.689072    18A     -0.681208
      19A     -0.667457    20A     -0.632315    21A     -0.602388
      22A     -0.592763    23A     -0.570661    24A     -0.554015
      25A     -0.544708    26A     -0.523003    27A     -0.513754
      28A     -0.481752    29A     -0.479513    30A     -0.475884
      31A     -0.446397    32A     -0.436716

  @DF-RHF Final Energy:  -383.94001984587607

   => Energetics <=

    Nuclear Repulsion Energy =            381.1668204040865362
    One-Electron Energy =               -1278.2548055351576295
    Two-Electron Energy =                 513.1479652851949140
    DFT Exchange-Correlation Energy =       0.0000000000000000
    Empirical Dispersion Energy =           0.0000000000000000
    PCM Polarization Energy =               0.0000000000000000
    EFP Energy =                            0.0000000000000000
    Total Energy =                       -383.9400198458761224

  Mulliken Charges: (a.u.)
   Center  Symbol    Alpha    Beta     Spin     Total
       1     O     4.28361  4.28361  0.00000 -0.56722
       2     C     2.61981  2.61981  0.00000  0.76037
       3     C     3.28154  3.28154  0.00000 -0.56308
       4     O     4.30968  4.30968  0.00000 -0.61937
       5     H     0.40075  0.40075  0.00000  0.19851
       6     H     0.39701  0.39701  0.00000  0.20598
       7     H     0.40076  0.40076  0.00000  0.19848
       8     C     3.00194  3.00194  0.00000 -0.00388
       9     C     3.16881  3.16881  0.00000 -0.33761
      10     H     0.40803  0.40803  0.00000  0.18394
      11     H     0.40900  0.40900  0.00000  0.18201
      12     C     3.15786  3.15786  0.00000 -0.31572
      13     H     0.41798  0.41798  0.00000  0.16403
      14     H     0.40557  0.40557  0.00000  0.18887
      15     C     3.24090  3.24090  0.00000 -0.48180
      16     H     0.42102  0.42102  0.00000  0.15796
      17     H     0.41779  0.41779  0.00000  0.16442
      18     H     0.41728  0.41728  0.00000  0.16543
      19     H     0.42059  0.42059  0.00000  0.15881
      20     H     0.42007  0.42007  0.00000  0.15986

   Total alpha = 32.00000, Total beta = 32.00000, Total charge =  0.00000
