  ==> Input File <==

--------------------------------------------------------------------------
set {
	reference rhf
	basis 6-31G*
}

set_num_threads( 1 )
memory 2 gb

molecule MOL {
0 1

H	 -2.422942	 1.093368	 2.608294
C	 -2.366356	 0.298073	 1.890684
C	 -1.285264	 0.151781	 1.160041
H	 -3.206245	 -0.363255	 1.789971
O	 -1.180634	 -0.819263	 0.215062
H	 -0.430683	 0.798839	 1.250605
C	 0.051604	 -1.018856	 -0.387932
C	 1.043764	 0.054862	 -0.001873
H	 -0.017620	 -1.041351	 -1.469781
H	 0.437898	 -1.966374	 -0.042284
F	 2.212596	 -0.199467	 -0.571921
F	 0.652529	 1.252447	 -0.405055
F	 1.230877	 0.110694	 1.300533

	symmetry c1
}
set optking {
	frozen_dihedral = ("
		11 8 7 9,
		6 3 2 1,
		6 3 5 7
	")
}

ee = energy('scf')
oeprop('DIPOLE', 'QUADRUPOLE', 'MULLIKEN_CHARGES')
f=open( 'psi4out.xyz', 'w' )
f.write( "13  " )
f.write( str(ee) + "\n" )
f.write( MOL.save_string_xyz() )
f.close()
--------------------------------------------------------------------------

    Molecular point group: c1

    Geometry (in Angstrom), charge = 0, multiplicity = 1:

       Center              X                  Y                   Z               Mass
    ------------   -----------------  -----------------  -----------------  -----------------
           H         -2.602064002910     1.082704747644     2.245781483974     1.007825032070
           C         -2.545478002910     0.287409747644     1.528171483974    12.000000000000
           C         -1.464386002910     0.141117747644     0.797528483974    12.000000000000
           H         -3.385367002910    -0.373918252356     1.427458483974     1.007825032070
           O         -1.359756002910    -0.829926252356    -0.147450516026    15.994914619560
           H         -0.609805002910     0.788175747644     0.888092483974     1.007825032070
           C         -0.127518002910    -1.029519252356    -0.750444516026    12.000000000000
           C          0.864641997090     0.044198747644    -0.364385516026    12.000000000000
           H         -0.196742002910    -1.052014252356    -1.832293516026     1.007825032070
           H          0.258775997090    -1.977037252356    -0.404796516026     1.007825032070
           F          2.033473997090    -0.210130252356    -0.934433516026    18.998403224000
           F          0.473406997090     1.241783747644    -0.767567516026    18.998403224000
           F          1.051754997090     0.100030747644     0.938020483974    18.998403224000

  Charge       = 0
  Multiplicity = 1
  Basis Set: 6-31G*
  Basis Set:

    Orbital Energies (a.u.)
    -----------------------

    Doubly Occupied:

       1A    -26.360559     2A    -26.356838     3A    -26.355028
       4A    -20.603258     5A    -11.517751     6A    -11.320472
       7A    -11.284880     8A    -11.205218     9A     -1.759740
      10A     -1.659389    11A     -1.652552    12A     -1.435968
      13A     -1.083107    14A     -1.018253    15A     -0.935806
      16A     -0.868179    17A     -0.847407    18A     -0.835923
      19A     -0.761652    20A     -0.734379    21A     -0.722448
      22A     -0.711504    23A     -0.689275    24A     -0.663597
      25A     -0.661200    26A     -0.659385    27A     -0.646802
      28A     -0.581552    29A     -0.553203    30A     -0.526823
      31A     -0.496721    32A     -0.341675

  @DF-RHF Final Energy:  -527.50714532794223

   => Energetics <=

    Nuclear Repulsion Energy =            425.6495411847982382
    One-Electron Energy =               -1574.6125445850486813
    Two-Electron Energy =                 621.4558580723075920
    DFT Exchange-Correlation Energy =       0.0000000000000000
    Empirical Dispersion Energy =           0.0000000000000000
    PCM Polarization Energy =               0.0000000000000000
    EFP Energy =                            0.0000000000000000
    Total Energy =                       -527.5071453279429079

  Mulliken Charges: (a.u.)
   Center  Symbol    Alpha    Beta     Spin     Total
       1     H     0.40878  0.40878  0.00000  0.18243
       2     C     3.24594  3.24594  0.00000 -0.49188
       3     C     2.90464  2.90464  0.00000  0.19072
       4     H     0.40646  0.40646  0.00000  0.18707
       5     O     4.31565  4.31565  0.00000 -0.63131
       6     H     0.37825  0.37825  0.00000  0.24349
       7     C     3.01318  3.01318  0.00000 -0.02637
       8     C     2.49509  2.49509  0.00000  1.00983
       9     H     0.39766  0.39766  0.00000  0.20468
      10     H     0.40114  0.40114  0.00000  0.19771
      11     F     4.68088  4.68088  0.00000 -0.36175
      12     F     4.67743  4.67743  0.00000 -0.35485
      13     F     4.67489  4.67489  0.00000 -0.34977

   Total alpha = 32.00000, Total beta = 32.00000, Total charge =  0.00000
