  ==> Input File <==

--------------------------------------------------------------------------
set {
	reference rhf
	basis 6-31G*
}

set_num_threads( 4 )
memory 2 gb

molecule MOL {
0 1

H	 -3.881984	 -1.737857	 0.915855
C	 -2.812911	 -1.624031	 0.946033
C	 -2.115058	 -1.952208	 2.098617
C	 -2.137409	 -1.149771	 -0.167389
H	 -2.640157	 -2.319910	 2.961421
C	 -0.740454	 -1.805581	 2.136658
H	 -2.680054	 -0.895885	 -1.059961
C	 -0.761433	 -1.002184	 -0.131599
H	 -0.184115	 -2.054567	 3.019927
C	 -0.059123	 -1.330222	 1.022054
H	 -0.234633	 -0.635533	 -0.990883
C	 1.421622	 -1.190569	 1.114520
O	 1.970282	 -0.730723	 0.000018
O	 2.056347	 -1.461528	 2.085377
C	 3.377318	 -0.566646	 -0.000065
H	 3.695437	 -0.028981	 -0.881264
H	 3.789299	 -1.563704	 0.000236
H	 3.695516	 -0.028316	 0.880770

	symmetry c1
}
set optking {
	frozen_dihedral = ("
		12 13 15 16
	")
}

ee = optimize('scf')
oeprop('DIPOLE', 'QUADRUPOLE', 'MULLIKEN_CHARGES')
f=open( 'psi4out.xyz', 'w' )
f.write( "18  " )
f.write( str(ee) + "\n" )
f.write( MOL.save_string_xyz() )
f.close()
--------------------------------------------------------------------------

    Molecular point group: c1
  Charge       = 0
  Multiplicity = 1
  Basis Set: 6-31G*
  Basis Set:
  @DF-RHF Final Energy:  -457.34892724087757
    Total Energy =                       -457.3489272408780835
    Molecular point group: c1
  Basis Set: 6-31G*
  Basis Set:
  Basis Set: 6-31G*
  Basis Set:
  @DF-RHF Final Energy:  -457.35015565767247
    Total Energy =                       -457.3501556576727580
  Basis Set: 6-31G*
  Basis Set:
  Basis Set: 6-31G*
  Basis Set:
  @DF-RHF Final Energy:  -457.34989533321738
    Total Energy =                       -457.3498953332175461
  Basis Set: 6-31G*
  Basis Set:
  Basis Set: 6-31G*
  Basis Set:
  @DF-RHF Final Energy:  -457.35049428315830
    Total Energy =                       -457.3504942831579001
  Basis Set: 6-31G*
  Basis Set:
  Charge       = 0
  Multiplicity = 1
  Basis Set: 6-31G*
  Basis Set:

    Orbital Energies (a.u.)
    -----------------------

    Doubly Occupied:

       1A    -20.607632     2A    -20.544411     3A    -11.377997
       4A    -11.282868     5A    -11.245483     6A    -11.245226
       7A    -11.244063     8A    -11.241639     9A    -11.237418
      10A    -11.236657    11A     -1.472640    12A     -1.364022
      13A     -1.165237    14A     -1.048095    15A     -1.024761
      16A     -0.978261    17A     -0.860148    18A     -0.834265
      19A     -0.777737    20A     -0.739921    21A     -0.683368
      22A     -0.677409    23A     -0.671863    24A     -0.631061
      25A     -0.623896    26A     -0.597749    27A     -0.584649
      28A     -0.562018    29A     -0.528806    30A     -0.516591
      31A     -0.503430    32A     -0.498866    33A     -0.459111
      34A     -0.444371    35A     -0.344810    36A     -0.340933

  @DF-RHF Final Energy:  -457.35049515466756

   => Energetics <=

    Nuclear Repulsion Energy =            493.0023523875023557
    One-Electron Energy =               -1600.3108753329372576
    Two-Electron Energy =                 649.9580277907674599
    DFT Exchange-Correlation Energy =       0.0000000000000000
    Empirical Dispersion Energy =           0.0000000000000000
    PCM Polarization Energy =               0.0000000000000000
    EFP Energy =                            0.0000000000000000
    Total Energy =                       -457.3504951546675557
    Molecular point group: c1
  Basis Set: 6-31G*
  Basis Set:

  -Total Gradient:
     Atom            X                  Y                   Z
    ------   -----------------  -----------------  -----------------
       1        0.000001197906     0.000001269138    -0.000001065415
       2       -0.000002187604    -0.000004588016     0.000004958019
       3        0.000004433936     0.000015054484     0.000001069117
       4        0.000018670233    -0.000006731690    -0.000010084211
       5        0.000008832369     0.000000331909     0.000001582483
       6        0.000043045908    -0.000002338753     0.000001531688
       7        0.000006984407     0.000002371282    -0.000001486674
       8        0.000030376161     0.000004039725     0.000024205083
       9        0.000003205623    -0.000005547400     0.000008822567
      10        0.000040406191     0.000003386433    -0.000031574343
      11        0.000021117422     0.000012599343    -0.000020153293
      12        0.000055320893     0.000795045915     0.000276768239
      13        0.000049911121    -0.000917499586    -0.000409914625
      14       -0.000105297303    -0.000035573016     0.000123378152
      15        0.000096318427    -0.000710754372    -0.000445845716
      16       -0.000132924329     0.000854768524     0.000466511071
      17       -0.000078910437    -0.000022954228    -0.000004964712
      18       -0.000060500931     0.000017120306     0.000016262577

  **** Optimization is complete! (in 5 steps) ****
    Final optimized geometry and variables:
    Molecular point group: c1

    Geometry (in Angstrom), charge = 0, multiplicity = 1:

    H           -4.031245432410    -0.453547505996     0.011000027568
    C           -2.961600934282    -0.345993984518     0.042521033111
    C           -2.266913342798    -0.679829072784     1.195449044607
    C           -2.282202984541     0.125822640325    -1.069547144140
    H           -2.795024973975    -1.045734203485     2.057218998772
    C           -0.891572817271    -0.541450323055     1.235157093971
    H           -2.822407147652     0.384060003231    -1.962330947217
    C           -0.905448341456     0.265447422074    -1.031962794466
    H           -0.337714506710    -0.795059402446     2.118646622091
    C           -0.206367322465    -0.068320923047     0.121982447410
    H           -0.375748515170     0.630162465714    -1.890284228949
    C            1.275056169397     0.062909308606     0.216526597889
    O            1.826683332103     0.517409270834    -0.898628146691
    O            1.906111944169    -0.211028621341     1.189004849738
    C            3.232201201873     0.693285459407    -0.896348434376
    H            3.463563031874     1.227994367120    -1.804350484358
    H            3.730640161229    -0.265672636580    -0.884898493224
    H            3.541453330772     1.267387680393    -0.036175184690

  Mulliken Charges: (a.u.)
   Center  Symbol    Alpha    Beta     Spin     Total
       1     H     0.39541  0.39541  0.00000  0.20919
       2     C     3.08999  3.08999  0.00000 -0.17999
       3     C     3.10713  3.10713  0.00000 -0.21425
       4     C     3.10717  3.10717  0.00000 -0.21434
       5     H     0.39538  0.39538  0.00000  0.20923
       6     C     3.08640  3.08640  0.00000 -0.17280
       7     H     0.39628  0.39628  0.00000  0.20745
       8     C     3.08712  3.08712  0.00000 -0.17425
       9     H     0.37596  0.37596  0.00000  0.24809
      10     C     3.07720  3.07720  0.00000 -0.15440
      11     H     0.38043  0.38043  0.00000  0.23914
      12     C     2.57962  2.57962  0.00000  0.84077
      13     O     4.31490  4.31490  0.00000 -0.62980
      14     O     4.29182  4.29182  0.00000 -0.58363
      15     C     3.09290  3.09290  0.00000 -0.18580
      16     H     0.40813  0.40813  0.00000  0.18375
      17     H     0.40934  0.40934  0.00000  0.18133
      18     H     0.40484  0.40484  0.00000  0.19032

   Total alpha = 36.00000, Total beta = 36.00000, Total charge =  0.00000
