  ==> Input File <==

--------------------------------------------------------------------------
set {
	reference rhf
	basis cc-pvtz
}

set_num_threads( 4 )
memory 2 gb

molecule MOL {
0 1

H	 -2.514061	 1.384744	 1.918068
O	 -1.634952	 1.275935	 2.233949
C	 -0.729447	 1.545644	 1.208793
C	 -0.793473	 0.591216	 0.050087
H	 0.258195	 1.501978	 1.652594
H	 -0.856821	 2.560219	 0.835815
C	 -1.534243	 -0.493009	 -0.013340
H	 -0.160487	 0.852264	 -0.782037
H	 -1.101195	 -1.466332	 -0.144046
H	 -2.604242	 -0.437780	 0.050785

	symmetry c1
}
set optking {
	frozen_dihedral = ("
		3 4 7 9
	")
}

ee = optimize('scf')
oeprop('DIPOLE', 'QUADRUPOLE', 'MULLIKEN_CHARGES')
f=open( 'psi4out.xyz', 'w' )
f.write( "10  " )
f.write( str(ee) + "\n" )
f.write( MOL.save_string_xyz() )
f.close()
--------------------------------------------------------------------------

    Molecular point group: c1
  Charge       = 0
  Multiplicity = 1
  Basis Set: CC-PVTZ
  Basis Set:
  @DF-RHF Final Energy:  -191.91591625539201
    Total Energy =                       -191.9159162553919487
    Molecular point group: c1
  Basis Set: CC-PVTZ
  Basis Set:
  Basis Set: CC-PVTZ
  Basis Set:
  @DF-RHF Final Energy:  -191.94201212549220
    Total Energy =                       -191.9420121254922549
  Basis Set: CC-PVTZ
  Basis Set:
  Basis Set: CC-PVTZ
  Basis Set:
  @DF-RHF Final Energy:  -191.95839103504710
    Total Energy =                       -191.9583910350471854
  Basis Set: CC-PVTZ
  Basis Set:
  Basis Set: CC-PVTZ
  Basis Set:
  @DF-RHF Final Energy:  -191.96485200923831
    Total Energy =                       -191.9648520092383706
  Basis Set: CC-PVTZ
  Basis Set:
  @DF-RHF Final Energy:  -191.96506859026701
    Total Energy =                       -191.9650685902669807
  @DF-RHF Final Energy:  -191.96509210565316
    Total Energy =                       -191.9650921056530137
  @DF-RHF Final Energy:  -191.96425730173553
    Total Energy =                       -191.9642573017356142
  @DF-RHF Final Energy:  -191.93210883287722
    Total Energy =                       -191.9321088328770770
  @DF-RHF Final Energy:  -191.96088038344294
    Total Energy =                       -191.9608803834429978
  @DF-RHF Final Energy:  -191.96473361166920
    Total Energy =                       -191.9647336116692031
  @DF-RHF Final Energy:  -191.96497886562736
    Total Energy =                       -191.9649788656274154
  @DF-RHF Final Energy:  -191.96505737807470
    Total Energy =                       -191.9650573780745901
  @DF-RHF Final Energy:  -191.92814204564107
    Total Energy =                       -191.9281420456410387
  @DF-RHF Final Energy:  -191.93671407517468
    Total Energy =                       -191.9367140751746774
  @DF-RHF Final Energy:  -191.96019260547234
    Total Energy =                       -191.9601926054723720
  @DF-RHF Final Energy:  -191.96468083166064
    Total Energy =                       -191.9646808316606155
  @DF-RHF Final Energy:  -191.96506046499138
    Total Energy =                       -191.9650604649914385
  @DF-RHF Final Energy:  -191.96508556986805
    Total Energy =                       -191.9650855698679948
  @DF-RHF Final Energy:  -191.96509001716794
    Total Energy =                       -191.9650900171678245
  @DF-RHF Final Energy:  -191.96509057464473
    Total Energy =                       -191.9650905746448757
  @DF-RHF Final Energy:  -191.96509047713420
    Total Energy =                       -191.9650904771340834
  @DF-RHF Final Energy:  -191.96509073139563
    Total Energy =                       -191.9650907313956623
  @DF-RHF Final Energy:  -191.96509034982628
    Total Energy =                       -191.9650903498261414
  @DF-RHF Final Energy:  -191.96509064863082
    Total Energy =                       -191.9650906486308486
  @DF-RHF Final Energy:  -191.96509051600967
    Total Energy =                       -191.9650905160095249
  @DF-RHF Final Energy:  -191.96509037367258
    Total Energy =                       -191.9650903736725525
  @DF-RHF Final Energy:  -191.96508878165474
    Total Energy =                       -191.9650887816547993
  @DF-RHF Final Energy:  -191.96509043473503
    Total Energy =                       -191.9650904347349467
  @DF-RHF Final Energy:  -191.96509005079002
    Total Energy =                       -191.9650900507900815
  @DF-RHF Final Energy:  -191.96509029610871
    Total Energy =                       -191.9650902961085421
  @DF-RHF Final Energy:  -191.96509037702958
    Total Energy =                       -191.9650903770295258
  @DF-RHF Final Energy:  -191.96509032731160
    Total Energy =                       -191.9650903273115432
  @DF-RHF Final Energy:  -191.96509007383025
    Total Energy =                       -191.9650900738303108
  @DF-RHF Final Energy:  -191.96509011081037
    Total Energy =                       -191.9650901108103653
  @DF-RHF Final Energy:  -191.96508705776745
    Total Energy =                       -191.9650870577674766
  @DF-RHF Final Energy:  -191.96509008878064
    Total Energy =                       -191.9650900887806699
  Basis Set: CC-PVTZ
  Basis Set:
  @DF-RHF Final Energy:  -191.96509020678093
    Total Energy =                       -191.9650902067810136
  Basis Set: CC-PVTZ
  Basis Set:
  Basis Set: CC-PVTZ
  Basis Set:
  @DF-RHF Final Energy:  -191.96509013159780
    Total Energy =                       -191.9650901315977194
  Basis Set: CC-PVTZ
  Basis Set:
  Basis Set: CC-PVTZ
  Basis Set:
  @DF-RHF Final Energy:  -191.96508995269377
    Total Energy =                       -191.9650899526938588
  Basis Set: CC-PVTZ
  Basis Set:
  Charge       = 0
  Multiplicity = 1
  Basis Set: CC-PVTZ
  Basis Set:

    Orbital Energies (a.u.)
    -----------------------

    Doubly Occupied:

       1A    -20.556672     2A    -11.285937     3A    -11.234330
       4A    -11.216511     5A     -1.376530     6A     -1.063434
       7A     -0.933435     8A     -0.772304     9A     -0.693834
      10A     -0.656058    11A     -0.623318    12A     -0.579851
      13A     -0.539450    14A     -0.489171    15A     -0.456385
      16A     -0.353630

  @DF-RHF Final Energy:  -191.96508926421274

   => Energetics <=

    Nuclear Repulsion Energy =            118.8509065160115910
    One-Electron Energy =                -495.9702931237688972
    Two-Electron Energy =                 185.1542973435446129
    DFT Exchange-Correlation Energy =       0.0000000000000000
    Empirical Dispersion Energy =           0.0000000000000000
    PCM Polarization Energy =               0.0000000000000000
    EFP Energy =                            0.0000000000000000
    Total Energy =                       -191.9650892642126792
    Molecular point group: c1
  Basis Set: CC-PVTZ
  Basis Set:

  -Total Gradient:
     Atom            X                  Y                   Z
    ------   -----------------  -----------------  -----------------
       1       -0.000632159997     0.000221091660    -0.000149587650
       2        0.000543363035    -0.000324440686     0.000403199366
       3        0.023445509288    -0.013710723337     0.005521535871
       4       -0.036415008634     0.019282248035     0.004629833960
       5        0.000034352705    -0.000065117263     0.000347023452
       6        0.000164084923     0.000569149296    -0.000095544302
       7        0.004673501238     0.001692410961    -0.044864642754
       8       -0.000174223966    -0.000262869088     0.000227186193
       9        0.008468255160    -0.007611449351     0.034318382397
      10       -0.000107673750     0.000209699775    -0.000337386529

    Molecular point group: c1

    Geometry (in Angstrom), charge = 0, multiplicity = 1:

    H           -1.301159349985     0.893403160162     1.016433314343
    O           -0.476409752749     0.546785239816     1.305329910048
    C            0.490054537397     0.730222221527     0.317331919798
    C            0.335429756988    -0.124014206157    -0.915271997666
    H            1.433517780332     0.417448031139     0.745116577105
    H            0.588815057361     1.784588343226     0.064769773556
    C           -0.277752179182    -1.288539393295    -1.023512851018
    H            1.174511302291     0.040194161719    -1.579510576845
    H            0.212016798648    -2.192663319902    -1.337905407116
    H           -1.068485550753    -1.496446102029    -0.319074365158

  Mulliken Charges: (a.u.)
   Center  Symbol    Alpha    Beta     Spin     Total
       1     H     0.39119  0.39119  0.00000  0.21762
       2     O     4.19676  4.19676  0.00000 -0.39351
       3     C     2.95411  2.95411  0.00000  0.09178
       4     C     3.08792  3.08792  0.00000 -0.17585
       5     H     0.44843  0.44843  0.00000  0.10315
       6     H     0.46333  0.46333  0.00000  0.07335
       7     C     3.16202  3.16202  0.00000 -0.32403
       8     H     0.43361  0.43361  0.00000  0.13279
       9     H     0.42311  0.42311  0.00000  0.15379
      10     H     0.43954  0.43954  0.00000  0.12091

   Total alpha = 16.00000, Total beta = 16.00000, Total charge =  0.00000
