  ==> Input File <==

--------------------------------------------------------------------------
set {
	reference rhf
	basis 6-31G*
}

set_num_threads( 1 )
memory 2 gb

molecule MOL {
0 1

O	 -1.058565	 2.355791	 1.285384
C	 -1.118979	 1.876311	 0.194108
C	 0.109202	 1.263966	 -0.456209
C	 -2.417608	 1.824104	 -0.579334
C	 0.379448	 -0.143569	 0.099626
H	 0.953535	 1.908156	 -0.236155
H	 -0.011030	 1.220438	 -1.534947
C	 1.631333	 -0.777471	 -0.511575
H	 0.476419	 -0.068834	 1.176843
H	 -0.478460	 -0.785323	 -0.095034
C	 2.915987	 -0.544314	 0.291766
H	 1.766672	 -0.399098	 -1.523130
H	 1.471257	 -1.849544	 -0.605828
C	 3.373361	 0.914346	 0.347591
H	 3.708709	 -1.142521	 -0.150311
H	 2.780642	 -0.921148	 1.303579
H	 3.506512	 1.320010	 -0.651625
H	 4.322697	 0.999599	 0.867103
H	 2.660624	 1.545032	 0.868198
H	 -2.343557	 2.455923	 -1.460576
H	 -3.232629	 2.168582	 0.041841
H	 -2.618586	 0.814354	 -0.925479

	symmetry c1
}
set optking {
	frozen_dihedral = ("
		6 3 2 1,
		6 3 5 8,
		12 8 11 15
	")
}

ee = energy('scf')
oeprop('DIPOLE', 'QUADRUPOLE', 'MULLIKEN_CHARGES')
f=open( 'psi4out.xyz', 'w' )
f.write( "22  " )
f.write( str(ee) + "\n" )
f.write( MOL.save_string_xyz() )
f.close()
--------------------------------------------------------------------------

    Molecular point group: c1

    Geometry (in Angstrom), charge = 0, multiplicity = 1:

       Center              X                  Y                   Z               Mass
    ------------   -----------------  -----------------  -----------------  -----------------
           O         -1.537122175986     1.497247632708     1.195616522176    15.994914619560
           C         -1.597536175986     1.017767632708     0.104340522176    12.000000000000
           C         -0.369355175986     0.405422632708    -0.545976477824    12.000000000000
           C         -2.896165175986     0.965560632708    -0.669101477824    12.000000000000
           C         -0.099109175986    -1.002112367292     0.009858522176    12.000000000000
           H          0.474977824014     1.049612632708    -0.325922477824     1.007825032070
           H         -0.489587175986     0.361894632708    -1.624714477824     1.007825032070
           C          1.152775824014    -1.636014367292    -0.601342477824    12.000000000000
           H         -0.002138175986    -0.927377367292     1.087075522176     1.007825032070
           H         -0.957017175986    -1.643866367292    -0.184801477824     1.007825032070
           C          2.437429824014    -1.402857367292     0.201998522176    12.000000000000
           H          1.288114824014    -1.257641367292    -1.612897477824     1.007825032070
           H          0.992699824014    -2.708087367292    -0.695595477824     1.007825032070
           C          2.894803824014     0.055802632708     0.257823522176    12.000000000000
           H          3.230151824014    -2.001064367292    -0.240078477824     1.007825032070
           H          2.302084824014    -1.779691367292     1.213811522176     1.007825032070
           H          3.027954824014     0.461466632708    -0.741392477824     1.007825032070
           H          3.844139824014     0.141055632708     0.777335522176     1.007825032070
           H          2.182066824014     0.686488632708     0.778430522176     1.007825032070
           H         -2.822114175986     1.597379632708    -1.550343477824     1.007825032070
           H         -3.711186175986     1.310038632708    -0.047926477824     1.007825032070
           H         -3.097143175986    -0.044189367292    -1.015246477824     1.007825032070

  Charge       = 0
  Multiplicity = 1
  Basis Set: 6-31G*
  Basis Set:

    Orbital Energies (a.u.)
    -----------------------

    Doubly Occupied:

       1A    -20.546853     2A    -11.323623     3A    -11.228792
       4A    -11.227707     5A    -11.227392     6A    -11.221260
       7A    -11.219590     8A    -11.210798     9A     -1.392666
      10A     -1.096877    11A     -1.041217    12A     -0.998016
      13A     -0.942099    14A     -0.855145    15A     -0.785757
      16A     -0.733952    17A     -0.659515    18A     -0.650139
      19A     -0.626654    20A     -0.611574    21A     -0.598204
      22A     -0.583437    23A     -0.557502    24A     -0.548751
      25A     -0.530320    26A     -0.524082    27A     -0.501666
      28A     -0.486550    29A     -0.469693    30A     -0.463464
      31A     -0.453374    32A     -0.394879

  @DF-RHF Final Energy:  -348.09269013355657

   => Energetics <=

    Nuclear Repulsion Energy =            380.9985226265941378
    One-Electron Energy =               -1226.7594113034626844
    Two-Electron Energy =                 497.6681985433112914
    DFT Exchange-Correlation Energy =       0.0000000000000000
    Empirical Dispersion Energy =           0.0000000000000000
    PCM Polarization Energy =               0.0000000000000000
    EFP Energy =                            0.0000000000000000
    Total Energy =                       -348.0926901335571984

  Mulliken Charges: (a.u.)
   Center  Symbol    Alpha    Beta     Spin     Total
       1     O     4.26321  4.26321  0.00000 -0.52642
       2     C     2.73681  2.73681  0.00000  0.52639
       3     C     3.20397  3.20397  0.00000 -0.40794
       4     C     3.28954  3.28954  0.00000 -0.57907
       5     C     3.16588  3.16588  0.00000 -0.33176
       6     H     0.39777  0.39777  0.00000  0.20446
       7     H     0.41674  0.41674  0.00000  0.16652
       8     C     3.15617  3.15617  0.00000 -0.31233
       9     H     0.40455  0.40455  0.00000  0.19089
      10     H     0.41809  0.41809  0.00000  0.16383
      11     C     3.15174  3.15174  0.00000 -0.30347
      12     H     0.42229  0.42229  0.00000  0.15543
      13     H     0.41752  0.41752  0.00000  0.16496
      14     C     3.24631  3.24631  0.00000 -0.49262
      15     H     0.42044  0.42044  0.00000  0.15913
      16     H     0.42041  0.42041  0.00000  0.15918
      17     H     0.42305  0.42305  0.00000  0.15391
      18     H     0.41694  0.41694  0.00000  0.16612
      19     H     0.41449  0.41449  0.00000  0.17102
      20     H     0.40706  0.40706  0.00000  0.18588
      21     H     0.39725  0.39725  0.00000  0.20549
      22     H     0.40979  0.40979  0.00000  0.18042

   Total alpha = 32.00000, Total beta = 32.00000, Total charge = -0.00000
