  ==> Input File <==

--------------------------------------------------------------------------
set {
	reference rhf
	basis cc-pvtz
}

set_num_threads( 4 )
memory 2 gb

molecule MOL {
0 1

H	 2.462485	 -2.216993	 0.000000
O	 2.777472	 -1.330706	 0.000000
C	 1.763288	 -0.447523	 0.000000
C	 1.280538	 -0.027129	 -1.230992
C	 1.204733	 0.038884	 1.162662
H	 1.729233	 -0.417867	 -2.122706
C	 0.243906	 0.875602	 -1.292801
H	 1.557162	 -0.268022	 2.125419
C	 0.166096	 0.943362	 1.063052
H	 -0.122635	 1.194798	 -2.248578
C	 -0.333488	 1.378415	 -0.138791
N	 -0.423563	 1.456855	 2.304594
H	 -1.138562	 2.079499	 -0.171346
O	 0.026943	 1.064541	 3.329390
O	 -1.313850	 2.232144	 2.209653

	symmetry c1
}
set optking {
	frozen_dihedral = ("
		4 3 2 1
	")
}

ee = optimize('scf')
oeprop('DIPOLE', 'QUADRUPOLE', 'MULLIKEN_CHARGES')
f=open( 'psi4out.xyz', 'w' )
f.write( "15  " )
f.write( str(ee) + "\n" )
f.write( MOL.save_string_xyz() )
f.close()
--------------------------------------------------------------------------

    Molecular point group: c1
  Charge       = 0
  Multiplicity = 1
  Basis Set: CC-PVTZ
  Basis Set:
  @DF-RHF Final Energy:  -509.21363229953192
    Total Energy =                       -509.2136322995321507
    Molecular point group: c1
  Basis Set: CC-PVTZ
  Basis Set:
  Basis Set: CC-PVTZ
  Basis Set:
  @DF-RHF Final Energy:  -509.21442254520298
    Total Energy =                       -509.2144225452029787
  Basis Set: CC-PVTZ
  Basis Set:
  Basis Set: CC-PVTZ
  Basis Set:
  @DF-RHF Final Energy:  -509.19918223060188
    Total Energy =                       -509.1991822306024460
  Basis Set: CC-PVTZ
  Basis Set:
  Basis Set: CC-PVTZ
  Basis Set:
  @DF-RHF Final Energy:  -509.21415004751645
    Total Energy =                       -509.2141500475163411
  Basis Set: CC-PVTZ
  Basis Set:
  Basis Set: CC-PVTZ
  Basis Set:
  @DF-RHF Final Energy:  -509.21463813695874
    Total Energy =                       -509.2146381369591381
  Basis Set: CC-PVTZ
  Basis Set:
  Basis Set: CC-PVTZ
  Basis Set:
  @DF-RHF Final Energy:  -509.21464761502097
    Total Energy =                       -509.2146476150209082
  Basis Set: CC-PVTZ
  Basis Set:
  Charge       = 0
  Multiplicity = 1
  Basis Set: CC-PVTZ
  Basis Set:

    Orbital Energies (a.u.)
    -----------------------

    Doubly Occupied:

       1A    -20.594188     2A    -20.593659     3A    -20.593542
       4A    -15.849714     5A    -11.318794     6A    -11.307143
       7A    -11.264880     8A    -11.263728     9A    -11.262927
      10A    -11.261311    11A     -1.643336    12A     -1.425707
      13A     -1.423012    14A     -1.203057    15A     -1.095242
      16A     -1.048626    17A     -0.964949    18A     -0.870046
      19A     -0.836989    20A     -0.797325    21A     -0.742996
      22A     -0.740746    23A     -0.724821    24A     -0.711951
      25A     -0.685209    26A     -0.645135    27A     -0.628190
      28A     -0.570020    29A     -0.558027    30A     -0.533072
      31A     -0.515643    32A     -0.493923    33A     -0.487708
      34A     -0.459240    35A     -0.380217    36A     -0.361664

  @DF-RHF Final Energy:  -509.21465039861926

   => Energetics <=

    Nuclear Repulsion Energy =            504.0052614667355328
    One-Electron Energy =               -1694.7263469435752086
    Two-Electron Energy =                 681.5064350782200790
    DFT Exchange-Correlation Energy =       0.0000000000000000
    Empirical Dispersion Energy =           0.0000000000000000
    PCM Polarization Energy =               0.0000000000000000
    EFP Energy =                            0.0000000000000000
    Total Energy =                       -509.2146503986194830
    Molecular point group: c1
  Basis Set: CC-PVTZ
  Basis Set:

  -Total Gradient:
     Atom            X                  Y                   Z
    ------   -----------------  -----------------  -----------------
       1        0.000000708684    -0.000000530012    -0.000118011063
       2        0.000022713787    -0.000059755571     0.000119144303
       3        0.000021339805     0.000126480692     0.000300056564
       4       -0.000225207149     0.000092077959    -0.000155135192
       5        0.000201212577    -0.000193453208    -0.000139714199
       6        0.000010902029     0.000001961638     0.000018171634
       7        0.000150058303    -0.000181197201    -0.000139433277
       8       -0.000003342783     0.000009431308    -0.000003534759
       9       -0.000195489084     0.000143777021    -0.000159098404
      10       -0.000015242528     0.000020638171     0.000003855397
      11        0.000032781406     0.000019419040     0.000244754281
      12        0.000087468031     0.000031802654    -0.000065069838
      13        0.000006614241    -0.000012000845    -0.000028974195
      14       -0.000127112013     0.000074284280    -0.000019515908
      15        0.000032594702    -0.000072935928     0.000142504662

  **** Optimization is complete! (in 7 steps) ****
    Final optimized geometry and variables:
    Molecular point group: c1

    Geometry (in Angstrom), charge = 0, multiplicity = 1:

    H            1.962190903537    -2.831555850565    -0.777483800134
    O            2.261262188689    -1.938651508239    -0.771867735715
    C            1.211106789585    -1.071792120128    -0.829372558927
    C            0.733346039639    -0.642358439524    -2.054163745881
    C            0.663797425919    -0.584503152819     0.338426117744
    H            1.184645623837    -1.021845778862    -2.950059713274
    C           -0.301226908110     0.270204603877    -2.114595518092
    H            1.037466135660    -0.899677060923     1.288693975353
    C           -0.367999979593     0.325643092132     0.247911723441
    H           -0.666930545747     0.599747420974    -3.067021827097
    C           -0.867099266334     0.766628214481    -0.956824525136
    N           -0.953615663627     0.842911696872     1.488509902100
    H           -1.666483048975     1.475001023422    -0.982814115515
    O           -0.516155325008     0.437912052616     2.512947278398
    O           -1.831066112025     1.633910971050     1.392364343139

  Mulliken Charges: (a.u.)
   Center  Symbol    Alpha    Beta     Spin     Total
       1     H     0.38612  0.38612  0.00000  0.22776
       2     O     4.18602  4.18602  0.00000 -0.37203
       3     C     2.86692  2.86692  0.00000  0.26616
       4     C     3.09798  3.09798  0.00000 -0.19595
       5     C     3.11104  3.11104  0.00000 -0.22208
       6     H     0.41142  0.41142  0.00000  0.17716
       7     C     3.06690  3.06690  0.00000 -0.13381
       8     H     0.39175  0.39175  0.00000  0.21650
       9     C     2.98017  2.98017  0.00000  0.03967
      10     H     0.41513  0.41513  0.00000  0.16974
      11     C     3.08540  3.08540  0.00000 -0.17080
      12     N     3.25027  3.25027  0.00000  0.49946
      13     H     0.39864  0.39864  0.00000  0.20273
      14     O     4.17582  4.17582  0.00000 -0.35163
      15     O     4.17644  4.17644  0.00000 -0.35287

   Total alpha = 36.00000, Total beta = 36.00000, Total charge = -0.00000
