                              Psi4 1.0.54 Driver

  ==> Input File <==

--------------------------------------------------------------------------
set {
	reference rhf
	basis cc-pvtz
}

set_num_threads( 4 )
memory 2 gb

molecule MOL {
0 1

H	 1.178933	 -0.823350	 1.140077
O	 1.338705	 -0.575488	 0.247055
C	 0.706474	 0.636793	 -0.025501
C	 -0.793473	 0.591216	 0.050087
H	 1.004558	 0.919504	 -1.028258
H	 1.068100	 1.420473	 0.637652
C	 -1.534243	 -0.493009	 -0.013340
H	 -1.266611	 1.552628	 0.164437
H	 -1.101195	 -1.466332	 -0.144046
H	 -2.604242	 -0.437780	 0.050785

	symmetry c1
}
set optking {
	frozen_dihedral = ("
		5 3 4 7
	")
}

ee,wfn = optimize('scf', return_wfn=True)
oeprop( wfn, 'DIPOLE', 'QUADRUPOLE', 'MULLIKEN_CHARGES')
f=open( 'psi4out.xyz', 'w' )
f.write( "10  " )
f.write( str(ee) + "\n" )
f.write( MOL.save_string_xyz() )
f.close()
--------------------------------------------------------------------------

    Molecular point group: c1
  Charge       = 0
  Multiplicity = 1
  Basis Set: CC-PVTZ
  Basis Set:
  @DF-RHF Final Energy:  -191.99810049736993
    Total Energy =                       -191.9981004973699896
    Molecular point group: c1
  Basis Set: CC-PVTZ
  Basis Set:
  Basis Set: CC-PVTZ
  Basis Set:
  @DF-RHF Final Energy:  -191.99828422198155
    Total Energy =                       -191.9982842219815780
  Basis Set: CC-PVTZ
  Basis Set:
  Basis Set: CC-PVTZ
  Basis Set:
  @DF-RHF Final Energy:  -191.99832453232727
    Total Energy =                       -191.9983245323271603
  Basis Set: CC-PVTZ
  Basis Set:
  Charge       = 0
  Multiplicity = 1
  Basis Set: CC-PVTZ
  Basis Set:

    Orbital Energies (a.u.)
    -----------------------

    Doubly Occupied:

       1A    -20.553301     2A    -11.277538     3A    -11.230355
       4A    -11.217591     5A     -1.373342     6A     -1.062188
       7A     -0.931010     8A     -0.773222     9A     -0.688956
      10A     -0.665474    11A     -0.618014    12A     -0.575693
      13A     -0.545194    14A     -0.491197    15A     -0.453169
      16A     -0.369694

  @DF-RHF Final Energy:  -191.99832550260859

   => Energetics <=

    Nuclear Repulsion Energy =            119.4950506431639781
    One-Electron Energy =                -497.3348730399161468
    Two-Electron Energy =                 185.8414968941436030
    DFT Exchange-Correlation Energy =       0.0000000000000000
    Empirical Dispersion Energy =           0.0000000000000000
    PCM Polarization Energy =               0.0000000000000000
    EFP Energy =                            0.0000000000000000
    Total Energy =                       -191.9983255026085942
    Molecular point group: c1
  Basis Set: CC-PVTZ
  Basis Set:

  -Total Gradient:
     Atom            X                  Y                   Z
    ------   -----------------  -----------------  -----------------
       1       -0.000005232379     0.000059650953    -0.000035602432
       2        0.000002999792     0.000002406270    -0.000068050985
       3       -0.000143288829     0.002742054326    -0.000292171906
       4        0.000222886343    -0.000685012261     0.003012151736
       5        0.000088507856    -0.002233225792    -0.000509190317
       6       -0.000002335288    -0.000012492993    -0.000008174015
       7       -0.000167016383     0.000097186707    -0.002080193295
       8       -0.000016401790     0.000009905389     0.000005616499
       9        0.000013216101     0.000008959356    -0.000010262879
      10        0.000006664578     0.000010568045    -0.000014122406

  **** Optimization is complete! (in 4 steps) ****
    Final optimized geometry and variables:
    Molecular point group: c1

    Geometry (in Angstrom), charge = 0, multiplicity = 1:

    H            1.152754652017    -0.824083473003     1.023318555013
    O            1.346302325822    -0.552714848536     0.143766135159
    C            0.685416193761     0.645721661534    -0.133120436604
    C           -0.813801137088     0.560182797276    -0.033194818430
    H            0.959810880205     0.902038151520    -1.149474700863
    H            1.045211338491     1.445106233674     0.510018005323
    C           -1.515249402146    -0.551918932871    -0.049422939166
    H           -1.322975802526     1.508379276969     0.015832435323
    H           -1.044007860868    -1.514021426401    -0.116809434231
    H           -2.587115535458    -0.532326640186     0.004199964804

  Mulliken Charges: (a.u.)
   Center  Symbol    Alpha    Beta     Spin     Total
       1     H     0.39164  0.39164  0.00000  0.21673
       2     O     4.20003  4.20003  0.00000 -0.40005
       3     C     2.95163  2.95163  0.00000  0.09674
       4     C     3.09087  3.09087  0.00000 -0.18174
       5     H     0.45231  0.45231  0.00000  0.09537
       6     H     0.46628  0.46628  0.00000  0.06744
       7     C     3.17458  3.17458  0.00000 -0.34917
       8     H     0.42312  0.42312  0.00000  0.15376
       9     H     0.42167  0.42167  0.00000  0.15665
      10     H     0.42787  0.42787  0.00000  0.14427

   Total alpha = 16.00000, Total beta = 16.00000, Total charge = -0.00000

*** Psi4 exiting successfully. Buy a developer a beer!
