  ==> Input File <==

--------------------------------------------------------------------------
set {
	reference rhf
	basis 6-31G*
}

set_num_threads( 1 )
memory 2 gb

molecule MOL {
0 1

H	 -3.420663	 1.227371	 -1.044276
O	 -3.452007	 0.283848	 -0.965577
C	 -3.181085	 -0.079926	 0.364119
C	 -1.765924	 0.277073	 0.805136
H	 -3.327791	 -1.152017	 0.410903
H	 -3.905698	 0.375695	 1.036898
C	 -1.599062	 1.747701	 1.189750
H	 -1.486183	 -0.356952	 1.646990
H	 -1.081780	 0.025795	 -0.003583
C	 -0.181295	 2.090183	 1.652162
H	 -2.309585	 1.994270	 1.972739
H	 -1.859609	 2.369259	 0.334663
C	 -0.020510	 3.565185	 2.029789
H	 0.076260	 1.459489	 2.499694
H	 0.526811	 1.843772	 0.861927
C	 1.404959	 3.977094	 2.415175
H	 -0.696151	 3.802037	 2.850220
H	 -0.340501	 4.176469	 1.188507
C	 1.928080	 3.331598	 3.699731
H	 1.430955	 5.057693	 2.533159
H	 2.080490	 3.746039	 1.593911
H	 1.265245	 3.535447	 4.536531
H	 2.909320	 3.720282	 3.954543
H	 2.020084	 2.254670	 3.605255

	symmetry c1
}
set optking {
	frozen_dihedral = ("
		20 16 13 17,
		17 13 10 7,
		13 10 7 11,
		11 7 4 3,
		1 2 3 5
	")
}

ee = energy('scf')
oeprop('DIPOLE', 'QUADRUPOLE', 'MULLIKEN_CHARGES')
f=open( 'psi4out.xyz', 'w' )
f.write( "24  " )
f.write( str(ee) + "\n" )
f.write( MOL.save_string_xyz() )
f.close()
--------------------------------------------------------------------------

    Molecular point group: c1

    Geometry (in Angstrom), charge = 0, multiplicity = 1:

       Center              X                  Y                   Z               Mass
    ------------   -----------------  -----------------  -----------------  -----------------
           H         -2.521809886128    -0.648212838684    -2.410301451544     1.007825032070
           O         -2.553153886128    -1.591735838684    -2.331602451544    15.994914619560
           C         -2.282231886128    -1.955509838684    -1.001906451544    12.000000000000
           C         -0.867070886128    -1.598510838684    -0.560889451544    12.000000000000
           H         -2.428937886128    -3.027600838684    -0.955122451544     1.007825032070
           H         -3.006844886128    -1.499888838684    -0.329127451544     1.007825032070
           C         -0.700208886128    -0.127882838684    -0.176275451544    12.000000000000
           H         -0.587329886128    -2.232535838684     0.280964548456     1.007825032070
           H         -0.182926886128    -1.849788838684    -1.369608451544     1.007825032070
           C          0.717558113872     0.214599161316     0.286136548456    12.000000000000
           H         -1.410731886128     0.118686161316     0.606713548456     1.007825032070
           H         -0.960755886128     0.493675161316    -1.031362451544     1.007825032070
           C          0.878343113872     1.689601161316     0.663763548456    12.000000000000
           H          0.975113113872    -0.416094838684     1.133668548456     1.007825032070
           H          1.425664113872    -0.031811838684    -0.504098451544     1.007825032070
           C          2.303812113872     2.101510161316     1.049149548456    12.000000000000
           H          0.202702113872     1.926453161316     1.484194548456     1.007825032070
           H          0.558352113872     2.300885161316    -0.177518451544     1.007825032070
           C          2.826933113872     1.456014161316     2.333705548456    12.000000000000
           H          2.329808113872     3.182109161316     1.167133548456     1.007825032070
           H          2.979343113872     1.870455161316     0.227885548456     1.007825032070
           H          2.164098113872     1.659863161316     3.170505548456     1.007825032070
           H          3.808173113872     1.844698161316     2.588517548456     1.007825032070
           H          2.918937113872     0.379086161316     2.239229548456     1.007825032070

  Charge       = 0
  Multiplicity = 1
  Basis Set: 6-31G*
  Basis Set:

    Orbital Energies (a.u.)
    -----------------------

    Doubly Occupied:

       1A    -20.551992     2A    -11.266505     3A    -11.221814
       4A    -11.217919     5A    -11.217468     6A    -11.216362
       7A    -11.215831     8A    -11.210026     9A     -1.358679
      10A     -1.093866    11A     -1.051676    12A     -0.987912
      13A     -0.918692    14A     -0.853495    15A     -0.800704
      16A     -0.781173    17A     -0.690293    18A     -0.656076
      19A     -0.623743    20A     -0.615663    21A     -0.598513
      22A     -0.587849    23A     -0.562767    24A     -0.536541
      25A     -0.530535    26A     -0.508593    27A     -0.492970
      28A     -0.487156    29A     -0.476120    30A     -0.463479
      31A     -0.458729    32A     -0.443532    33A     -0.423473

  @DF-RHF Final Energy:  -349.24589679217189

   => Energetics <=

    Nuclear Repulsion Energy =            383.4630134679529760
    One-Electron Energy =               -1233.1774530481825423
    Two-Electron Energy =                 500.4685427880581301
    DFT Exchange-Correlation Energy =       0.0000000000000000
    Empirical Dispersion Energy =           0.0000000000000000
    PCM Polarization Energy =               0.0000000000000000
    EFP Energy =                            0.0000000000000000
    Total Energy =                       -349.2458967921713793

  Mulliken Charges: (a.u.)
   Center  Symbol    Alpha    Beta     Spin     Total
       1     H     0.28135  0.28135  0.00000  0.43730
       2     O     4.37059  4.37059  0.00000 -0.74118
       3     C     2.99546  2.99546  0.00000  0.00909
       4     C     3.16814  3.16814  0.00000 -0.33627
       5     H     0.41427  0.41427  0.00000  0.17146
       6     H     0.43162  0.43162  0.00000  0.13676
       7     C     3.15750  3.15750  0.00000 -0.31501
       8     H     0.42259  0.42259  0.00000  0.15481
       9     H     0.41296  0.41296  0.00000  0.17408
      10     C     3.15309  3.15309  0.00000 -0.30618
      11     H     0.42154  0.42154  0.00000  0.15691
      12     H     0.43048  0.43048  0.00000  0.13905
      13     C     3.15266  3.15266  0.00000 -0.30533
      14     H     0.42031  0.42031  0.00000  0.15938
      15     H     0.42204  0.42204  0.00000  0.15592
      16     C     3.15258  3.15258  0.00000 -0.30515
      17     H     0.42421  0.42421  0.00000  0.15158
      18     H     0.42263  0.42263  0.00000  0.15474
      19     C     3.24136  3.24136  0.00000 -0.48273
      20     H     0.42069  0.42069  0.00000  0.15863
      21     H     0.42289  0.42289  0.00000  0.15422
      22     H     0.42228  0.42228  0.00000  0.15545
      23     H     0.41877  0.41877  0.00000  0.16246
      24     H     0.42001  0.42001  0.00000  0.15999

   Total alpha = 33.00000, Total beta = 33.00000, Total charge =  0.00000
