  ==> Input File <==

--------------------------------------------------------------------------
set {
	reference rhf
	basis cc-pvtz
}

set_num_threads( 4 )
memory 2 gb

molecule MOL {
0 1

H	 -0.844489	 2.156414	 -2.955886
O	 -1.284818	 1.476634	 -2.479536
C	 -0.691375	 1.303369	 -1.223373
C	 0.649713	 0.605461	 -1.333818
H	 -0.567397	 2.249812	 -0.706649
H	 -1.365792	 0.695943	 -0.636961
O	 1.172093	 0.457955	 -0.054438
H	 1.325118	 1.193647	 -1.957325
H	 0.518097	 -0.360522	 -1.816652
C	 2.395478	 -0.199028	 -0.000366
H	 2.505946	 -0.901710	 -0.823354
H	 3.174616	 0.545641	 -0.071768
H	 2.513730	 -0.742241	 0.934223

	symmetry c1
}
set optking {
	frozen_dihedral = ("
		4 7 10 13
	")
}

ee = optimize('scf')
oeprop('DIPOLE', 'QUADRUPOLE', 'MULLIKEN_CHARGES')
f=open( 'psi4out.xyz', 'w' )
f.write( "13  " )
f.write( str(ee) + "\n" )
f.write( MOL.save_string_xyz() )
f.close()
--------------------------------------------------------------------------

    Molecular point group: c1
  Charge       = 0
  Multiplicity = 1
  Basis Set: CC-PVTZ
  Basis Set:
  @DF-RHF Final Energy:  -268.05963093321867
    Total Energy =                       -268.0596309332188412
    Molecular point group: c1
  Basis Set: CC-PVTZ
  Basis Set:
  Basis Set: CC-PVTZ
  Basis Set:
  @DF-RHF Final Energy:  -268.06038937745524
    Total Energy =                       -268.0603893774555218
  Basis Set: CC-PVTZ
  Basis Set:
  Basis Set: CC-PVTZ
  Basis Set:
  @DF-RHF Final Energy:  -268.06054513541108
    Total Energy =                       -268.0605451354110187
  Basis Set: CC-PVTZ
  Basis Set:
  Charge       = 0
  Multiplicity = 1
  Basis Set: CC-PVTZ
  Basis Set:

    Orbital Energies (a.u.)
    -----------------------

    Doubly Occupied:

       1A    -20.554365     2A    -20.552702     3A    -11.269539
       4A    -11.267525     5A    -11.267198     6A     -1.389900
       7A     -1.368842     8A     -1.019609     9A     -0.914124
      10A     -0.842669    11A     -0.711778    12A     -0.675041
      13A     -0.661544    14A     -0.639399    15A     -0.597326
      16A     -0.572041    17A     -0.547539    18A     -0.491832
      19A     -0.482413    20A     -0.441413    21A     -0.422426

  @DF-RHF Final Energy:  -268.06054568236783

   => Energetics <=

    Nuclear Repulsion Energy =            190.3428229792820616
    One-Electron Energy =                -743.4282836804320596
    Two-Electron Energy =                 285.0249150187822238
    DFT Exchange-Correlation Energy =       0.0000000000000000
    Empirical Dispersion Energy =           0.0000000000000000
    PCM Polarization Energy =               0.0000000000000000
    EFP Energy =                            0.0000000000000000
    Total Energy =                       -268.0605456823677173
    Molecular point group: c1
  Basis Set: CC-PVTZ
  Basis Set:

  -Total Gradient:
     Atom            X                  Y                   Z
    ------   -----------------  -----------------  -----------------
       1       -0.000006769061     0.000005736583    -0.000018570104
       2        0.000033543349     0.000023385625     0.000000059065
       3       -0.000002891720    -0.000021027447     0.000038179699
       4       -0.001079551594    -0.002139946059     0.000136833883
       5       -0.000018406178     0.000018664690    -0.000003500669
       6        0.000022926818    -0.000002208799     0.000010891994
       7        0.001293863502     0.002370983870    -0.000493261643
       8        0.000010503207     0.000002147086     0.000054733651
       9       -0.000006263562     0.000003975539    -0.000028334114
      10        0.000963965695     0.001964797211     0.001490958664
      11       -0.000028137605     0.000003371543    -0.000005680873
      12       -0.000009804219     0.000015553934     0.000009650863
      13       -0.001172978631    -0.002245433774    -0.001191960413

  **** Optimization is complete! (in 4 steps) ****
    Final optimized geometry and variables:
    Molecular point group: c1

    Geometry (in Angstrom), charge = 0, multiplicity = 1:

    H           -1.305734092062     1.419730173987    -1.904134505574
    O           -1.739587831173     0.735297534645    -1.428473148611
    C           -1.137670950971     0.559298601101    -0.176620971642
    C            0.206713901298    -0.130027698755    -0.299012947627
    H           -1.017024562906     1.503845037270     0.344298027285
    H           -1.804271348847    -0.055819219892     0.410756564931
    O            0.731107128532    -0.288491300887     0.978648376987
    H            0.874191659137     0.469521663971    -0.920524000102
    H            0.078818493809    -1.091778099568    -0.789802544013
    C            1.964090833560    -0.932291673999     1.045501963180
    H            2.072124547838    -1.665813570735     0.251251314131
    H            2.784145043528    -0.223722670669     0.973322271205
    H            2.021723874749    -1.457720330981     1.988557256443

  Mulliken Charges: (a.u.)
   Center  Symbol    Alpha    Beta     Spin     Total
       1     H     0.39419  0.39419  0.00000  0.21161
       2     O     4.20210  4.20210  0.00000 -0.40420
       3     C     2.97427  2.97427  0.00000  0.05145
       4     C     2.96526  2.96526  0.00000  0.06948
       5     H     0.46659  0.46659  0.00000  0.06682
       6     H     0.45291  0.45291  0.00000  0.09418
       7     O     4.17802  4.17802  0.00000 -0.35603
       8     H     0.48290  0.48290  0.00000  0.03419
       9     H     0.46823  0.46823  0.00000  0.06353
      10     C     3.02958  3.02958  0.00000 -0.05916
      11     H     0.47266  0.47266  0.00000  0.05467
      12     H     0.46401  0.46401  0.00000  0.07198
      13     H     0.44926  0.44926  0.00000  0.10148

   Total alpha = 21.00000, Total beta = 21.00000, Total charge = -0.00000
