  ==> Input File <==

--------------------------------------------------------------------------
set {
	reference rhf
	basis 6-31G*
}

set_num_threads( 1 )
memory 2 gb

molecule MOL {
0 1

O	 -2.977467	 0.991479	 -0.759698
C	 -2.668563	 0.129746	 -0.000350
C	 -3.582613	 -0.417635	 1.065556
O	 -1.481751	 -0.454642	 0.000584
H	 -4.475989	 -0.806475	 0.591697
H	 -3.106170	 -1.194770	 1.644781
H	 -3.883860	 0.394611	 1.716238
C	 -0.334255	 0.388708	 0.000906
C	 0.891947	 -0.504646	 0.000751
H	 -0.365390	 1.025305	 -0.873475
H	 -0.365484	 1.024911	 0.875569
C	 2.191998	 0.301789	 0.000897
H	 0.855148	 -1.151283	 -0.871571
H	 0.855132	 -1.151660	 0.872805
C	 3.441114	 -0.581407	 0.000108
H	 2.215074	 0.954890	 -0.869742
H	 2.215465	 0.953923	 0.872248
C	 4.739576	 0.224112	 -0.001102
H	 3.419457	 -1.233487	 -0.870178
H	 3.420834	 -1.233096	 0.870717
H	 4.804918	 0.861552	 -0.878265
H	 5.606527	 -0.429058	 -0.001824
H	 4.806469	 0.861674	 0.875853

	symmetry c1
}
set optking {
	frozen_dihedral = ("
		13 9 8 10,
		2 4 8 10,
		16 12 9 13,
		19 15 12 16
	")
}

ee = energy('scf')
oeprop('DIPOLE', 'QUADRUPOLE', 'MULLIKEN_CHARGES')
f=open( 'psi4out.xyz', 'w' )
f.write( "23  " )
f.write( str(ee) + "\n" )
f.write( MOL.save_string_xyz() )
f.close()
--------------------------------------------------------------------------

    Molecular point group: c1

    Geometry (in Angstrom), charge = 0, multiplicity = 1:

       Center              X                  Y                   Z               Mass
    ------------   -----------------  -----------------  -----------------  -----------------
           O         -2.984792054205     0.976544910669    -0.795401692409    15.994914619560
           C         -2.675888054205     0.114811910669    -0.036053692409    12.000000000000
           C         -3.589938054205    -0.432569089331     1.029852307591    12.000000000000
           O         -1.489076054205    -0.469576089331    -0.035119692409    15.994914619560
           H         -4.483314054205    -0.821409089331     0.555993307591     1.007825032070
           H         -3.113495054205    -1.209704089331     1.609077307591     1.007825032070
           H         -3.891185054205     0.379676910669     1.680534307591     1.007825032070
           C         -0.341580054205     0.373773910669    -0.034797692409    12.000000000000
           C          0.884621945795    -0.519580089331    -0.034952692409    12.000000000000
           H         -0.372715054205     1.010370910669    -0.909178692409     1.007825032070
           H         -0.372809054205     1.009976910669     0.839865307591     1.007825032070
           C          2.184672945795     0.286854910669    -0.034806692409    12.000000000000
           H          0.847822945795    -1.166217089331    -0.907274692409     1.007825032070
           H          0.847806945795    -1.166594089331     0.837101307591     1.007825032070
           C          3.433788945795    -0.596341089331    -0.035595692409    12.000000000000
           H          2.207748945795     0.939955910669    -0.905445692409     1.007825032070
           H          2.208139945795     0.938988910669     0.836544307591     1.007825032070
           C          4.732250945795     0.209177910669    -0.036805692409    12.000000000000
           H          3.412131945795    -1.248421089331    -0.905881692409     1.007825032070
           H          3.413508945795    -1.248030089331     0.835013307591     1.007825032070
           H          4.797592945795     0.846617910669    -0.913968692409     1.007825032070
           H          5.599201945795    -0.443992089331    -0.037527692409     1.007825032070
           H          4.799143945795     0.846739910669     0.840149307591     1.007825032070

  Charge       = 0
  Multiplicity = 1
  Basis Set: 6-31G*
  Basis Set:

    Orbital Energies (a.u.)
    -----------------------

    Doubly Occupied:

       1A    -20.590594     2A    -20.545356     3A    -11.374557
       4A    -11.287688     5A    -11.231643     6A    -11.226164
       7A    -11.225397     8A    -11.222763     9A    -11.213872
      10A     -1.464112    11A     -1.361848    12A     -1.095281
      13A     -1.040744    14A     -1.004410    15A     -0.933517
      16A     -0.843153    17A     -0.804468    18A     -0.775191
      19A     -0.697049    20A     -0.682454    21A     -0.660550
      22A     -0.648154    23A     -0.611664    24A     -0.589598
      25A     -0.583364    26A     -0.571259    27A     -0.556086
      28A     -0.547943    29A     -0.515426    30A     -0.503456
      31A     -0.491413    32A     -0.478947    33A     -0.472630
      34A     -0.469246    35A     -0.448258    36A     -0.432668

  @DF-RHF Final Energy:  -422.96678904742447

   => Energetics <=

    Nuclear Repulsion Energy =            449.4569867726826828
    One-Electron Energy =               -1466.4457738516803147
    Two-Electron Energy =                 594.0219980315716839
    DFT Exchange-Correlation Energy =       0.0000000000000000
    Empirical Dispersion Energy =           0.0000000000000000
    PCM Polarization Energy =               0.0000000000000000
    EFP Energy =                            0.0000000000000000
    Total Energy =                       -422.9667890474258911

  Mulliken Charges: (a.u.)
   Center  Symbol    Alpha    Beta     Spin     Total
       1     O     4.27118  4.27118  0.00000 -0.54237
       2     C     2.61697  2.61697  0.00000  0.76606
       3     C     3.29194  3.29194  0.00000 -0.58389
       4     O     4.31669  4.31669  0.00000 -0.63338
       5     H     0.39697  0.39697  0.00000  0.20606
       6     H     0.40073  0.40073  0.00000  0.19854
       7     H     0.39815  0.39815  0.00000  0.20371
       8     C     2.99727  2.99727  0.00000  0.00547
       9     C     3.16445  3.16445  0.00000 -0.32890
      10     H     0.40468  0.40468  0.00000  0.19063
      11     H     0.42012  0.42012  0.00000  0.15975
      12     C     3.16068  3.16068  0.00000 -0.32136
      13     H     0.41064  0.41064  0.00000  0.17872
      14     H     0.41458  0.41458  0.00000  0.17084
      15     C     3.15157  3.15157  0.00000 -0.30313
      16     H     0.41983  0.41983  0.00000  0.16033
      17     H     0.42214  0.42214  0.00000  0.15572
      18     C     3.23992  3.23992  0.00000 -0.47984
      19     H     0.42056  0.42056  0.00000  0.15888
      20     H     0.42149  0.42149  0.00000  0.15702
      21     H     0.42051  0.42051  0.00000  0.15898
      22     H     0.41770  0.41770  0.00000  0.16460
      23     H     0.42122  0.42122  0.00000  0.15755

   Total alpha = 36.00000, Total beta = 36.00000, Total charge =  0.00000
