  ==> Input File <==

--------------------------------------------------------------------------
set {
	reference rhf
	basis cc-pvtz
}

set_num_threads( 4 )
memory 2 gb

molecule MOL {
0 1

H	 1.016463	 -0.874866	 0.615178
C	 0.943579	 -0.356903	 -0.350866
C	 0.062554	 0.862911	 -0.350953
O	 1.539167	 -0.764298	 -1.287059
C	 -1.339253	 0.577611	 0.196911
H	 0.022724	 1.259232	 -1.357351
H	 0.550524	 1.600968	 0.281686
C	 -1.813142	 -0.849710	 -0.061612
H	 -2.032833	 1.276441	 -0.256032
H	 -1.357249	 0.782269	 1.263793
H	 -1.839268	 -1.063526	 -1.124230
H	 -2.810118	 -1.001930	 0.334000
H	 -1.159274	 -1.579980	 0.402282

	symmetry c1
}
set optking {
	frozen_dihedral = ("
		6 3 5 9
	")
}

ee = optimize('scf')
oeprop('DIPOLE', 'QUADRUPOLE', 'MULLIKEN_CHARGES')
f=open( 'psi4out.xyz', 'w' )
f.write( "13  " )
f.write( str(ee) + "\n" )
f.write( MOL.save_string_xyz() )
f.close()
--------------------------------------------------------------------------

    Molecular point group: c1
  Charge       = 0
  Multiplicity = 1
  Basis Set: CC-PVTZ
  Basis Set:
  @DF-RHF Final Energy:  -231.06504322870606
    Total Energy =                       -231.0650432287060312
    Molecular point group: c1
  Basis Set: CC-PVTZ
  Basis Set:
  Basis Set: CC-PVTZ
  Basis Set:
  @DF-RHF Final Energy:  -231.06550305904906
    Total Energy =                       -231.0655030590489787
  Basis Set: CC-PVTZ
  Basis Set:
  Basis Set: CC-PVTZ
  Basis Set:
  @DF-RHF Final Energy:  -231.06178925950559
    Total Energy =                       -231.0617892595057015
  Basis Set: CC-PVTZ
  Basis Set:
  Basis Set: CC-PVTZ
  Basis Set:
  @DF-RHF Final Energy:  -231.06625765881395
    Total Energy =                       -231.0662576588139530
  Basis Set: CC-PVTZ
  Basis Set:
  Basis Set: CC-PVTZ
  Basis Set:
  @DF-RHF Final Energy:  -231.06640971885199
    Total Energy =                       -231.0664097188520145
  Basis Set: CC-PVTZ
  Basis Set:
  Basis Set: CC-PVTZ
  Basis Set:
  @DF-RHF Final Energy:  -231.06641954039159
    Total Energy =                       -231.0664195403915073
  Basis Set: CC-PVTZ
  Basis Set:
  Charge       = 0
  Multiplicity = 1
  Basis Set: CC-PVTZ
  Basis Set:

    Orbital Energies (a.u.)
    -----------------------

    Doubly Occupied:

       1A    -20.551711     2A    -11.321864     3A    -11.237253
       4A    -11.234588     5A    -11.220340     6A     -1.406666
       7A     -1.085379     8A     -0.973987     9A     -0.854321
      10A     -0.783275    11A     -0.671220    12A     -0.645364
      13A     -0.632017    14A     -0.602507    15A     -0.557884
      16A     -0.531803    17A     -0.513056    18A     -0.489852
      19A     -0.481937    20A     -0.412386

  @DF-RHF Final Energy:  -231.06642016290300

   => Energetics <=

    Nuclear Repulsion Energy =            174.5204287290387128
    One-Electron Energy =                -658.7588825691525471
    Two-Electron Energy =                 253.1720336772109476
    DFT Exchange-Correlation Energy =       0.0000000000000000
    Empirical Dispersion Energy =           0.0000000000000000
    PCM Polarization Energy =               0.0000000000000000
    EFP Energy =                            0.0000000000000000
    Total Energy =                       -231.0664201629028867
    Molecular point group: c1
  Basis Set: CC-PVTZ
  Basis Set:

  -Total Gradient:
     Atom            X                  Y                   Z
    ------   -----------------  -----------------  -----------------
       1        0.000024100387    -0.000007401311     0.000015022267
       2       -0.000040062950    -0.000019395740     0.000024099879
       3        0.000129570626    -0.007836088315    -0.003738208793
       4       -0.000008811031    -0.000000188045    -0.000013639492
       5        0.001221068839     0.006060311208     0.005880417004
       6       -0.000217670319     0.005664158660     0.002215256566
       7       -0.000027209152    -0.000022917379     0.000003598572
       8       -0.000019235590     0.000002426040    -0.000003711008
       9       -0.001078209353    -0.003835536779    -0.004389839139
      10       -0.000000514552    -0.000000714110    -0.000002218413
      11       -0.000001850194    -0.000002718959     0.000007507625
      12        0.000007979513    -0.000000225321     0.000000869102
      13        0.000010843777    -0.000001709948     0.000000845829

  **** Optimization is complete! (in 7 steps) ****
    Final optimized geometry and variables:
    Molecular point group: c1

    Geometry (in Angstrom), charge = 0, multiplicity = 1:

    H            1.280559727852    -0.649393831418     1.026745279342
    C            1.119599600066    -0.203759516988     0.036695327694
    C            0.175962082346     0.964567714009     0.007532616915
    O            1.688559065857    -0.636252366055    -0.905148969155
    C           -1.219205558925     0.682448317085     0.601032327890
    H            0.104765778447     1.356395196586    -0.997997734082
    H            0.648637970159     1.747103000780     0.598719411196
    C           -1.756521266630    -0.718288618350     0.299300287343
    H           -1.909985142554     1.387925911845     0.155762852192
    H           -1.217148214621     0.850345124800     1.671138410044
    H           -1.762853070450    -0.911993334061    -0.767570612419
    H           -2.772332367954    -0.819675673462     0.661724773531
    H           -1.164863893444    -1.494988164763     0.770127843693

  Mulliken Charges: (a.u.)
   Center  Symbol    Alpha    Beta     Spin     Total
       1     H     0.46244  0.46244  0.00000  0.07512
       2     C     2.90341  2.90341  0.00000  0.19317
       3     C     3.09080  3.09080  0.00000 -0.18160
       4     O     4.16638  4.16638  0.00000 -0.33276
       5     C     3.09937  3.09937  0.00000 -0.19874
       6     H     0.44081  0.44081  0.00000  0.11839
       7     H     0.44651  0.44651  0.00000  0.10698
       8     C     3.14898  3.14898  0.00000 -0.29796
       9     H     0.44565  0.44565  0.00000  0.10870
      10     H     0.44745  0.44745  0.00000  0.10509
      11     H     0.44625  0.44625  0.00000  0.10750
      12     H     0.44690  0.44690  0.00000  0.10620
      13     H     0.45504  0.45504  0.00000  0.08992

   Total alpha = 20.00000, Total beta = 20.00000, Total charge = -0.00000
