  ==> Input File <==

--------------------------------------------------------------------------
set {
	reference rhf
	basis 6-31G*
}

set_num_threads( 4 )
memory 2 gb

molecule MOL {
0 1

O	 -0.988096	 -1.408613	 0.050699
C	 -0.676749	 -0.249230	 -0.009274
C	 -1.746085	 0.827156	 -0.009539
N	 0.623947	 0.147590	 -0.102813
H	 -1.701500	 1.431508	 -0.908902
H	 -2.703425	 0.330732	 0.036390
H	 -1.647323	 1.487769	 0.845106
C	 1.216786	 0.279994	 -1.419205
C	 1.561446	 0.116606	 0.998269
H	 1.874916	 1.141775	 -1.433901
H	 0.438992	 0.411991	 -2.151021
H	 1.799612	 -0.600632	 -1.680417
H	 2.277429	 0.920742	 0.876723
H	 1.066455	 0.261164	 1.945381
H	 2.113259	 -0.820894	 1.035801

	symmetry c1
}
set optking {
	frozen_dihedral = ("
		8 4 2 3
	")
}

ee = optimize('scf')
oeprop('DIPOLE', 'QUADRUPOLE', 'MULLIKEN_CHARGES')
f=open( 'psi4out.xyz', 'w' )
f.write( "15  " )
f.write( str(ee) + "\n" )
f.write( MOL.save_string_xyz() )
f.close()
--------------------------------------------------------------------------

    Molecular point group: c1
  Charge       = 0
  Multiplicity = 1
  Basis Set: 6-31G*
  Basis Set:
  @DF-RHF Final Energy:  -285.99497749878674
    Total Energy =                       -285.9949774987869660
    Molecular point group: c1
  Basis Set: 6-31G*
  Basis Set:
  Basis Set: 6-31G*
  Basis Set:
  @DF-RHF Final Energy:  -286.00246682622213
    Total Energy =                       -286.0024668262219620
  Basis Set: 6-31G*
  Basis Set:
  Basis Set: 6-31G*
  Basis Set:
  @DF-RHF Final Energy:  -286.00996177103212
    Total Energy =                       -286.0099617710320672
  Basis Set: 6-31G*
  Basis Set:
  Basis Set: 6-31G*
  Basis Set:
  @DF-RHF Final Energy:  -286.01175722625158
    Total Energy =                       -286.0117572262514045
  Basis Set: 6-31G*
  Basis Set:
  @DF-RHF Final Energy:  -286.01326451792875
    Total Energy =                       -286.0132645179288602
  @DF-RHF Final Energy:  -286.01343094341098
    Total Energy =                       -286.0134309434106399
  Basis Set: 6-31G*
  Basis Set:
  @DF-RHF Final Energy:  -286.01373762711205
    Total Energy =                       -286.0137376271120502
  Basis Set: 6-31G*
  Basis Set:
  Basis Set: 6-31G*
  Basis Set:
  @DF-RHF Final Energy:  -286.01379528388549
    Total Energy =                       -286.0137952838855426
  Basis Set: 6-31G*
  Basis Set:
  Basis Set: 6-31G*
  Basis Set:
  @DF-RHF Final Energy:  -286.01380176394900
    Total Energy =                       -286.0138017639492318
  Basis Set: 6-31G*
  Basis Set:
  Charge       = 0
  Multiplicity = 1
  Basis Set: 6-31G*
  Basis Set:

    Orbital Energies (a.u.)
    -----------------------

    Doubly Occupied:

       1A    -20.549464     2A    -15.567699     3A    -11.349003
       4A    -11.259881     5A    -11.244252     6A    -11.228760
       7A     -1.409366     8A     -1.234619     9A     -1.013327
      10A     -0.964340    11A     -0.899845    12A     -0.737116
      13A     -0.679736    14A     -0.657826    15A     -0.642620
      16A     -0.603177    17A     -0.583108    18A     -0.571762
      19A     -0.556326    20A     -0.536524    21A     -0.522657
      22A     -0.493883    23A     -0.425707    24A     -0.381132

  @DF-RHF Final Energy:  -286.01380223302192

   => Energetics <=

    Nuclear Repulsion Energy =            252.6030149202093753
    One-Electron Energy =                -889.0093748558379048
    Two-Electron Energy =                 350.3925577026066662
    DFT Exchange-Correlation Energy =       0.0000000000000000
    Empirical Dispersion Energy =           0.0000000000000000
    PCM Polarization Energy =               0.0000000000000000
    EFP Energy =                            0.0000000000000000
    Total Energy =                       -286.0138022330218632
    Molecular point group: c1
  Basis Set: 6-31G*
  Basis Set:

  -Total Gradient:
     Atom            X                  Y                   Z
    ------   -----------------  -----------------  -----------------
       1        0.000024857642     0.000000502437    -0.000042071005
       2        0.001605667681    -0.005039780347    -0.008744881444
       3       -0.000237911044     0.001962048137     0.006635940171
       4       -0.004689823378     0.008945732462     0.000321050440
       5       -0.000002001705     0.000003955447    -0.000007223538
       6        0.000009833093    -0.000006558969    -0.000006704705
       7        0.000005164588     0.000009008187    -0.000002593805
       8        0.003309021540    -0.005898824251     0.001863822684
       9       -0.000006704616     0.000012359618     0.000005866998
      10       -0.000003829843    -0.000000284195     0.000008857663
      11        0.000004327764     0.000000501761    -0.000002433854
      12        0.000002483151     0.000003738991    -0.000001819825
      13       -0.000003309690     0.000011477257    -0.000014031548
      14       -0.000015930578     0.000005419250    -0.000005270216
      15       -0.000001844604    -0.000009295786    -0.000008508015

  **** Optimization is complete! (in 10 steps) ****
    Final optimized geometry and variables:
    Molecular point group: c1

    Geometry (in Angstrom), charge = 0, multiplicity = 1:

    O           -0.780369979703    -1.269161824129     0.580191334075
    C           -0.669993121391    -0.179853385314     0.112669648639
    C           -1.866377703937     0.689971798302    -0.188005634661
    N            0.579742812153     0.471624534773    -0.035964510726
    H           -1.716870335141     1.312765869505    -1.061313881766
    H           -2.754212027826     0.084296760922    -0.304235465773
    H           -1.994627580333     1.353089541403     0.661906467358
    C            1.105080299040     0.335947555169    -1.392217095908
    C            1.565265978955     0.009137894086     0.935170162781
    H            1.983062074892     0.960760904825    -1.496023198115
    H            0.373449994587     0.668983561367    -2.119072837993
    H            1.378139727892    -0.692497594047    -1.622834537593
    H            2.438281352371     0.646542777659     0.861827365378
    H            1.161981585633     0.095561436271     1.934910596157
    H            1.865460626025    -1.022666459579     0.775473707796

  Mulliken Charges: (a.u.)
   Center  Symbol    Alpha    Beta     Spin     Total
       1     O     4.26267  4.26267  0.00000 -0.52534
       2     C     2.66755  2.66755  0.00000  0.66489
       3     C     3.27213  3.27213  0.00000 -0.54425
       4     N     3.80606  3.80606  0.00000 -0.61212
       5     H     0.41014  0.41014  0.00000  0.17972
       6     H     0.40112  0.40112  0.00000  0.19776
       7     H     0.39933  0.39933  0.00000  0.20134
       8     C     3.15628  3.15628  0.00000 -0.31256
       9     C     3.14686  3.14686  0.00000 -0.29372
      10     H     0.40824  0.40824  0.00000  0.18352
      11     H     0.41239  0.41239  0.00000  0.17522
      12     H     0.41671  0.41671  0.00000  0.16659
      13     H     0.41614  0.41614  0.00000  0.16772
      14     H     0.40903  0.40903  0.00000  0.18195
      15     H     0.41535  0.41535  0.00000  0.16930

   Total alpha = 24.00000, Total beta = 24.00000, Total charge =  0.00000
