  ==> Input File <==

--------------------------------------------------------------------------
set {
	reference rhf
	basis cc-pvtz
}

set_num_threads( 4 )
memory 2 gb

molecule MOL {
0 1

H	 2.147560	 1.989143	 -1.046949
N	 1.335985	 1.411586	 -1.104949
C	 1.263552	 0.494993	 0.021953
H	 1.391131	 0.911838	 -1.967821
C	 -0.016533	 -0.325589	 -0.026925
H	 1.274557	 1.086459	 0.931371
H	 2.119666	 -0.178848	 0.076639
C	 -1.280353	 0.525521	 0.047747
H	 -0.016686	 -0.912532	 -0.939714
H	 -0.014099	 -1.037598	 0.796369
C	 -2.560681	 -0.301323	 -0.007747
H	 -1.279957	 1.241025	 -0.770189
H	 -1.270445	 1.110526	 0.963468
H	 -2.617064	 -0.872870	 -0.928010
H	 -3.439525	 0.331102	 0.043462
H	 -2.609427	 -1.002736	 0.818585

	symmetry c1
}
set optking {
	frozen_dihedral = ("
		6 3 5 9
	")
}

ee = optimize('scf')
oeprop('DIPOLE', 'QUADRUPOLE', 'MULLIKEN_CHARGES')
f=open( 'psi4out.xyz', 'w' )
f.write( "16  " )
f.write( str(ee) + "\n" )
f.write( MOL.save_string_xyz() )
f.close()
--------------------------------------------------------------------------

    Molecular point group: c1
  Charge       = 0
  Multiplicity = 1
  Basis Set: CC-PVTZ
  Basis Set:
  @DF-RHF Final Energy:  -212.39951724496737
    Total Energy =                       -212.3995172449674556
    Molecular point group: c1
  Basis Set: CC-PVTZ
  Basis Set:
  Basis Set: CC-PVTZ
  Basis Set:
  @DF-RHF Final Energy:  -212.39970749453937
    Total Energy =                       -212.3997074945390864
  Basis Set: CC-PVTZ
  Basis Set:
  Basis Set: CC-PVTZ
  Basis Set:
  @DF-RHF Final Energy:  -212.39975782591051
    Total Energy =                       -212.3997578259105694
  Basis Set: CC-PVTZ
  Basis Set:
  Basis Set: CC-PVTZ
  Basis Set:
  @DF-RHF Final Energy:  -212.39976039152319
    Total Energy =                       -212.3997603915229888
  Basis Set: CC-PVTZ
  Basis Set:
  Charge       = 0
  Multiplicity = 1
  Basis Set: CC-PVTZ
  Basis Set:

    Orbital Energies (a.u.)
    -----------------------

    Doubly Occupied:

       1A    -15.527331     2A    -11.239016     3A    -11.208861
       4A    -11.203616     5A    -11.201268     6A     -1.179164
       7A     -1.054382     8A     -0.959277     9A     -0.846845
      10A     -0.783179    11A     -0.667481    12A     -0.628174
      13A     -0.610776    14A     -0.575644    15A     -0.563699
      16A     -0.518994    17A     -0.500556    18A     -0.467861
      19A     -0.462852    20A     -0.459896    21A     -0.382179

  @DF-RHF Final Energy:  -212.39976074247372

   => Energetics <=

    Nuclear Repulsion Energy =            189.0316012671575834
    One-Electron Energy =                -660.7806240230166850
    Two-Electron Energy =                 259.3492620133854416
    DFT Exchange-Correlation Energy =       0.0000000000000000
    Empirical Dispersion Energy =           0.0000000000000000
    PCM Polarization Energy =               0.0000000000000000
    EFP Energy =                            0.0000000000000000
    Total Energy =                       -212.3997607424736316
    Molecular point group: c1
  Basis Set: CC-PVTZ
  Basis Set:

  -Total Gradient:
     Atom            X                  Y                   Z
    ------   -----------------  -----------------  -----------------
       1        0.000015412922     0.000005507944    -0.000010748723
       2        0.000000047219    -0.000013963137     0.000025896689
       3       -0.000322819406     0.000500075734    -0.000320024449
       4       -0.000000959432     0.000001888543    -0.000020674037
       5       -0.000282793863     0.000499478772    -0.000335229952
       6        0.000296256957    -0.000490726722     0.000334420532
       7        0.000003129667     0.000011163872    -0.000020215908
       8        0.000024913444    -0.000035461000     0.000052733816
       9        0.000306068786    -0.000503624530     0.000310027119
      10       -0.000023198460    -0.000006471522     0.000006581161
      11       -0.000003240341     0.000008826512    -0.000004033748
      12        0.000005604706     0.000004700333    -0.000019206245
      13       -0.000015254179     0.000011842385     0.000003585142
      14        0.000005970896     0.000001978874     0.000005763651
      15       -0.000012577242    -0.000005843229    -0.000005633066
      16        0.000003438323     0.000010627171    -0.000003241981

  **** Optimization is complete! (in 5 steps) ****
    Final optimized geometry and variables:
    Molecular point group: c1

    Geometry (in Angstrom), charge = 0, multiplicity = 1:

    H            2.408783810324     1.615421581049    -0.802182641011
    N            1.603149621684     1.032824195072    -0.884609085429
    C            1.491739460040     0.128825785235     0.250203345081
    H            1.694514767946     0.521881384054    -1.738021223574
    C            0.200547004267    -0.679575179482     0.204693535064
    H            1.508557253132     0.725369314977     1.156450802191
    H            2.332030241271    -0.562127126824     0.318839630276
    C           -1.072370361699     0.157750964159     0.288038080923
    H            0.188192579155    -1.276301959742    -0.705976204775
    H            0.218229545109    -1.391296391149     1.026323375783
    C           -2.340407385386    -0.688285465828     0.237334895808
    H           -1.080204349005     0.880454956554    -0.517836234736
    H           -1.058648687563     0.730419040507     1.211922436458
    H           -2.400342209893    -1.248715152887    -0.690110556035
    H           -3.227671094746    -0.069116601743     0.305136696256
    H           -2.372569276122    -1.401748069628     1.054617153048

  Mulliken Charges: (a.u.)
   Center  Symbol    Alpha    Beta     Spin     Total
       1     H     0.42889  0.42889  0.00000  0.14223
       2     N     3.69010  3.69010  0.00000 -0.38021
       3     C     3.03750  3.03750  0.00000 -0.07501
       4     H     0.43083  0.43083  0.00000  0.13834
       5     C     3.08990  3.08990  0.00000 -0.17979
       6     H     0.45677  0.45677  0.00000  0.08646
       7     H     0.45988  0.45988  0.00000  0.08024
       8     C     3.07729  3.07729  0.00000 -0.15457
       9     H     0.45832  0.45832  0.00000  0.08336
      10     H     0.45250  0.45250  0.00000  0.09500
      11     C     3.15016  3.15016  0.00000 -0.30031
      12     H     0.44666  0.44666  0.00000  0.10668
      13     H     0.45860  0.45860  0.00000  0.08280
      14     H     0.45639  0.45639  0.00000  0.08723
      15     H     0.44896  0.44896  0.00000  0.10208
      16     H     0.45726  0.45726  0.00000  0.08548

   Total alpha = 21.00000, Total beta = 21.00000, Total charge = -0.00000
