                              Psi4 1.0.54 Driver

  ==> Input File <==

--------------------------------------------------------------------------
set {
	reference rhf
	basis cc-pvtz
}

set_num_threads( 4 )
memory 2 gb

molecule MOL {
0 1

H	 -2.306235	 -0.187698	 1.634978
O	 -1.915379	 0.653459	 1.785266
C	 -0.977029	 0.936790	 0.785585
C	 0.286396	 0.117797	 0.961084
H	 -1.386000	 0.766728	 -0.205350
H	 -0.738504	 1.987692	 0.865536
O	 1.172093	 0.457955	 -0.054438
H	 0.048610	 -0.946498	 0.920721
H	 0.716986	 0.318995	 1.939698
C	 2.395478	 -0.199028	 -0.000366
H	 2.505946	 -0.901710	 -0.823354
H	 3.174616	 0.545641	 -0.071768
H	 2.513730	 -0.742241	 0.934223

	symmetry c1
}
set optking {
	frozen_dihedral = ("
		4 7 10 13
	")
}

ee,wfn = optimize('scf', return_wfn=True)
oeprop( wfn, 'DIPOLE', 'QUADRUPOLE', 'MULLIKEN_CHARGES')
f=open( 'psi4out.xyz', 'w' )
f.write( "13  " )
f.write( str(ee) + "\n" )
f.write( MOL.save_string_xyz() )
f.close()
--------------------------------------------------------------------------

    Molecular point group: c1
  Charge       = 0
  Multiplicity = 1
  Basis Set: CC-PVTZ
  Basis Set:
  @DF-RHF Final Energy:  -268.05858656680562
    Total Energy =                       -268.0585865668057295
    Molecular point group: c1
  Basis Set: CC-PVTZ
  Basis Set:
  Basis Set: CC-PVTZ
  Basis Set:
  @DF-RHF Final Energy:  -268.05885259571284
    Total Energy =                       -268.0588525957129491
  Basis Set: CC-PVTZ
  Basis Set:
  Basis Set: CC-PVTZ
  Basis Set:
  @DF-RHF Final Energy:  -268.05894274849908
    Total Energy =                       -268.0589427484989073
  Basis Set: CC-PVTZ
  Basis Set:
  Charge       = 0
  Multiplicity = 1
  Basis Set: CC-PVTZ
  Basis Set:

    Orbital Energies (a.u.)
    -----------------------

    Doubly Occupied:

       1A    -20.552673     2A    -20.552538     3A    -11.269731
       4A    -11.267361     5A    -11.266929     6A     -1.387826
       7A     -1.368398     8A     -1.019416     9A     -0.914235
      10A     -0.842459    11A     -0.711244    12A     -0.673405
      13A     -0.660890    14A     -0.638524    15A     -0.597548
      16A     -0.571356    17A     -0.549212    18A     -0.491840
      19A     -0.482858    20A     -0.441107    21A     -0.419331

  @DF-RHF Final Energy:  -268.05894336052540

   => Energetics <=

    Nuclear Repulsion Energy =            190.1822446643959665
    One-Electron Energy =                -743.1246090800399315
    Two-Electron Energy =                 284.8834210551184469
    DFT Exchange-Correlation Energy =       0.0000000000000000
    Empirical Dispersion Energy =           0.0000000000000000
    PCM Polarization Energy =               0.0000000000000000
    EFP Energy =                            0.0000000000000000
    Total Energy =                       -268.0589433605255181
    Molecular point group: c1
  Basis Set: CC-PVTZ
  Basis Set:

  -Total Gradient:
     Atom            X                  Y                   Z
    ------   -----------------  -----------------  -----------------
       1        0.000001682206     0.000007545975     0.000000293810
       2       -0.000069577194     0.000021828433     0.000049304815
       3       -0.000000108969    -0.000053609118     0.000024104853
       4        0.000352024232     0.000835394915     0.000634871040
       5        0.000021374960     0.000009801497    -0.000000675479
       6       -0.000007986315    -0.000005067330    -0.000000955868
       7       -0.000608312308    -0.001618187304    -0.001111769408
       8        0.000002805683     0.000016623336     0.000005836981
       9        0.000005011174     0.000009416357    -0.000031216717
      10        0.000907189473     0.001930893683     0.001008684995
      11       -0.000016836927    -0.000001421046     0.000003688019
      12        0.000024271077    -0.000003070536     0.000001637245
      13       -0.000611537093    -0.001150148861    -0.000583804289

  **** Optimization is complete! (in 4 steps) ****
    Final optimized geometry and variables:
    Molecular point group: c1

    Geometry (in Angstrom), charge = 0, multiplicity = 1:

    H           -2.484248936228    -0.564446377207     0.935531507917
    O           -2.092099325408     0.277055833964     1.080402161866
    C           -1.152503772230     0.551731023606     0.079156033888
    C            0.109391509601    -0.267847966224     0.261707116418
    H           -1.561052258830     0.375524293715    -0.910842863517
    H           -0.911955346593     1.602722914312     0.151673519888
    O            0.995722107425     0.070838275193    -0.755065141221
    H           -0.132880873242    -1.331072610514     0.226785816937
    H            0.536732694475    -0.060967566170     1.239734187625
    C            2.237783193050    -0.564396016819    -0.728857430278
    H            2.315813488071    -1.267816653929    -1.551374049512
    H            3.020932540021     0.175940464804    -0.830390359899
    H            2.392218661151    -1.111196686289     0.195329053531

  Mulliken Charges: (a.u.)
   Center  Symbol    Alpha    Beta     Spin     Total
       1     H     0.39420  0.39420  0.00000  0.21160
       2     O     4.20211  4.20211  0.00000 -0.40422
       3     C     2.97515  2.97515  0.00000  0.04971
       4     C     2.96494  2.96494  0.00000  0.07013
       5     H     0.46688  0.46688  0.00000  0.06623
       6     H     0.45295  0.45295  0.00000  0.09409
       7     O     4.18024  4.18024  0.00000 -0.36048
       8     H     0.48205  0.48205  0.00000  0.03591
       9     H     0.46913  0.46913  0.00000  0.06174
      10     C     3.02749  3.02749  0.00000 -0.05498
      11     H     0.45979  0.45979  0.00000  0.08043
      12     H     0.45367  0.45367  0.00000  0.09266
      13     H     0.47141  0.47141  0.00000  0.05719

   Total alpha = 21.00000, Total beta = 21.00000, Total charge = -0.00000

*** Psi4 exiting successfully. Buy a developer a beer!
