  ==> Input File <==

--------------------------------------------------------------------------
set {
	reference rhf
	basis 6-31G*
}

set_num_threads( 1 )
memory 2 gb

molecule MOL {
0 1

H	 -3.819561	 1.116136	 -0.253279
C	 -3.153025	 0.434225	 0.238034
C	 -2.039235	 0.067880	 -0.352953
H	 -3.419878	 0.066852	 1.211038
O	 -1.180634	 -0.819263	 0.215062
H	 -1.750278	 0.429812	 -1.323883
C	 0.051604	 -1.018856	 -0.387932
C	 1.043764	 0.054862	 -0.001873
H	 -0.017620	 -1.041351	 -1.469781
H	 0.437898	 -1.966374	 -0.042284
F	 2.212596	 -0.199467	 -0.571921
F	 0.652529	 1.252447	 -0.405055
F	 1.230877	 0.110694	 1.300533

	symmetry c1
}
set optking {
	frozen_dihedral = ("
		11 8 7 9,
		6 3 2 1,
		6 3 5 7
	")
}

ee = energy('scf')
oeprop('DIPOLE', 'QUADRUPOLE', 'MULLIKEN_CHARGES')
f=open( 'psi4out.xyz', 'w' )
f.write( "13  " )
f.write( str(ee) + "\n" )
f.write( MOL.save_string_xyz() )
f.close()
--------------------------------------------------------------------------

    Molecular point group: c1

    Geometry (in Angstrom), charge = 0, multiplicity = 1:

       Center              X                  Y                   Z               Mass
    ------------   -----------------  -----------------  -----------------  -----------------
           H         -3.828560168410     1.099827104935    -0.266271149027     1.007825032070
           C         -3.162024168410     0.417916104935     0.225041850973    12.000000000000
           C         -2.048234168410     0.051571104935    -0.365945149027    12.000000000000
           H         -3.428877168410     0.050543104935     1.198045850973     1.007825032070
           O         -1.189633168410    -0.835571895065     0.202069850973    15.994914619560
           H         -1.759277168410     0.413503104935    -1.336875149027     1.007825032070
           C          0.042604831590    -1.035164895065    -0.400924149027    12.000000000000
           C          1.034764831590     0.038553104935    -0.014865149027    12.000000000000
           H         -0.026619168410    -1.057659895065    -1.482773149027     1.007825032070
           H          0.428898831590    -1.982682895065    -0.055276149027     1.007825032070
           F          2.203596831590    -0.215775895065    -0.584913149027    18.998403224000
           F          0.643529831590     1.236138104935    -0.418047149027    18.998403224000
           F          1.221877831590     0.094385104935     1.287540850973    18.998403224000

  Charge       = 0
  Multiplicity = 1
  Basis Set: 6-31G*
  Basis Set:

    Orbital Energies (a.u.)
    -----------------------

    Doubly Occupied:

       1A    -26.344960     2A    -26.344747     3A    -26.341035
       4A    -20.608165     5A    -11.503620     6A    -11.319003
       7A    -11.298779     8A    -11.215402     9A     -1.742395
      10A     -1.640561    11A     -1.638877    12A     -1.438145
      13A     -1.084027    14A     -1.016486    15A     -0.925834
      16A     -0.836878    17A     -0.831541    18A     -0.823162
      19A     -0.789708    20A     -0.722532    21A     -0.711570
      22A     -0.696758    23A     -0.675901    24A     -0.660822
      25A     -0.655176    26A     -0.643745    27A     -0.634292
      28A     -0.585734    29A     -0.562815    30A     -0.524047
      31A     -0.512672    32A     -0.351189

  @DF-RHF Final Energy:  -527.53581400028452

   => Energetics <=

    Nuclear Repulsion Energy =            414.3826940014566276
    One-Electron Energy =               -1552.4758353539075415
    Two-Electron Energy =                 610.5573273521665669
    DFT Exchange-Correlation Energy =       0.0000000000000000
    Empirical Dispersion Energy =           0.0000000000000000
    PCM Polarization Energy =               0.0000000000000000
    EFP Energy =                            0.0000000000000000
    Total Energy =                       -527.5358140002842902

  Mulliken Charges: (a.u.)
   Center  Symbol    Alpha    Beta     Spin     Total
       1     H     0.40709  0.40709  0.00000  0.18582
       2     C     3.23572  3.23572  0.00000 -0.47145
       3     C     2.89564  2.89564  0.00000  0.20873
       4     H     0.40204  0.40204  0.00000  0.19592
       5     O     4.30176  4.30176  0.00000 -0.60353
       6     H     0.40616  0.40616  0.00000  0.18768
       7     C     3.06426  3.06426  0.00000 -0.12853
       8     C     2.45626  2.45626  0.00000  1.08748
       9     H     0.40532  0.40532  0.00000  0.18936
      10     H     0.38904  0.38904  0.00000  0.22193
      11     F     4.68280  4.68280  0.00000 -0.36560
      12     F     4.67957  4.67957  0.00000 -0.35913
      13     F     4.67434  4.67434  0.00000 -0.34868

   Total alpha = 32.00000, Total beta = 32.00000, Total charge = -0.00000
