                              Psi4 1.0.54 Driver

  ==> Input File <==

--------------------------------------------------------------------------
set {
	reference rhf
	basis cc-pvtz
}

set_num_threads( 4 )
memory 2 gb

molecule MOL {
0 1

H	 -1.267710	 1.380451	 -1.958572
C	 -0.992181	 0.765941	 -1.127671
C	 -1.916281	 0.457748	 -0.078762
C	 0.238932	 0.256989	 -1.036231
H	 -2.914317	 0.851657	 -0.122536
C	 -1.546008	 -0.312941	 0.948620
H	 0.986240	 0.442950	 -1.781945
N	 0.640204	 -0.530428	 -0.000115
H	 -2.209886	 -0.563918	 1.750018
C	 -0.202946	 -0.866237	 1.044949
C	 2.006991	 -1.033007	 -0.000020
O	 0.166991	 -1.562057	 1.951164
H	 2.182444	 -1.636914	 -0.880881
H	 2.678769	 -0.195442	 -0.002236
H	 2.183828	 -1.633244	 0.883082

	symmetry c1
}
set optking {
	frozen_dihedral = ("
		10 8 11 13
	")
}

ee,wfn = optimize('scf', return_wfn=True)
oeprop( wfn, 'DIPOLE', 'QUADRUPOLE', 'MULLIKEN_CHARGES')
f=open( 'psi4out.xyz', 'w' )
f.write( "15  " )
f.write( str(ee) + "\n" )
f.write( MOL.save_string_xyz() )
f.close()
--------------------------------------------------------------------------

    Molecular point group: c1
  Charge       = 0
  Multiplicity = 1
  Basis Set: CC-PVTZ
  Basis Set:
  @DF-RHF Final Energy:  -360.72224575591264
    Total Energy =                       -360.7222457559133204
    Molecular point group: c1
  Basis Set: CC-PVTZ
  Basis Set:
  Basis Set: CC-PVTZ
  Basis Set:
  @DF-RHF Final Energy:  -360.72250239491916
    Total Energy =                       -360.7225023949191041
  Basis Set: CC-PVTZ
  Basis Set:
  Basis Set: CC-PVTZ
  Basis Set:
  @DF-RHF Final Energy:  -360.72253121687612
    Total Energy =                       -360.7225312168762912
  Basis Set: CC-PVTZ
  Basis Set:
  Basis Set: CC-PVTZ
  Basis Set:
  @DF-RHF Final Energy:  -360.72252935068707
    Total Energy =                       -360.7225293506870685
  Basis Set: CC-PVTZ
  Basis Set:
  Charge       = 0
  Multiplicity = 1
  Basis Set: CC-PVTZ
  Basis Set:

    Orbital Energies (a.u.)
    -----------------------

    Doubly Occupied:

       1A    -20.501772     2A    -15.616380     3A    -11.339707
       4A    -11.293130     5A    -11.263342     6A    -11.258228
       7A    -11.230780     8A    -11.228427     9A     -1.390516
      10A     -1.285770    11A     -1.118807    12A     -1.028852
      13A     -0.972273    14A     -0.875699    15A     -0.838539
      16A     -0.719086    17A     -0.703177    18A     -0.663343
      19A     -0.652660    20A     -0.625143    21A     -0.611947
      22A     -0.573859    23A     -0.558545    24A     -0.550467
      25A     -0.529221    26A     -0.482671    27A     -0.420024
      28A     -0.410903    29A     -0.311079

  @DF-RHF Final Energy:  -360.72253156849280

   => Energetics <=

    Nuclear Repulsion Energy =            358.4277342892248157
    One-Electron Energy =               -1200.1918330706439519
    Two-Electron Energy =                 481.0415672129262816
    DFT Exchange-Correlation Energy =       0.0000000000000000
    Empirical Dispersion Energy =           0.0000000000000000
    PCM Polarization Energy =               0.0000000000000000
    EFP Energy =                            0.0000000000000000
    Total Energy =                       -360.7225315684927978
    Molecular point group: c1
  Basis Set: CC-PVTZ
  Basis Set:

  -Total Gradient:
     Atom            X                  Y                   Z
    ------   -----------------  -----------------  -----------------
       1        0.000004096409     0.000001592798     0.000005665077
       2        0.000003063924     0.000015315954     0.000017084760
       3       -0.000004693133    -0.000020333532    -0.000009037990
       4        0.000000264443    -0.000040925985    -0.000019637453
       5       -0.000001319799     0.000003647228     0.000008694936
       6        0.000000963934    -0.000002362493     0.000007601615
       7        0.000008172482     0.000003451625     0.000005391705
       8       -0.000006284750     0.000029367756    -0.000003431698
       9       -0.000006769550     0.000004110617    -0.000000110209
      10       -0.000009123873     0.000019017192    -0.000020983441
      11        0.000017445849     0.000011615667    -0.000011857500
      12       -0.000003521563    -0.000011469756     0.000011913890
      13       -0.000003690429    -0.000003023592     0.000005248173
      14       -0.000006575423    -0.000007078872     0.000000642613
      15        0.000007971477    -0.000002924605     0.000002815524

  **** Optimization is complete! (in 5 steps) ****
    Final optimized geometry and variables:
    Molecular point group: c1

    Geometry (in Angstrom), charge = 0, multiplicity = 1:

    H           -1.113386850846     1.742980311604    -2.225326699247
    C           -0.841387522134     1.140643344271    -1.384398486653
    C           -1.764484480330     0.862510536098    -0.325954850162
    C            0.384088169589     0.619017658201    -1.289045706319
    H           -2.758091409659     1.267161737094    -0.372615960973
    C           -1.398457581873     0.106676127575     0.713748984629
    H            1.130070983880     0.782609526830    -2.041328665904
    N            0.781016641015    -0.153822531362    -0.240319352105
    H           -2.061385395514    -0.121931252383     1.522692062094
    C           -0.061097656081    -0.460205374186     0.814615469544
    C            2.142004273103    -0.671718247224    -0.236703387937
    O            0.304869138216    -1.143067133661     1.732024003708
    H            2.306661170629    -1.294150851414    -1.106713113822
    H            2.852327186852     0.144903408322    -0.244690661717
    H            2.282186800803    -1.257304857098     0.652329983831

  Mulliken Charges: (a.u.)
   Center  Symbol    Alpha    Beta     Spin     Total
       1     H     0.41416  0.41416  0.00000  0.17168
       2     C     3.10190  3.10190  0.00000 -0.20380
       3     C     3.06196  3.06196  0.00000 -0.12392
       4     C     3.03304  3.03304  0.00000 -0.06609
       5     H     0.41832  0.41832  0.00000  0.16336
       6     C     3.11586  3.11586  0.00000 -0.23172
       7     H     0.42021  0.42021  0.00000  0.15959
       8     N     3.51286  3.51286  0.00000 -0.02571
       9     H     0.40887  0.40887  0.00000  0.18227
      10     C     2.84559  2.84559  0.00000  0.30882
      11     C     3.11045  3.11045  0.00000 -0.22089
      12     O     4.23663  4.23663  0.00000 -0.47327
      13     H     0.44986  0.44986  0.00000  0.10027
      14     H     0.44976  0.44976  0.00000  0.10047
      15     H     0.42053  0.42053  0.00000  0.15894

   Total alpha = 29.00000, Total beta = 29.00000, Total charge =  0.00000

*** Psi4 exiting successfully. Buy a developer a beer!
