  ==> Input File <==

--------------------------------------------------------------------------
set {
	reference rhf
	basis cc-pvtz
}

set_num_threads( 4 )
memory 2 gb

molecule MOL {
0 1

O	 0.413000	 1.358000	 -0.000000
C	 0.525000	 0.171000	 -0.000000
C	 -0.680000	 -0.753000	 -0.000000
C	 1.885000	 -0.495000	 0.000000
C	 -2.014000	 -0.016000	 0.000000
H	 -0.600000	 -1.407000	 -0.866000
H	 -0.600000	 -1.407000	 0.866000
H	 -2.108000	 0.617000	 -0.874000
H	 -2.837000	 -0.723000	 0.000000
H	 -2.108000	 0.617000	 0.874000
H	 1.997000	 -1.130000	 -0.874000
H	 2.660000	 0.258000	 -0.000000
H	 1.997000	 -1.130000	 0.875000

	symmetry c1
}
ee = optimize('scf')
oeprop('DIPOLE', 'QUADRUPOLE', 'MULLIKEN_CHARGES')
f=open( 'psi4out.xyz', 'w' )
f.write( "13  " )
f.write( str(ee) + "\n" )
f.write( MOL.save_string_xyz() )
f.close()
--------------------------------------------------------------------------

    Molecular point group: c1
  Charge       = 0
  Multiplicity = 1
  Basis Set: CC-PVTZ
  Basis Set:
  @DF-RHF Final Energy:  -231.08349844266118
    Total Energy =                       -231.0834984426610959
    Molecular point group: c1
  Basis Set: CC-PVTZ
  Basis Set:
  Basis Set: CC-PVTZ
  Basis Set:
  @DF-RHF Final Energy:  -231.08359851763458
    Total Energy =                       -231.0835985176348117
  Basis Set: CC-PVTZ
  Basis Set:
  Basis Set: CC-PVTZ
  Basis Set:
  @DF-RHF Final Energy:  -231.08360158790168
    Total Energy =                       -231.0836015879016259
  Basis Set: CC-PVTZ
  Basis Set:
  Basis Set: CC-PVTZ
  Basis Set:
  @DF-RHF Final Energy:  -231.08359877597539
    Total Energy =                       -231.0835987759753039
  Basis Set: CC-PVTZ
  Basis Set:
  Charge       = 0
  Multiplicity = 1
  Basis Set: CC-PVTZ
  Basis Set:

    Orbital Energies (a.u.)
    -----------------------

    Doubly Occupied:

       1A    -20.539982     2A    -11.321291     3A    -11.233664
       4A    -11.227502     5A    -11.212570     6A     -1.400098
       7A     -1.062799     8A     -1.001279     9A     -0.879078
      10A     -0.731169    11A     -0.661178    12A     -0.642139
      13A     -0.624649    14A     -0.583552    15A     -0.571582
      16A     -0.522163    17A     -0.513061    18A     -0.509891
      19A     -0.489298    20A     -0.405329

  @DF-RHF Final Energy:  -231.08360169503845

   => Energetics <=

    Nuclear Repulsion Energy =            177.3015241413233412
    One-Electron Energy =                -664.5057064480345161
    Two-Electron Energy =                 256.1205806116728354
    DFT Exchange-Correlation Energy =       0.0000000000000000
    Empirical Dispersion Energy =           0.0000000000000000
    PCM Polarization Energy =               0.0000000000000000
    EFP Energy =                            0.0000000000000000
    Total Energy =                       -231.0836016950383396
    Molecular point group: c1
  Basis Set: CC-PVTZ
  Basis Set:

  -Total Gradient:
     Atom            X                  Y                   Z
    ------   -----------------  -----------------  -----------------
       1        0.000037755086    -0.000049619679     0.000009161842
       2       -0.000046382329     0.000058792424    -0.000027357250
       3       -0.000012587779     0.000013198941     0.000006815410
       4        0.000024651586    -0.000000479539     0.000009169990
       5        0.000001765562    -0.000024543169     0.000000309649
       6        0.000005603866    -0.000016958817    -0.000009656323
       7        0.000004022934    -0.000020268396     0.000011436975
       8       -0.000009179981     0.000012294626    -0.000007585460
       9       -0.000012410613     0.000001101282    -0.000000209097
      10       -0.000009006093     0.000012234548     0.000007466550
      11       -0.000009757368     0.000003608384    -0.000001875432
      12        0.000032683111     0.000010243559    -0.000000661249
      13       -0.000007157978     0.000000395838     0.000002984395

  **** Optimization is complete! (in 5 steps) ****
    Final optimized geometry and variables:
    Molecular point group: c1

    Geometry (in Angstrom), charge = 0, multiplicity = 1:

    O            0.395927770856     1.296675776895    -0.000075903885
    C            0.503050839476     0.114300614152    -0.000074171622
    C           -0.701421526181    -0.805636142202    -0.000109373936
    C            1.858118624572    -0.556122619897     0.000212147989
    C           -2.036852003004    -0.078513181794     0.000015123795
    H           -0.615294215734    -1.458226261161    -0.865062186973
    H           -0.615227098802    -1.458429855261     0.864685570393
    H           -2.134445587776     0.553558214114    -0.872446774633
    H           -2.853050046037    -0.791026987983    -0.000044993084
    H           -2.134395317136     0.553353771554     0.872631851761
    H            1.961106611086    -1.191101521074    -0.872843133177
    H            2.636688083192     0.191084458248    -0.000108913716
    H            1.961070029519    -1.190283909472     0.873872588478

  Mulliken Charges: (a.u.)
   Center  Symbol    Alpha    Beta     Spin     Total
       1     O     4.16934  4.16934  0.00000 -0.33867
       2     C     2.86325  2.86325  0.00000  0.27349
       3     C     3.10023  3.10023  0.00000 -0.20047
       4     C     3.14931  3.14931  0.00000 -0.29863
       5     C     3.14143  3.14143  0.00000 -0.28285
       6     H     0.44677  0.44677  0.00000  0.10646
       7     H     0.44677  0.44677  0.00000  0.10645
       8     H     0.44773  0.44773  0.00000  0.10455
       9     H     0.45075  0.45075  0.00000  0.09849
      10     H     0.44773  0.44773  0.00000  0.10454
      11     H     0.45058  0.45058  0.00000  0.09884
      12     H     0.43553  0.43553  0.00000  0.12894
      13     H     0.45057  0.45057  0.00000  0.09885

   Total alpha = 20.00000, Total beta = 20.00000, Total charge =  0.00000
