                              Psi4 1.0.54 Driver

  ==> Input File <==

--------------------------------------------------------------------------
set {
	reference rhf
	basis cc-pvtz
}

set_num_threads( 4 )
memory 2 gb

molecule MOL {
0 1

H	 2.342730	 0.877684	 -1.045712
C	 2.360424	 -0.000000	 -0.411811
C	 1.173749	 -0.000000	 0.526852
H	 3.286567	 -0.000000	 0.151556
H	 2.342730	 -0.877684	 -1.045712
O	 0.000000	 0.000000	 -0.223757
H	 1.203779	 0.876757	 1.172520
H	 1.203779	 -0.876757	 1.172520
C	 -1.173749	 0.000000	 0.526852
C	 -2.360424	 -0.000000	 -0.411811
H	 -1.203779	 0.876757	 1.172520
H	 -1.203779	 -0.876757	 1.172520
H	 -2.342730	 0.877684	 -1.045712
H	 -3.286567	 -0.000000	 0.151556
H	 -2.342730	 -0.877684	 -1.045712

	symmetry c1
}
ee,wfn = energy('scf', return_wfn=True)
oeprop( wfn, 'DIPOLE', 'QUADRUPOLE', 'MULLIKEN_CHARGES')
oeprop( wfn, 'GRID_ESP')
f=open( 'psi4out.xyz', 'w' )
f.write( "15  " )
f.write( str(ee) + "\n" )
f.write( MOL.save_string_xyz() )
f.close()
--------------------------------------------------------------------------

    Molecular point group: c1

    Geometry (in Angstrom), charge = 0, multiplicity = 1:

       Center              X                  Y                   Z               Mass
    ------------   -----------------  -----------------  -----------------  -----------------
           H          2.342730000000     0.877684000000    -1.045694380357     1.007825032070
           C          2.360424000000     0.000000000000    -0.411793380357    12.000000000000
           C          1.173749000000     0.000000000000     0.526869619643    12.000000000000
           H          3.286567000000     0.000000000000     0.151573619643     1.007825032070
           H          2.342730000000    -0.877684000000    -1.045694380357     1.007825032070
           O          0.000000000000     0.000000000000    -0.223739380357    15.994914619560
           H          1.203779000000     0.876757000000     1.172537619643     1.007825032070
           H          1.203779000000    -0.876757000000     1.172537619643     1.007825032070
           C         -1.173749000000     0.000000000000     0.526869619643    12.000000000000
           C         -2.360424000000     0.000000000000    -0.411793380357    12.000000000000
           H         -1.203779000000     0.876757000000     1.172537619643     1.007825032070
           H         -1.203779000000    -0.876757000000     1.172537619643     1.007825032070
           H         -2.342730000000     0.877684000000    -1.045694380357     1.007825032070
           H         -3.286567000000     0.000000000000     0.151573619643     1.007825032070
           H         -2.342730000000    -0.877684000000    -1.045694380357     1.007825032070

  Charge       = 0
  Multiplicity = 1
  Basis Set: CC-PVTZ
  Basis Set:

    Orbital Energies (a.u.)
    -----------------------

    Doubly Occupied:

       1A    -20.545577     2A    -11.266186     3A    -11.266144
       4A    -11.207281     5A    -11.207269     6A     -1.381562
       7A     -1.045167     8A     -0.983441     9A     -0.846762
      10A     -0.826812    11A     -0.680202    12A     -0.669351
      13A     -0.606052    14A     -0.601213    15A     -0.549822
      16A     -0.531484    17A     -0.523073    18A     -0.493571
      19A     -0.487563    20A     -0.466832    21A     -0.414277

  @DF-RHF Final Energy:  -232.23366390981315

   => Energetics <=

    Nuclear Repulsion Energy =            191.3095084468108951
    One-Electron Energy =                -693.8870873164000841
    Two-Electron Energy =                 270.3439149597762139
    DFT Exchange-Correlation Energy =       0.0000000000000000
    Empirical Dispersion Energy =           0.0000000000000000
    PCM Polarization Energy =               0.0000000000000000
    EFP Energy =                            0.0000000000000000
    Total Energy =                       -232.2336639098129467

  Mulliken Charges: (a.u.)
   Center  Symbol    Alpha    Beta     Spin     Total
       1     H     0.45157  0.45157  0.00000  0.09686
       2     C     3.13480  3.13480  0.00000 -0.26961
       3     C     2.96712  2.96712  0.00000  0.06575
       4     H     0.45886  0.45886  0.00000  0.08229
       5     H     0.45157  0.45157  0.00000  0.09686
       6     O     4.17877  4.17877  0.00000 -0.35754
       7     H     0.47335  0.47335  0.00000  0.05331
       8     H     0.47335  0.47335  0.00000  0.05331
       9     C     2.96711  2.96711  0.00000  0.06578
      10     C     3.13480  3.13480  0.00000 -0.26960
      11     H     0.47335  0.47335  0.00000  0.05330
      12     H     0.47335  0.47335  0.00000  0.05330
      13     H     0.45157  0.45157  0.00000  0.09686
      14     H     0.45886  0.45886  0.00000  0.08228
      15     H     0.45157  0.45157  0.00000  0.09686

   Total alpha = 21.00000, Total beta = 21.00000, Total charge = -0.00000

*** Psi4 exiting successfully. Buy a developer a beer!
