  ==> Input File <==

--------------------------------------------------------------------------
set {
	reference rhf
	basis 6-31G*
}

set_num_threads( 4 )
memory 2 gb

molecule MOL {
0 1

H	 -2.795996	 0.222505	 0.698346
C	 -2.454765	 1.156676	 0.256727
O	 -1.074489	 1.163264	 0.083143
H	 -2.906706	 1.268126	 -0.719218
H	 -2.782701	 1.978573	 0.891843
C	 -0.350443	 1.033391	 1.265572
C	 1.122449	 0.943568	 0.941954
H	 -0.523618	 1.895033	 1.911544
H	 -0.653293	 0.140557	 1.808834
O	 1.392611	 -0.295398	 0.366430
H	 1.390671	 1.751784	 0.264569
H	 1.699247	 1.068206	 1.859267
C	 2.706965	 -0.449871	 -0.062409
H	 2.756559	 -0.644779	 -1.131878
H	 3.305899	 0.433456	 0.155466
H	 3.125548	 -1.294566	 0.467107

	symmetry c1
}
set optking {
	frozen_dihedral = ("
		7 10 13 14
	")
}

ee = optimize('scf')
oeprop('DIPOLE', 'QUADRUPOLE', 'MULLIKEN_CHARGES')
f=open( 'psi4out.xyz', 'w' )
f.write( "16  " )
f.write( str(ee) + "\n" )
f.write( MOL.save_string_xyz() )
f.close()
--------------------------------------------------------------------------

    Molecular point group: c1
  Charge       = 0
  Multiplicity = 1
  Basis Set: 6-31G*
  Basis Set:
  @DF-RHF Final Energy:  -306.97320055602171
    Total Energy =                       -306.9732005560215953
    Molecular point group: c1
  Basis Set: 6-31G*
  Basis Set:
  Basis Set: 6-31G*
  Basis Set:
  @DF-RHF Final Energy:  -306.97364026330257
    Total Energy =                       -306.9736402633027410
  Basis Set: 6-31G*
  Basis Set:
  Basis Set: 6-31G*
  Basis Set:
  @DF-RHF Final Energy:  -306.97375382795502
    Total Energy =                       -306.9737538279551359
  Basis Set: 6-31G*
  Basis Set:
  Basis Set: 6-31G*
  Basis Set:
  @DF-RHF Final Energy:  -306.97375485464846
    Total Energy =                       -306.9737548546482344
  Basis Set: 6-31G*
  Basis Set:
  Charge       = 0
  Multiplicity = 1
  Basis Set: 6-31G*
  Basis Set:

    Orbital Energies (a.u.)
    -----------------------

    Doubly Occupied:

       1A    -20.553088     2A    -20.549377     3A    -11.269290
       4A    -11.267978     5A    -11.263192     6A    -11.262938
       7A     -1.385724     8A     -1.367141     9A     -1.030391
      10A     -0.936124    11A     -0.891905    12A     -0.823480
      13A     -0.682357    14A     -0.678596    15A     -0.655930
      16A     -0.633624    17A     -0.627773    18A     -0.595896
      19A     -0.554319    20A     -0.537541    21A     -0.507977
      22A     -0.476711    23A     -0.461428    24A     -0.417214
      25A     -0.406590

  @DF-RHF Final Energy:  -306.97375496807939

   => Energetics <=

    Nuclear Repulsion Energy =            258.5294732972196812
    One-Electron Energy =                -931.3332895129148028
    Two-Electron Energy =                 365.8300612476157312
    DFT Exchange-Correlation Energy =       0.0000000000000000
    Empirical Dispersion Energy =           0.0000000000000000
    PCM Polarization Energy =               0.0000000000000000
    EFP Energy =                            0.0000000000000000
    Total Energy =                       -306.9737549680794473
    Molecular point group: c1
  Basis Set: 6-31G*
  Basis Set:

  -Total Gradient:
     Atom            X                  Y                   Z
    ------   -----------------  -----------------  -----------------
       1        0.000001395364    -0.000000215504     0.000000800214
       2       -0.000000712067     0.000003107643    -0.000005602883
       3        0.000002852787     0.000005057324     0.000002486922
       4       -0.000003064059    -0.000000381730     0.000000472871
       5        0.000000429554    -0.000000670339     0.000000510562
       6       -0.000004584902    -0.000010971399    -0.000004167085
       7        0.000017521252    -0.000008661676     0.000047393779
       8        0.000001369727     0.000002244885     0.000000748661
       9        0.000007276247    -0.000000103006     0.000005434265
      10       -0.000025934400    -0.000012139378    -0.000073978163
      11        0.000003233178     0.000002335536    -0.000001413132
      12       -0.000002880718    -0.000002363589    -0.000002250802
      13       -0.000004653551     0.000078776145     0.000015749352
      14       -0.000005505710    -0.000064300850     0.000019401073
      15        0.000011027332     0.000006116518    -0.000000468234
      16        0.000002229965     0.000002169420    -0.000005117402

  **** Optimization is complete! (in 5 steps) ****
    Final optimized geometry and variables:
    Molecular point group: c1

    Geometry (in Angstrom), charge = 0, multiplicity = 1:

    H           -3.012810302909    -0.381067441811     0.210241552923
    C           -2.675638412155     0.557216514070    -0.225750768989
    O           -1.294169437397     0.575570145672    -0.388497169888
    H           -3.121093272978     0.668305518160    -1.204726045367
    H           -3.014768728679     1.374316558244     0.409617115110
    C           -0.578296224892     0.447890505406     0.799210087166
    C            0.897775078616     0.368765305523     0.487596507888
    H           -0.762164120170     1.307121752239     1.445600626193
    H           -0.879545010372    -0.447914727762     1.338268101647
    O            1.175205180546    -0.867712721580    -0.092268594087
    H            1.163626207422     1.182415748128    -0.182943589527
    H            1.463133409167     0.493416871529     1.411413376617
    C            2.485240809104    -1.055963830240    -0.540674734065
    H            2.480099048672    -1.254581641063    -1.606751481642
    H            3.107933046452    -0.185538020141    -0.356770846115
    H            2.926690471795    -1.905241919408    -0.029935765128

  Mulliken Charges: (a.u.)
   Center  Symbol    Alpha    Beta     Spin     Total
       1     H     0.42808  0.42808  0.00000  0.14383
       2     C     3.07941  3.07941  0.00000 -0.15881
       3     O     4.30086  4.30086  0.00000 -0.60172
       4     H     0.41142  0.41142  0.00000  0.17716
       5     H     0.43199  0.43199  0.00000  0.13601
       6     C     2.99354  2.99354  0.00000  0.01292
       7     C     2.99305  2.99305  0.00000  0.01389
       8     H     0.43252  0.43252  0.00000  0.13496
       9     H     0.42279  0.42279  0.00000  0.15442
      10     O     4.30605  4.30605  0.00000 -0.61210
      11     H     0.42237  0.42237  0.00000  0.15525
      12     H     0.43233  0.43233  0.00000  0.13535
      13     C     3.07576  3.07576  0.00000 -0.15153
      14     H     0.41823  0.41823  0.00000  0.16354
      15     H     0.43027  0.43027  0.00000  0.13945
      16     H     0.42131  0.42131  0.00000  0.15739

   Total alpha = 25.00000, Total beta = 25.00000, Total charge = -0.00000
