  ==> Input File <==

--------------------------------------------------------------------------
set {
	reference rhf
	basis 6-31G*
}

set_num_threads( 1 )
memory 2 gb

molecule MOL {
0 1

H	 3.097275	 -0.158756	 0.640180
N	 2.434251	 -0.367735	 -0.081097
C	 1.267428	 0.496480	 0.024474
H	 2.171743	 -1.328039	 0.036463
C	 -0.016086	 -0.325158	 -0.029487
H	 1.288818	 1.183521	 -0.816092
H	 1.267576	 1.109062	 0.929528
C	 -1.282277	 0.529072	 0.046735
H	 -0.012495	 -0.908639	 -0.945788
H	 -0.015903	 -1.041248	 0.791956
C	 -2.563920	 -0.301775	 -0.006060
H	 -1.284084	 1.244622	 -0.773004
H	 -1.271387	 1.115393	 0.963286
H	 -2.621848	 -0.873522	 -0.927727
H	 -3.445135	 0.329952	 0.047812
H	 -2.609542	 -1.004582	 0.821105

	symmetry c1
}
set optking {
	frozen_dihedral = ("
		6 3 5 9,
		12 8 5 9
	")
}

ee = energy('scf')
oeprop('DIPOLE', 'QUADRUPOLE', 'MULLIKEN_CHARGES')
f=open( 'psi4out.xyz', 'w' )
f.write( "16  " )
f.write( str(ee) + "\n" )
f.write( MOL.save_string_xyz() )
f.close()
--------------------------------------------------------------------------

    Molecular point group: c1

    Geometry (in Angstrom), charge = 0, multiplicity = 1:

       Center              X                  Y                   Z               Mass
    ------------   -----------------  -----------------  -----------------  -----------------
           H          3.104295521508    -0.149167323943     0.639276129401     1.007825032070
           N          2.441271521508    -0.358146323943    -0.082000870599    14.003074004780
           C          1.274448521508     0.506068676057     0.023570129401    12.000000000000
           H          2.178763521508    -1.318450323943     0.035559129401     1.007825032070
           C         -0.009065478492    -0.315569323943    -0.030390870599    12.000000000000
           H          1.295838521508     1.193109676057    -0.816995870599     1.007825032070
           H          1.274596521508     1.118650676057     0.928624129401     1.007825032070
           C         -1.275256478492     0.538660676057     0.045831129401    12.000000000000
           H         -0.005474478492    -0.899050323943    -0.946691870599     1.007825032070
           H         -0.008882478492    -1.031659323943     0.791052129401     1.007825032070
           C         -2.556899478492    -0.292186323943    -0.006963870599    12.000000000000
           H         -1.277063478492     1.254210676057    -0.773907870599     1.007825032070
           H         -1.264366478492     1.124981676057     0.962382129401     1.007825032070
           H         -2.614827478492    -0.863933323943    -0.928630870599     1.007825032070
           H         -3.438114478492     0.339540676057     0.046908129401     1.007825032070
           H         -2.602521478492    -0.994993323943     0.820201129401     1.007825032070

  Charge       = 0
  Multiplicity = 1
  Basis Set: 6-31G*
  Basis Set:

    Orbital Energies (a.u.)
    -----------------------

    Doubly Occupied:

       1A    -15.529496     2A    -11.238786     3A    -11.218475
       4A    -11.216239     5A    -11.210731     6A     -1.176875
       7A     -1.062264     8A     -0.959993     9A     -0.846295
      10A     -0.799267    11A     -0.660398    12A     -0.641708
      13A     -0.599218    14A     -0.580115    15A     -0.568848
      16A     -0.521167    17A     -0.511626    18A     -0.474817
      19A     -0.471343    20A     -0.462133    21A     -0.376576

  @DF-RHF Final Energy:  -212.31228506381282

   => Energetics <=

    Nuclear Repulsion Energy =            186.6416001617618861
    One-Electron Energy =                -655.6550601449526994
    Two-Electron Energy =                 256.7011749193782180
    DFT Exchange-Correlation Energy =       0.0000000000000000
    Empirical Dispersion Energy =           0.0000000000000000
    PCM Polarization Energy =               0.0000000000000000
    EFP Energy =                            0.0000000000000000
    Total Energy =                       -212.3122850638126238

  Mulliken Charges: (a.u.)
   Center  Symbol    Alpha    Beta     Spin     Total
       1     H     0.33288  0.33288  0.00000  0.33424
       2     N     3.92857  3.92857  0.00000 -0.85714
       3     C     3.04708  3.04708  0.00000 -0.09416
       4     H     0.33223  0.33223  0.00000  0.33554
       5     C     3.16820  3.16820  0.00000 -0.33640
       6     H     0.41983  0.41983  0.00000  0.16035
       7     H     0.43002  0.43002  0.00000  0.13996
       8     C     3.15454  3.15454  0.00000 -0.30908
       9     H     0.41685  0.41685  0.00000  0.16630
      10     H     0.42631  0.42631  0.00000  0.14739
      11     C     3.23919  3.23919  0.00000 -0.47839
      12     H     0.42038  0.42038  0.00000  0.15923
      13     H     0.42254  0.42254  0.00000  0.15492
      14     H     0.42074  0.42074  0.00000  0.15853
      15     H     0.41866  0.41866  0.00000  0.16267
      16     H     0.42197  0.42197  0.00000  0.15605

   Total alpha = 21.00000, Total beta = 21.00000, Total charge =  0.00000
