  ==> Input File <==

--------------------------------------------------------------------------
set {
	reference rhf
	basis 6-31G*
}

set_num_threads( 4 )
memory 2 gb

molecule MOL {
0 1

H	 1.396420	 1.318231	 -1.052477
O	 0.590906	 0.813234	 -1.105912
C	 0.489431	 0.077273	 0.000046
C	 -0.764129	 -0.759190	 0.000191
O	 1.310242	 0.106410	 0.857942
C	 -2.038368	 0.075731	 -0.000248
H	 -0.717284	 -1.412404	 -0.866059
H	 -0.717458	 -1.411724	 0.866967
H	 -2.086483	 0.712501	 -0.875098
H	 -2.908485	 -0.571682	 -0.000042
H	 -2.086576	 0.713280	 0.874068

	symmetry c1
}
set optking {
	frozen_dihedral = ("
		2 3 4 7
	")
}

ee = optimize('scf')
oeprop('DIPOLE', 'QUADRUPOLE', 'MULLIKEN_CHARGES')
f=open( 'psi4out.xyz', 'w' )
f.write( "11  " )
f.write( str(ee) + "\n" )
f.write( MOL.save_string_xyz() )
f.close()
--------------------------------------------------------------------------

    Molecular point group: c1
  Charge       = 0
  Multiplicity = 1
  Basis Set: 6-31G*
  Basis Set:
  @DF-RHF Final Energy:  -266.84422240722347
    Total Energy =                       -266.8442224072234126
    Molecular point group: c1
  Basis Set: 6-31G*
  Basis Set:
  Basis Set: 6-31G*
  Basis Set:
  @DF-RHF Final Energy:  -266.84451932273339
    Total Energy =                       -266.8445193227335039
  Basis Set: 6-31G*
  Basis Set:
  Basis Set: 6-31G*
  Basis Set:
  @DF-RHF Final Energy:  -266.84444967064758
    Total Energy =                       -266.8444496706477480
  Basis Set: 6-31G*
  Basis Set:
  Basis Set: 6-31G*
  Basis Set:
  @DF-RHF Final Energy:  -266.84452807992000
    Total Energy =                       -266.8445280799202237
  Basis Set: 6-31G*
  Basis Set:
  Charge       = 0
  Multiplicity = 1
  Basis Set: 6-31G*
  Basis Set:

    Orbital Energies (a.u.)
    -----------------------

    Doubly Occupied:

       1A    -20.614034     2A    -20.551252     3A    -11.381096
       4A    -11.243149     5A    -11.229553     6A     -1.475165
       7A     -1.365623     8A     -1.067720     9A     -0.911665
      10A     -0.818079    11A     -0.701698    12A     -0.683897
      13A     -0.642561    14A     -0.614013    15A     -0.590794
      16A     -0.546000    17A     -0.526766    18A     -0.511747
      19A     -0.476984    20A     -0.440743

  @DF-RHF Final Energy:  -266.84453262868880

   => Energetics <=

    Nuclear Repulsion Energy =            180.0177962966433256
    One-Electron Energy =                -720.9395771656031684
    Two-Electron Energy =                 274.0772482402710466
    DFT Exchange-Correlation Energy =       0.0000000000000000
    Empirical Dispersion Energy =           0.0000000000000000
    PCM Polarization Energy =               0.0000000000000000
    EFP Energy =                            0.0000000000000000
    Total Energy =                       -266.8445326286887394
    Molecular point group: c1
  Basis Set: 6-31G*
  Basis Set:

  -Total Gradient:
     Atom            X                  Y                   Z
    ------   -----------------  -----------------  -----------------
       1        0.000004976534     0.000022152654    -0.000007911831
       2        0.000012684694     0.000088401325     0.000016708379
       3        0.000065507051    -0.000127633156     0.000030122906
       4       -0.000062433874     0.000021926981    -0.000047883602
       5       -0.000022478705     0.000015318377    -0.000065573306
       6        0.000014268080     0.000031555183    -0.000003908305
       7        0.000044003222    -0.000040908563     0.000078839526
       8       -0.000023501525     0.000017289313    -0.000019776676
       9        0.000010507634    -0.000009751902     0.000020135417
      10       -0.000029813982    -0.000022912524     0.000007521947
      11       -0.000013719132     0.000004562311    -0.000008274458

  **** Optimization is complete! (in 5 steps) ****
    Final optimized geometry and variables:
    Molecular point group: c1

    Geometry (in Angstrom), charge = 0, multiplicity = 1:

    H            1.447803445473     1.250680107255    -0.962701483566
    O            0.642828469044     0.745535585769    -1.023242660439
    C            0.550705874447    -0.017812885466     0.065849610738
    C           -0.700777904795    -0.856815435488     0.072058401292
    O            1.382351194768    -0.009294680325     0.913942437711
    C           -1.978738650159    -0.010631279988     0.060962743221
    H           -0.676081347316    -1.496050639053    -0.804947586859
    H           -0.658447495271    -1.485244422441     0.950939305142
    H           -2.037053778233     0.599096715773    -0.831835486397
    H           -2.849126540053    -0.656326857866     0.089977326339
    H           -2.020781113136     0.643802059091     0.925321764288

  Mulliken Charges: (a.u.)
   Center  Symbol    Alpha    Beta     Spin     Total
       1     H     0.26737  0.26737  0.00000  0.46526
       2     O     4.34739  4.34739  0.00000 -0.69477
       3     C     2.63092  2.63092  0.00000  0.73816
       4     C     3.20058  3.20058  0.00000 -0.40116
       5     O     4.27832  4.27832  0.00000 -0.55665
       6     C     3.25024  3.25024  0.00000 -0.50048
       7     H     0.40122  0.40122  0.00000  0.19755
       8     H     0.39610  0.39610  0.00000  0.20781
       9     H     0.40481  0.40481  0.00000  0.19038
      10     H     0.41143  0.41143  0.00000  0.17714
      11     H     0.41162  0.41162  0.00000  0.17676

   Total alpha = 20.00000, Total beta = 20.00000, Total charge = -0.00000
