  ==> Input File <==

--------------------------------------------------------------------------
set {
	reference rhf
	basis 6-31G*
}

set_num_threads( 4 )
memory 2 gb

molecule MOL {
0 1

H	 -3.420663	 1.227371	 -1.044276
O	 -3.452007	 0.283848	 -0.965577
C	 -3.181085	 -0.079926	 0.364119
C	 -1.765924	 0.277073	 0.805136
H	 -3.327791	 -1.152017	 0.410903
H	 -3.905698	 0.375695	 1.036898
C	 -0.677594	 -0.417312	 -0.014550
H	 -1.637766	 1.358238	 0.744969
H	 -1.659588	 0.017670	 1.857098
C	 0.472841	 -0.948636	 0.842988
H	 -0.292344	 0.276229	 -0.755693
H	 -1.123548	 -1.240683	 -0.570049
C	 1.555404	 -1.647560	 0.016158
H	 0.907312	 -0.123519	 1.402305
H	 0.081191	 -1.646018	 1.582496
C	 2.686320	 -2.275031	 0.839239
H	 1.979383	 -0.938911	 -0.693599
H	 1.087933	 -2.428962	 -0.579408
C	 3.557962	 -1.268848	 1.593057
H	 3.320111	 -2.851677	 0.169853
H	 2.264539	 -2.987639	 1.545281
H	 3.983556	 -0.535372	 0.913335
H	 4.380639	 -1.770383	 2.093560
H	 2.996497	 -0.731616	 2.350224

	symmetry c1
}
set optking {
	frozen_dihedral = ("
		11 7 4 3
	")
}

ee = optimize('scf')
oeprop('DIPOLE', 'QUADRUPOLE', 'MULLIKEN_CHARGES')
f=open( 'psi4out.xyz', 'w' )
f.write( "24  " )
f.write( str(ee) + "\n" )
f.write( MOL.save_string_xyz() )
f.close()
--------------------------------------------------------------------------

    Molecular point group: c1
  Charge       = 0
  Multiplicity = 1
  Basis Set: 6-31G*
  Basis Set:
  @DF-RHF Final Energy:  -349.24332683385734
    Total Energy =                       -349.2433268338575090
    Molecular point group: c1
  Basis Set: 6-31G*
  Basis Set:
  Basis Set: 6-31G*
  Basis Set:
  @DF-RHF Final Energy:  -349.24358902794245
    Total Energy =                       -349.2435890279425621
  Basis Set: 6-31G*
  Basis Set:
  Basis Set: 6-31G*
  Basis Set:
  @DF-RHF Final Energy:  -349.24369777373141
    Total Energy =                       -349.2436977737313555
  Basis Set: 6-31G*
  Basis Set:
  Basis Set: 6-31G*
  Basis Set:
  @DF-RHF Final Energy:  -349.24369983484985
    Total Energy =                       -349.2436998348497923
  Basis Set: 6-31G*
  Basis Set:
  Charge       = 0
  Multiplicity = 1
  Basis Set: 6-31G*
  Basis Set:

    Orbital Energies (a.u.)
    -----------------------

    Doubly Occupied:

       1A    -20.552735     2A    -11.267497     3A    -11.217325
       4A    -11.214033     5A    -11.212599     6A    -11.211918
       7A    -11.211412     8A    -11.207352     9A     -1.359460
      10A     -1.087927    11A     -1.047200    12A     -0.985518
      13A     -0.914844    14A     -0.851024    15A     -0.800756
      16A     -0.776559    17A     -0.677775    18A     -0.650072
      19A     -0.630264    20A     -0.615222    21A     -0.603511
      22A     -0.579563    23A     -0.550609    24A     -0.548839
      25A     -0.517426    26A     -0.505681    27A     -0.496990
      28A     -0.474704    29A     -0.468988    30A     -0.460154
      31A     -0.452689    32A     -0.448309    33A     -0.419216

  @DF-RHF Final Energy:  -349.24370067291994

   => Energetics <=

    Nuclear Repulsion Energy =            384.3430707313354446
    One-Electron Energy =               -1235.1372031100761433
    Two-Electron Energy =                 501.5504317058208699
    DFT Exchange-Correlation Energy =       0.0000000000000000
    Empirical Dispersion Energy =           0.0000000000000000
    PCM Polarization Energy =               0.0000000000000000
    EFP Energy =                            0.0000000000000000
    Total Energy =                       -349.2437006729197719
    Molecular point group: c1
  Basis Set: 6-31G*
  Basis Set:

  -Total Gradient:
     Atom            X                  Y                   Z
    ------   -----------------  -----------------  -----------------
       1       -0.000002502746     0.000005042341    -0.000005958512
       2        0.000011054528    -0.000001653325    -0.000006164068
       3       -0.000049173043    -0.001803403157     0.001527813612
       4        0.000592318479     0.002724216627    -0.001612717576
       5        0.000006206756     0.000003040261     0.000019101793
       6       -0.000005922696     0.000013587472    -0.000014626482
       7       -0.002774217491    -0.001854877168    -0.001986673472
       8       -0.000009784778    -0.000004424175    -0.000000156839
       9        0.000002043598    -0.000014650221    -0.000002940059
      10       -0.000017463549    -0.000002019065    -0.000009953978
      11        0.002244354240     0.000948018377     0.002089921962
      12       -0.000005105143     0.000000212693     0.000006645320
      13        0.000015957002     0.000002927881    -0.000004050712
      14       -0.000002897532    -0.000005805512     0.000002788777
      15       -0.000010540805    -0.000000290809    -0.000007694168
      16        0.000005041179     0.000003530374    -0.000002335544
      17       -0.000011732215    -0.000002890390    -0.000010840561
      18        0.000004082559    -0.000007246935     0.000010464748
      19        0.000003244799    -0.000000821780     0.000002789588
      20        0.000004343113    -0.000003364947     0.000005368773
      21       -0.000003586071     0.000000838839    -0.000000258400
      22       -0.000003925146     0.000003744228     0.000000481262
      23        0.000003167761     0.000002073605    -0.000004010324
      24        0.000005037206    -0.000005785215     0.000003004860

  **** Optimization is complete! (in 5 steps) ****
    Final optimized geometry and variables:
    Molecular point group: c1

    Geometry (in Angstrom), charge = 0, multiplicity = 1:

    H           -3.194929013105     1.932124636203    -1.514340238109
    O           -3.286251073486     0.998054445131    -1.386073164119
    C           -3.040791866165     0.687812545177    -0.038157536068
    C           -1.617026620418     1.009624401565     0.398202740522
    H           -3.222738864042    -0.375616644014     0.055114583278
    H           -3.754781820297     1.197878952331     0.606618881521
    C           -0.539832436503     0.284780355779    -0.431117428969
    H           -1.459419016123     2.086389495386     0.363755596654
    H           -1.529328162524     0.730724743221     1.446788940927
    C            0.621302922830    -0.235041221870     0.422126332866
    H           -0.134435324127     0.963594194259    -1.176152433475
    H           -0.987018744234    -0.540759618105    -0.976802428210
    C            1.715648781910    -0.907810710724    -0.409973544013
    H            1.040311126195     0.591833398761     0.990885508784
    H            0.238886521883    -0.945776182429     1.153809378621
    C            2.852365800031    -1.530887388572     0.408501091575
    H            2.132788718848    -0.184280039848    -1.108845283689
    H            1.260527787310    -1.687190460791    -1.017809113439
    C            3.706781146070    -0.523076447919     1.179649997613
    H            3.496576138625    -2.089248041379    -0.266334070249
    H            2.438001298993    -2.259073223465     1.102903296504
    H            4.123716196258     0.226352465789     0.512053924105
    H            4.535211713663    -1.019683787609     1.675556469796
    H            3.135037262573    -0.005102341938     1.942484633853

  Mulliken Charges: (a.u.)
   Center  Symbol    Alpha    Beta     Spin     Total
       1     H     0.28351  0.28351  0.00000  0.43299
       2     O     4.36857  4.36857  0.00000 -0.73714
       3     C     2.99751  2.99751  0.00000  0.00497
       4     C     3.17244  3.17244  0.00000 -0.34489
       5     H     0.41645  0.41645  0.00000  0.16711
       6     H     0.42887  0.42887  0.00000  0.14227
       7     C     3.14947  3.14947  0.00000 -0.29894
       8     H     0.42494  0.42494  0.00000  0.15011
       9     H     0.42039  0.42039  0.00000  0.15922
      10     C     3.15663  3.15663  0.00000 -0.31325
      11     H     0.42108  0.42108  0.00000  0.15785
      12     H     0.41336  0.41336  0.00000  0.17328
      13     C     3.15291  3.15291  0.00000 -0.30581
      14     H     0.42249  0.42249  0.00000  0.15502
      15     H     0.42523  0.42523  0.00000  0.14954
      16     C     3.15221  3.15221  0.00000 -0.30441
      17     H     0.42440  0.42440  0.00000  0.15120
      18     H     0.42139  0.42139  0.00000  0.15723
      19     C     3.24100  3.24100  0.00000 -0.48200
      20     H     0.42107  0.42107  0.00000  0.15787
      21     H     0.42363  0.42363  0.00000  0.15273
      22     H     0.42251  0.42251  0.00000  0.15498
      23     H     0.41951  0.41951  0.00000  0.16097
      24     H     0.42045  0.42045  0.00000  0.15910

   Total alpha = 33.00000, Total beta = 33.00000, Total charge =  0.00000
