  ==> Input File <==

--------------------------------------------------------------------------
set {
	reference rhf
	basis cc-pvtz
}

set_num_threads( 4 )
memory 2 gb

molecule MOL {
0 1

H	 -0.000105	 1.988529	 0.748933
O	 -0.000098	 1.879786	 -0.188206
C	 -0.000014	 0.545691	 -0.532416
C	 -1.286000	 -0.125171	 -0.046657
C	 1.286016	 -0.125031	 -0.046584
H	 0.000021	 0.481103	 -1.610604
F	 -1.441535	 0.111653	 1.232633
F	 -2.346724	 0.321947	 -0.670085
F	 -1.235544	 -1.430118	 -0.207722
F	 2.317750	 0.468717	 -0.594166
F	 1.336617	 -1.393765	 -0.365123
F	 1.414467	 -0.024806	 1.259108

	symmetry c1
}
set optking {
	frozen_dihedral = ("
		7 4 3 6
	")
}

ee = optimize('scf')
oeprop('DIPOLE', 'QUADRUPOLE', 'MULLIKEN_CHARGES')
f=open( 'psi4out.xyz', 'w' )
f.write( "12  " )
f.write( str(ee) + "\n" )
f.write( MOL.save_string_xyz() )
f.close()
--------------------------------------------------------------------------

    Molecular point group: c1
  Charge       = 0
  Multiplicity = 1
  Basis Set: CC-PVTZ
  Basis Set:
  @DF-RHF Final Energy:  -786.58843806427558
    Total Energy =                       -786.5884380642753513
    Molecular point group: c1
  Basis Set: CC-PVTZ
  Basis Set:
  Basis Set: CC-PVTZ
  Basis Set:
  @DF-RHF Final Energy:  -786.58915697166628
    Total Energy =                       -786.5891569716668528
  Basis Set: CC-PVTZ
  Basis Set:
  Basis Set: CC-PVTZ
  Basis Set:
  @DF-RHF Final Energy:  -786.58937521850044
    Total Energy =                       -786.5893752185004359
  Basis Set: CC-PVTZ
  Basis Set:
  Basis Set: CC-PVTZ
  Basis Set:
  @DF-RHF Final Energy:  -786.58940886915502
    Total Energy =                       -786.5894088691557045
  Basis Set: CC-PVTZ
  Basis Set:
  Basis Set: CC-PVTZ
  Basis Set:
  @DF-RHF Final Energy:  -786.58941381762986
    Total Energy =                       -786.5894138176296337
  Basis Set: CC-PVTZ
  Basis Set:
  Charge       = 0
  Multiplicity = 1
  Basis Set: CC-PVTZ
  Basis Set:

    Orbital Energies (a.u.)
    -----------------------

    Doubly Occupied:

       1A    -26.358861     2A    -26.358250     3A    -26.358227
       4A    -26.356687     5A    -26.353912     6A    -26.353504
       7A    -20.609725     8A    -11.520378     9A    -11.519346
      10A    -11.351619    11A     -1.772115    12A     -1.766551
      13A     -1.667978    14A     -1.663508    15A     -1.663006
      16A     -1.660935    17A     -1.439676    18A     -1.102988
      19A     -1.001996    20A     -0.945335    21A     -0.871129
      22A     -0.868990    23A     -0.859452    24A     -0.852417
      25A     -0.840043    26A     -0.822457    27A     -0.749417
      28A     -0.734061    29A     -0.731647    30A     -0.725891
      31A     -0.696129    32A     -0.691847    33A     -0.690119
      34A     -0.681862    35A     -0.677682    36A     -0.669060
      37A     -0.663679    38A     -0.657457    39A     -0.625437
      40A     -0.554349    41A     -0.510230

  @DF-RHF Final Energy:  -786.58941454218689

   => Energetics <=

    Nuclear Repulsion Energy =            670.7986251114841707
    One-Electron Energy =               -2428.7801784212997518
    Two-Electron Energy =                 971.3921387676283530
    DFT Exchange-Correlation Energy =       0.0000000000000000
    Empirical Dispersion Energy =           0.0000000000000000
    PCM Polarization Energy =               0.0000000000000000
    EFP Energy =                            0.0000000000000000
    Total Energy =                       -786.5894145421872281
    Molecular point group: c1
  Basis Set: CC-PVTZ
  Basis Set:

  -Total Gradient:
     Atom            X                  Y                   Z
    ------   -----------------  -----------------  -----------------
       1       -0.000001131618    -0.000007575491    -0.000007207463
       2        0.000001373559    -0.000017604950    -0.000022902547
       3        0.000468266351    -0.000757450717     0.000045433250
       4        0.000587667405    -0.000924416129     0.000263040002
       5       -0.000101298527     0.000069659203    -0.000101714314
       6       -0.000457512242     0.000890830232    -0.000087753930
       7       -0.000461994231     0.000673095416    -0.000192955873
       8       -0.000108393810     0.000037918991    -0.000041517831
       9       -0.000015945725     0.000129307381     0.000043540823
      10       -0.000019850357    -0.000079336052     0.000037038413
      11        0.000053255727     0.000028810909     0.000047254907
      12        0.000055563462    -0.000043238788     0.000017744562

  **** Optimization is complete! (in 6 steps) ****
    Final optimized geometry and variables:
    Molecular point group: c1

    Geometry (in Angstrom), charge = 0, multiplicity = 1:

    H           -0.031069078473     2.002427359212     0.707500213753
    O           -0.012002672261     1.874875143783    -0.226989448486
    C           -0.004530710671     0.533850768581    -0.544476188327
    C           -1.284407115013    -0.130659932566    -0.031548019288
    C            1.287534828098    -0.122720592311    -0.057161852679
    H           -0.015881827668     0.453679445170    -1.621462897191
    F           -1.459396006321     0.105181394913     1.251236069463
    F           -2.315603957549     0.368659696424    -0.668855402919
    F           -1.288330645936    -1.426395239749    -0.212616067530
    F            2.315566985344     0.507798029166    -0.568133104945
    F            1.369409125117    -1.379299846701    -0.415502387035
    F            1.391836473831    -0.061862354032     1.253399589093

  Mulliken Charges: (a.u.)
   Center  Symbol    Alpha    Beta     Spin     Total
       1     H     0.38102  0.38102  0.00000  0.23796
       2     O     4.19007  4.19007  0.00000 -0.38014
       3     C     3.00603  3.00603  0.00000 -0.01206
       4     C     2.68427  2.68427  0.00000  0.63147
       5     C     2.68531  2.68531  0.00000  0.62938
       6     H     0.42412  0.42412  0.00000  0.15177
       7     F     4.61061  4.61061  0.00000 -0.22122
       8     F     4.60265  4.60265  0.00000 -0.20530
       9     F     4.60140  4.60140  0.00000 -0.20281
      10     F     4.60157  4.60157  0.00000 -0.20315
      11     F     4.60279  4.60279  0.00000 -0.20559
      12     F     4.61016  4.61016  0.00000 -0.22032

   Total alpha = 41.00000, Total beta = 41.00000, Total charge =  0.00000
