  ==> Input File <==

--------------------------------------------------------------------------
set {
	reference rhf
	basis cc-pvtz
}

set_num_threads( 4 )
memory 2 gb

molecule MOL {
0 1

H	 -3.642953	 0.223825	 0.000000
C	 -2.571844	 0.155001	 0.000000
C	 -1.957580	 -1.086132	 0.000000
C	 -1.807160	 1.303787	 0.000000
H	 -2.551493	 -1.979629	 0.000000
C	 -0.582719	 -1.174294	 0.000000
H	 -2.279934	 2.266806	 0.000000
C	 -0.427220	 1.213406	 0.000000
H	 -0.094904	 -2.127556	 0.000000
C	 0.196908	 -0.024061	 0.000000
H	 0.151409	 2.115254	 0.000000
C	 1.690041	 -0.173233	 0.000000
C	 2.534557	 0.892191	 -0.660547
O	 2.202866	 -1.116500	 0.512464
H	 2.283175	 0.984904	 -1.710400
H	 3.572491	 0.617024	 -0.562038
H	 2.370216	 1.856135	 -0.193872

	symmetry c1
}
set optking {
	frozen_dihedral = ("
		13 12 10 8
	")
}

ee = optimize('scf')
oeprop('DIPOLE', 'QUADRUPOLE', 'MULLIKEN_CHARGES')
f=open( 'psi4out.xyz', 'w' )
f.write( "17  " )
f.write( str(ee) + "\n" )
f.write( MOL.save_string_xyz() )
f.close()
--------------------------------------------------------------------------

    Molecular point group: c1
  Charge       = 0
  Multiplicity = 1
  Basis Set: CC-PVTZ
  Basis Set:
  @DF-RHF Final Energy:  -382.60371678259605
    Total Energy =                       -382.6037167825958250
    Molecular point group: c1
  Basis Set: CC-PVTZ
  Basis Set:
  Basis Set: CC-PVTZ
  Basis Set:
  @DF-RHF Final Energy:  -382.60192253829689
    Total Energy =                       -382.6019225382966624
  Basis Set: CC-PVTZ
  Basis Set:
  Basis Set: CC-PVTZ
  Basis Set:
  @DF-RHF Final Energy:  -382.60409421790024
    Total Energy =                       -382.6040942179002968
  Basis Set: CC-PVTZ
  Basis Set:
  Basis Set: CC-PVTZ
  Basis Set:
  @DF-RHF Final Energy:  -382.60415965957520
    Total Energy =                       -382.6041596595750889
  Basis Set: CC-PVTZ
  Basis Set:
  Basis Set: CC-PVTZ
  Basis Set:
  @DF-RHF Final Energy:  -382.60416916696352
    Total Energy =                       -382.6041691669636293
  Basis Set: CC-PVTZ
  Basis Set:
  Basis Set: CC-PVTZ
  Basis Set:
  @DF-RHF Final Energy:  -382.60417592787695
    Total Energy =                       -382.6041759278768950
  Basis Set: CC-PVTZ
  Basis Set:
  Charge       = 0
  Multiplicity = 1
  Basis Set: CC-PVTZ
  Basis Set:

    Orbital Energies (a.u.)
    -----------------------

    Doubly Occupied:

       1A    -20.541752     2A    -11.328129     3A    -11.246278
       4A    -11.243225     5A    -11.243163     6A    -11.239391
       7A    -11.239016     8A    -11.236937     9A    -11.229345
      10A     -1.402870    11A     -1.171186    12A     -1.053405
      13A     -1.030571    14A     -0.999303    15A     -0.864233
      16A     -0.839522    17A     -0.763935    18A     -0.711658
      19A     -0.660177    20A     -0.651769    21A     -0.627887
      22A     -0.615828    23A     -0.602998    24A     -0.596137
      25A     -0.557886    26A     -0.530644    27A     -0.519342
      28A     -0.504603    29A     -0.497087    30A     -0.414574
      31A     -0.350342    32A     -0.346826

  @DF-RHF Final Energy:  -382.60417616181024

   => Energetics <=

    Nuclear Repulsion Energy =            404.3606986076691214
    One-Electron Energy =               -1320.2097103559979132
    Two-Electron Energy =                 533.2448355865185476
    DFT Exchange-Correlation Energy =       0.0000000000000000
    Empirical Dispersion Energy =           0.0000000000000000
    PCM Polarization Energy =               0.0000000000000000
    EFP Energy =                            0.0000000000000000
    Total Energy =                       -382.6041761618103010
    Molecular point group: c1
  Basis Set: CC-PVTZ
  Basis Set:

  -Total Gradient:
     Atom            X                  Y                   Z
    ------   -----------------  -----------------  -----------------
       1       -0.000000669677    -0.000001211816     0.000002690760
       2        0.000000242865     0.000011524514    -0.000026770230
       3        0.000009266380    -0.000011240051     0.000000621450
       4       -0.000009426355    -0.000007584409     0.000026767220
       5       -0.000001516850     0.000000080254    -0.000001332206
       6       -0.000014090084    -0.000002830421     0.000030104139
       7        0.000001816605     0.000000600847    -0.000005551208
       8       -0.000057766053    -0.000015569774     0.002813183982
       9        0.000000696328    -0.000000458626    -0.000012372017
      10        0.000047343543    -0.000550743910    -0.005237164735
      11       -0.000004768344     0.000002083005    -0.000006597266
      12        0.000117899658     0.001782685077     0.004573772620
      13       -0.000070576359    -0.001240312440    -0.002143545632
      14       -0.000021745163     0.000027231963    -0.000007610863
      15       -0.000000607440    -0.000003051909     0.000001378649
      16        0.000005441164     0.000007077653    -0.000007821850
      17       -0.000001540216     0.000001720041     0.000000247186

  **** Optimization is complete! (in 7 steps) ****
    Final optimized geometry and variables:
    Molecular point group: c1

    Geometry (in Angstrom), charge = 0, multiplicity = 1:

    H           -3.640445044133     0.228100452676     0.031561344290
    C           -2.569391380467     0.159327159507     0.023241682051
    C           -1.955116325031    -1.081248775934     0.038118940114
    C           -1.804335235740     1.308120167752     0.001577743580
    H           -2.548854883338    -1.974728080614     0.057836194193
    C           -0.579461677957    -1.169493075690     0.037908188867
    H           -2.277086633746     2.271254913720     0.000131976997
    C           -0.424643653287     1.218011207732    -0.018913644505
    H           -0.092949536876    -2.123441780990     0.071238970443
    C            0.197508184570    -0.019731766410    -0.005599854046
    H            0.156813369239     2.118636929024    -0.039935179332
    C            1.691013251745    -0.163585903579     0.031822177575
    C            2.537336607350     0.912714763099    -0.608678358369
    O            2.191784094580    -1.128909288046     0.512123269210
    H            2.198666972639     1.109666856331    -1.618425645313
    H            3.565413507170     0.586359676157    -0.618969202096
    H            2.467463452101     1.839857359447    -0.051563281835

  Mulliken Charges: (a.u.)
   Center  Symbol    Alpha    Beta     Spin     Total
       1     H     0.42053  0.42053  0.00000  0.15895
       2     C     3.07562  3.07562  0.00000 -0.15124
       3     C     3.07090  3.07090  0.00000 -0.14181
       4     C     3.07266  3.07266  0.00000 -0.14532
       5     H     0.42053  0.42053  0.00000  0.15893
       6     C     3.08065  3.08065  0.00000 -0.16130
       7     H     0.42195  0.42195  0.00000  0.15610
       8     C     3.08809  3.08809  0.00000 -0.17618
       9     H     0.41021  0.41021  0.00000  0.17957
      10     C     2.99758  2.99758  0.00000  0.00484
      11     H     0.42277  0.42277  0.00000  0.15446
      12     C     2.85077  2.85077  0.00000  0.29845
      13     C     3.16220  3.16220  0.00000 -0.32440
      14     O     4.17809  4.17809  0.00000 -0.35618
      15     H     0.44449  0.44449  0.00000  0.11102
      16     H     0.43282  0.43282  0.00000  0.13437
      17     H     0.45012  0.45012  0.00000  0.09975

   Total alpha = 32.00000, Total beta = 32.00000, Total charge = -0.00000
