                              Psi4 1.0.54 Driver

  ==> Input File <==

--------------------------------------------------------------------------
set {
	reference rhf
	basis cc-pvtz
}

set_num_threads( 4 )
memory 2 gb

molecule MOL {
0 1

H	 3.850603	 0.381655	 0.435640
N	 3.039876	 -0.199676	 0.455428
C	 1.860978	 0.530248	 0.016256
H	 2.930689	 -0.520896	 1.394706
C	 0.644130	 -0.381765	 -0.031064
H	 2.060005	 0.912993	 -0.979134
H	 1.638046	 1.393612	 0.644635
C	 -0.678115	 0.376691	 0.025731
H	 0.693998	 -0.977147	 -0.936845
H	 0.693309	 -1.082142	 0.800523
C	 -1.900706	 -0.535531	 -0.022488
H	 -0.725296	 1.079516	 -0.802982
H	 -0.715474	 0.974884	 0.933278
C	 -3.220513	 0.226854	 0.028039
H	 -1.865036	 -1.134397	 -0.928236
H	 -1.857948	 -1.236381	 0.806820
H	 -3.309098	 0.911849	 -0.808725
H	 -4.066838	 -0.449485	 -0.008086
H	 -3.301685	 0.809374	 0.939860

	symmetry c1
}
set optking {
	frozen_dihedral = ("
		6 3 5 9
	")
}

ee,wfn = optimize('scf', return_wfn=True)
oeprop( wfn, 'DIPOLE', 'QUADRUPOLE', 'MULLIKEN_CHARGES')
f=open( 'psi4out.xyz', 'w' )
f.write( "19  " )
f.write( str(ee) + "\n" )
f.write( MOL.save_string_xyz() )
f.close()
--------------------------------------------------------------------------

    Molecular point group: c1
  Charge       = 0
  Multiplicity = 1
  Basis Set: CC-PVTZ
  Basis Set:
  @DF-RHF Final Energy:  -251.44621966504820
    Total Energy =                       -251.4462196650480337
    Molecular point group: c1
  Basis Set: CC-PVTZ
  Basis Set:
  Basis Set: CC-PVTZ
  Basis Set:
  @DF-RHF Final Energy:  -251.44642787839453
    Total Energy =                       -251.4464278783946156
  Basis Set: CC-PVTZ
  Basis Set:
  Basis Set: CC-PVTZ
  Basis Set:
  @DF-RHF Final Energy:  -251.44648864084598
    Total Energy =                       -251.4464886408459279
  Basis Set: CC-PVTZ
  Basis Set:
  Basis Set: CC-PVTZ
  Basis Set:
  @DF-RHF Final Energy:  -251.44648974344301
    Total Energy =                       -251.4464897434432942
  Basis Set: CC-PVTZ
  Basis Set:
  Charge       = 0
  Multiplicity = 1
  Basis Set: CC-PVTZ
  Basis Set:

    Orbital Energies (a.u.)
    -----------------------

    Doubly Occupied:

       1A    -15.526027     2A    -11.238141     3A    -11.211800
       4A    -11.210273     5A    -11.207857     6A    -11.205532
       7A     -1.177406     8A     -1.074076     9A     -0.999047
      10A     -0.900645    11A     -0.813734    12A     -0.789090
      13A     -0.669232    14A     -0.638914    15A     -0.619649
      16A     -0.585966    17A     -0.568928    18A     -0.549371
      19A     -0.527919    20A     -0.502052    21A     -0.481869
      22A     -0.464890    23A     -0.461517    24A     -0.448758
      25A     -0.383487

  @DF-RHF Final Energy:  -251.44648990067520

   => Energetics <=

    Nuclear Repulsion Energy =            246.0617217936618886
    One-Electron Energy =                -826.5040669215209164
    Two-Electron Energy =                 328.9958552271837675
    DFT Exchange-Correlation Energy =       0.0000000000000000
    Empirical Dispersion Energy =           0.0000000000000000
    PCM Polarization Energy =               0.0000000000000000
    EFP Energy =                            0.0000000000000000
    Total Energy =                       -251.4464899006752034
    Molecular point group: c1
  Basis Set: CC-PVTZ
  Basis Set:

  -Total Gradient:
     Atom            X                  Y                   Z
    ------   -----------------  -----------------  -----------------
       1        0.000011015261    -0.000001257471     0.000001144199
       2        0.000004935249     0.000014616665    -0.000001504292
       3       -0.003462498179     0.004552724109     0.000470899175
       4       -0.000004396719    -0.000002207042     0.000000842520
       5        0.003162505409    -0.004207128765     0.002264074660
       6        0.002412087890    -0.003170506603    -0.000747430936
       7        0.000000827377    -0.000010800281    -0.000005061612
       8        0.000005570644    -0.000002621811     0.000002210875
       9       -0.002122993568     0.002823957367    -0.001975121045
      10        0.000000117418     0.000003317705    -0.000002442958
      11       -0.000006749513    -0.000000446303    -0.000014852542
      12        0.000000248735    -0.000000150601    -0.000003058704
      13        0.000000359453     0.000006246537     0.000001455836
      14        0.000002280726    -0.000003579537     0.000012234207
      15       -0.000000024843    -0.000003043275    -0.000003228201
      16       -0.000003347745    -0.000000186495    -0.000001853025
      17        0.000002045881    -0.000003483940    -0.000002125883
      18       -0.000000155694     0.000000412871     0.000003356982
      19       -0.000001827782     0.000004136869     0.000000460745

  **** Optimization is complete! (in 5 steps) ****
    Final optimized geometry and variables:
    Molecular point group: c1

    Geometry (in Angstrom), charge = 0, multiplicity = 1:

    H            3.879370555760     0.367154865195     0.239709142866
    N            3.066537335973    -0.206565547087     0.316604697765
    C            1.867681063833     0.526122583439    -0.066542496721
    H            3.009987466775    -0.513370312050     1.265168866114
    C            0.652541236068    -0.397162696791    -0.074533256485
    H            2.040657347840     0.896563763551    -1.070721107973
    H            1.673842453243     1.385933311087     0.574210577945
    C           -0.671445575882     0.363117558836    -0.041832782819
    H            0.680727076498    -1.006447588642    -0.971664212646
    H            0.704687923509    -1.071751744533     0.775341330070
    C           -1.893930634469    -0.546209349677    -0.126287252331
    H           -0.699110637151     1.074478164945    -0.864792918788
    H           -0.727596936753     0.953462430779     0.869776158209
    C           -3.213740779883     0.216544112324    -0.081637499778
    H           -1.845369266416    -1.128350734379    -1.042305311739
    H           -1.864422926407    -1.262616176907     0.690330728585
    H           -3.288620524389     0.917481284654    -0.906482686398
    H           -4.060069342788    -0.457945891415    -0.143742613088
    H           -3.308526270660     0.781688353944     0.839740485184

  Mulliken Charges: (a.u.)
   Center  Symbol    Alpha    Beta     Spin     Total
       1     H     0.42972  0.42972  0.00000  0.14056
       2     N     3.69101  3.69101  0.00000 -0.38201
       3     C     3.02924  3.02924  0.00000 -0.05848
       4     H     0.43075  0.43075  0.00000  0.13851
       5     C     3.07940  3.07940  0.00000 -0.15880
       6     H     0.45588  0.45588  0.00000  0.08823
       7     H     0.46720  0.46720  0.00000  0.06560
       8     C     3.09370  3.09370  0.00000 -0.18739
       9     H     0.45167  0.45167  0.00000  0.09667
      10     H     0.45734  0.45734  0.00000  0.08532
      11     C     3.08412  3.08412  0.00000 -0.16823
      12     H     0.45551  0.45551  0.00000  0.08898
      13     H     0.45671  0.45671  0.00000  0.08658
      14     C     3.14957  3.14957  0.00000 -0.29913
      15     H     0.45393  0.45393  0.00000  0.09215
      16     H     0.45474  0.45474  0.00000  0.09051
      17     H     0.45535  0.45535  0.00000  0.08930
      18     H     0.44854  0.44854  0.00000  0.10291
      19     H     0.45564  0.45564  0.00000  0.08872

   Total alpha = 25.00000, Total beta = 25.00000, Total charge = -0.00000

*** Psi4 exiting successfully. Buy a developer a beer!
