  ==> Input File <==

--------------------------------------------------------------------------
set {
	reference rhf
	basis cc-pvtz
}

set_num_threads( 4 )
memory 2 gb

molecule MOL {
0 1

H	 1.683151	 1.003545	 0.937735
C	 0.813373	 1.105264	 0.305399
O	 -0.000000	 0.000000	 0.518769
H	 0.302036	 2.031417	 0.559626
H	 1.139119	 1.166257	 -0.730953
C	 -1.165153	 0.000000	 -0.236961
H	 -1.229451	 0.882440	 -0.870223
H	 -2.002557	 0.000000	 0.445289
H	 -1.229451	 -0.882440	 -0.870223

	symmetry c1
}
set optking {
	frozen_dihedral = ("
		2 3 6 7
	")
}

ee = optimize('scf')
oeprop('DIPOLE', 'QUADRUPOLE', 'MULLIKEN_CHARGES')
f=open( 'psi4out.xyz', 'w' )
f.write( "9  " )
f.write( str(ee) + "\n" )
f.write( MOL.save_string_xyz() )
f.close()
--------------------------------------------------------------------------

    Molecular point group: c1
  Charge       = 0
  Multiplicity = 1
  Basis Set: CC-PVTZ
  Basis Set:
  @DF-RHF Final Energy:  -154.12293220992484
    Total Energy =                       -154.1229322099248122
    Molecular point group: c1
  Basis Set: CC-PVTZ
  Basis Set:
  Basis Set: CC-PVTZ
  Basis Set:
  @DF-RHF Final Energy:  -154.12333442393299
    Total Energy =                       -154.1233344239329881
  Basis Set: CC-PVTZ
  Basis Set:
  Basis Set: CC-PVTZ
  Basis Set:
  @DF-RHF Final Energy:  -154.12344441677251
    Total Energy =                       -154.1234444167724007
  Basis Set: CC-PVTZ
  Basis Set:
  Charge       = 0
  Multiplicity = 1
  Basis Set: CC-PVTZ
  Basis Set:

    Orbital Energies (a.u.)
    -----------------------

    Doubly Occupied:

       1A    -20.546508     2A    -11.263601     3A    -11.262640
       4A     -1.377555     5A     -0.975813     6A     -0.872597
       7A     -0.658584     8A     -0.654902     9A     -0.644652
      10A     -0.559118    11A     -0.527812    12A     -0.475188
      13A     -0.414685

  @DF-RHF Final Energy:  -154.12344517345355

   => Energetics <=

    Nuclear Repulsion Energy =             84.5704722237111355
    One-Electron Energy =                -376.9205250429720309
    Two-Electron Energy =                 138.2266076458074622
    DFT Exchange-Correlation Energy =       0.0000000000000000
    Empirical Dispersion Energy =           0.0000000000000000
    PCM Polarization Energy =               0.0000000000000000
    EFP Energy =                            0.0000000000000000
    Total Energy =                       -154.1234451734534332
    Molecular point group: c1
  Basis Set: CC-PVTZ
  Basis Set:

  -Total Gradient:
     Atom            X                  Y                   Z
    ------   -----------------  -----------------  -----------------
       1        0.000026378117     0.000027698522     0.000004919853
       2        0.000121069316     0.000038947101     0.000019697484
       3       -0.000112072970     0.000020548065    -0.000105681567
       4       -0.000029711776    -0.000052142697    -0.000010959603
       5       -0.000030833007    -0.000007912131     0.000010521058
       6       -0.000014491199    -0.000017192989     0.000112851727
       7        0.000047998978    -0.000001651764    -0.000002049838
       8       -0.000024566542    -0.000005831599    -0.000010893499
       9        0.000016229084    -0.000002462509    -0.000018405615

  **** Optimization is complete! (in 4 steps) ****
    Final optimized geometry and variables:
    Molecular point group: c1

    Geometry (in Angstrom), charge = 0, multiplicity = 1:

    H            1.815531203750     0.604054593345     0.756430138874
    C            0.950054177961     0.725409929278     0.120900773742
    O            0.120167841221    -0.370359403409     0.325351924410
    H            0.455674990866     1.658272292147     0.382074470168
    H            1.284174407911     0.789668576203    -0.912119264920
    C           -1.060158981033    -0.387543585207    -0.417990031095
    H           -1.148880407041     0.483511471004    -1.059173524558
    H           -1.914512132461    -0.407249620048     0.249040934562
    H           -1.088139879430    -1.273301494194    -1.042433005512

  Mulliken Charges: (a.u.)
   Center  Symbol    Alpha    Beta     Spin     Total
       1     H     0.44986  0.44986  0.00000  0.10028
       2     C     3.02074  3.02074  0.00000 -0.04148
       3     O     4.17304  4.17304  0.00000 -0.34609
       4     H     0.47307  0.47307  0.00000  0.05386
       5     H     0.47307  0.47307  0.00000  0.05387
       6     C     3.01605  3.01605  0.00000 -0.03209
       7     H     0.47467  0.47467  0.00000  0.05067
       8     H     0.45975  0.45975  0.00000  0.08050
       9     H     0.45976  0.45976  0.00000  0.08047

   Total alpha = 13.00000, Total beta = 13.00000, Total charge = -0.00000
