                              Psi4 1.0.54 Driver

  ==> Input File <==

--------------------------------------------------------------------------
set {
	reference rhf
	basis cc-pvtz
}

set_num_threads( 4 )
memory 2 gb

molecule MOL {
0 1

O	 1.837816	 1.311509	 -0.139107
C	 1.675608	 0.169059	 -0.402804
C	 0.352444	 -0.552587	 -0.392606
O	 2.662201	 -0.641390	 -0.749538
C	 -0.824290	 0.329213	 -0.000115
H	 0.211921	 -0.978774	 -1.380567
H	 0.452828	 -1.397055	 0.281367
C	 -2.146151	 -0.432825	 -0.000068
H	 -0.883883	 1.169888	 -0.682016
H	 -0.642567	 0.751334	 0.981761
C	 -3.366283	 0.483552	 0.000557
H	 -2.189286	 -1.084450	 -0.869996
H	 -2.188867	 -1.085083	 0.869399
C	 -4.687436	 -0.278003	 0.000108
H	 -3.325150	 1.134819	 -0.867957
H	 -3.325087	 1.133730	 0.869885
H	 -4.773783	 -0.912098	 -0.876078
H	 -5.531922	 0.401392	 0.000363
H	 -4.773901	 -0.912898	 0.875703
C	 3.964148	 -0.093989	 -0.800634
H	 4.012298	 0.708626	 -1.521539
H	 4.614646	 -0.900517	 -1.097639
H	 4.257104	 0.284025	 0.167610

	symmetry c1
}
set optking {
	frozen_dihedral = ("
		9 5 8 12
	")
}

ee,wfn = optimize('scf', return_wfn=True)
oeprop( wfn, 'DIPOLE', 'QUADRUPOLE', 'MULLIKEN_CHARGES')
f=open( 'psi4out.xyz', 'w' )
f.write( "23  " )
f.write( str(ee) + "\n" )
f.write( MOL.save_string_xyz() )
f.close()
--------------------------------------------------------------------------

    Molecular point group: c1
  Charge       = 0
  Multiplicity = 1
  Basis Set: CC-PVTZ
  Basis Set:
  @DF-RHF Final Energy:  -423.13013100689795
    Total Energy =                       -423.1301310068979546
    Molecular point group: c1
  Basis Set: CC-PVTZ
  Basis Set:
  Basis Set: CC-PVTZ
  Basis Set:
  @DF-RHF Final Energy:  -423.13022674608067
    Total Energy =                       -423.1302267460812345
  Basis Set: CC-PVTZ
  Basis Set:
  Basis Set: CC-PVTZ
  Basis Set:
  @DF-RHF Final Energy:  -423.13013797159272
    Total Energy =                       -423.1301379715923758
  Basis Set: CC-PVTZ
  Basis Set:
  Basis Set: CC-PVTZ
  Basis Set:
  @DF-RHF Final Energy:  -423.13028438530182
    Total Energy =                       -423.1302843853021614
  Basis Set: CC-PVTZ
  Basis Set:
  Charge       = 0
  Multiplicity = 1
  Basis Set: CC-PVTZ
  Basis Set:

    Orbital Energies (a.u.)
    -----------------------

    Doubly Occupied:

       1A    -20.596343     2A    -20.534161     3A    -11.364615
       4A    -11.278509     5A    -11.234059     6A    -11.216990
       7A    -11.215717     8A    -11.214765     9A    -11.207814
      10A     -1.472227    11A     -1.365813    12A     -1.094239
      13A     -1.044965    14A     -0.988018    15A     -0.932793
      16A     -0.844422    17A     -0.796011    18A     -0.769462
      19A     -0.699640    20A     -0.686620    21A     -0.675604
      22A     -0.650700    23A     -0.610446    24A     -0.601036
      25A     -0.574001    26A     -0.560300    27A     -0.557266
      28A     -0.525717    29A     -0.522448    30A     -0.508048
      31A     -0.484927    32A     -0.470577    33A     -0.465949
      34A     -0.463884    35A     -0.458314    36A     -0.438522

  @DF-RHF Final Energy:  -423.13028523647330

   => Energetics <=

    Nuclear Repulsion Energy =            452.8462066058635287
    One-Electron Energy =               -1473.7031403288249294
    Two-Electron Energy =                 597.7266484864879885
    DFT Exchange-Correlation Energy =       0.0000000000000000
    Empirical Dispersion Energy =           0.0000000000000000
    PCM Polarization Energy =               0.0000000000000000
    EFP Energy =                            0.0000000000000000
    Total Energy =                       -423.1302852364734690
    Molecular point group: c1
  Basis Set: CC-PVTZ
  Basis Set:

  -Total Gradient:
     Atom            X                  Y                   Z
    ------   -----------------  -----------------  -----------------
       1       -0.000002005837     0.000010963107     0.000027433921
       2       -0.000012309249    -0.000004433118    -0.000094399295
       3       -0.000002247508    -0.000006515124    -0.000012221399
       4       -0.000009751376    -0.000010899091     0.000028014194
       5        0.001423995869    -0.002576579319    -0.002188915131
       6        0.000008241736     0.000002857295     0.000008909226
       7       -0.000025646854     0.000024124593    -0.000007805995
       8       -0.001702981476     0.003030519797    -0.001297116340
       9       -0.000933443046     0.001616288471     0.002124405165
      10        0.000011484018    -0.000010844592     0.000011836746
      11       -0.000000485441     0.000026462321    -0.000112181348
      12        0.001205146615    -0.002061983680     0.001470499720
      13        0.000007036139     0.000013541536     0.000019234578
      14       -0.000029860277    -0.000035031988     0.000039918264
      15        0.000010468259    -0.000009042561     0.000024676306
      16        0.000018370612    -0.000038862121    -0.000045341554
      17        0.000006145304     0.000032950013     0.000030398954
      18       -0.000003190368    -0.000012876485     0.000014267154
      19       -0.000007305645     0.000000164848    -0.000036023933
      20        0.000031474024     0.000026171431    -0.000002783875
      21        0.000006936898    -0.000011509137     0.000010757813
      22       -0.000001902320     0.000000332481     0.000001943046
      23        0.000001829924    -0.000005798670    -0.000015506217

  **** Optimization is complete! (in 5 steps) ****
    Final optimized geometry and variables:
    Molecular point group: c1

    Geometry (in Angstrom), charge = 0, multiplicity = 1:

    O            1.858311747682     1.275211139495     0.157710475873
    C            1.698417160207     0.136996650705    -0.124982359094
    C            0.373137324812    -0.580259117052    -0.153961692515
    O            2.689863058567    -0.672107057807    -0.460964769006
    C           -0.809278653844     0.299672045954     0.220821545362
    H            0.254611449376    -0.995077008565    -1.149396914674
    H            0.454475320477    -1.432440929574     0.513116996801
    C           -2.132004321721    -0.464986174937     0.231481572523
    H           -0.871947166874     1.144819648549    -0.455482056902
    H           -0.634595828694     0.731491030610     1.199958201490
    C           -3.355708398712     0.443233212954     0.284341500339
    H           -2.190879809308    -1.115306292195    -0.638560442577
    H           -2.146818823176    -1.132812065106     1.090320723502
    C           -4.670630948688    -0.325482978457     0.356951062237
    H           -3.361259797387     1.086580986763    -0.590822263593
    H           -3.274555205470     1.101760830195     1.144671755422
    H           -4.795052505096    -0.970409506146    -0.506645356953
    H           -5.518247948608     0.349187778961     0.389998753864
    H           -4.710855988431    -0.950346949012     1.242895645852
    C            3.994302845717    -0.128547845495    -0.476552561333
    H            4.060746623477     0.683305709384    -1.185544948330
    H            4.648580470503    -0.933321891779    -0.770036833898
    H            4.267440515100     0.235651785529     0.502704763185

  Mulliken Charges: (a.u.)
   Center  Symbol    Alpha    Beta     Spin     Total
       1     O     4.19688  4.19688  0.00000 -0.39377
       2     C     2.80700  2.80700  0.00000  0.38601
       3     C     3.10079  3.10079  0.00000 -0.20157
       4     O     4.14654  4.14654  0.00000 -0.29308
       5     C     3.08433  3.08433  0.00000 -0.16866
       6     H     0.44003  0.44003  0.00000  0.11994
       7     H     0.43976  0.43976  0.00000  0.12049
       8     C     3.08959  3.08959  0.00000 -0.17917
       9     H     0.44719  0.44719  0.00000  0.10562
      10     H     0.44578  0.44578  0.00000  0.10845
      11     C     3.08385  3.08385  0.00000 -0.16771
      12     H     0.45676  0.45676  0.00000  0.08649
      13     H     0.45494  0.45494  0.00000  0.09013
      14     C     3.15034  3.15034  0.00000 -0.30069
      15     H     0.45347  0.45347  0.00000  0.09307
      16     H     0.45281  0.45281  0.00000  0.09439
      17     H     0.45531  0.45531  0.00000  0.08937
      18     H     0.44778  0.44778  0.00000  0.10445
      19     H     0.45509  0.45509  0.00000  0.08983
      20     C     3.03778  3.03778  0.00000 -0.07557
      21     H     0.45435  0.45435  0.00000  0.09130
      22     H     0.44533  0.44533  0.00000  0.10934
      23     H     0.45432  0.45432  0.00000  0.09135

   Total alpha = 36.00000, Total beta = 36.00000, Total charge = -0.00000

*** Psi4 exiting successfully. Buy a developer a beer!
