  ==> Input File <==

--------------------------------------------------------------------------
set {
	reference rhf
	basis cc-pvtz
}

set_num_threads( 4 )
memory 2 gb

molecule MOL {
0 1

H	 -3.034039	 -0.667848	 0.004703
O	 -2.240597	 -1.171748	 0.000934
C	 -1.159675	 -0.364500	 0.000370
C	 -1.098781	 0.791509	 0.751601
C	 -0.088361	 -0.738749	 -0.796046
H	 -1.928882	 1.084550	 1.368139
C	 0.044995	 1.569276	 0.696074
H	 -0.168650	 -1.641946	 -1.369391
C	 1.052341	 0.036776	 -0.848391
H	 0.094934	 2.470954	 1.276810
C	 1.112109	 1.203631	 -0.092835
C	 2.226721	 -0.382550	 -1.696118
H	 1.990687	 1.819609	 -0.126476
H	 2.638924	 0.462021	 -2.234273
H	 1.942983	 -1.137257	 -2.416990
H	 3.017098	 -0.793602	 -1.077263

	symmetry c1
}
set optking {
	frozen_dihedral = ("
		5 3 2 1
	")
}

ee = optimize('scf')
oeprop('DIPOLE', 'QUADRUPOLE', 'MULLIKEN_CHARGES')
f=open( 'psi4out.xyz', 'w' )
f.write( "16  " )
f.write( str(ee) + "\n" )
f.write( MOL.save_string_xyz() )
f.close()
--------------------------------------------------------------------------

    Molecular point group: c1
  Charge       = 0
  Multiplicity = 1
  Basis Set: CC-PVTZ
  Basis Set:
  @DF-RHF Final Energy:  -344.71864303407239
    Total Energy =                       -344.7186430340724428
    Molecular point group: c1
  Basis Set: CC-PVTZ
  Basis Set:
  Basis Set: CC-PVTZ
  Basis Set:
  @DF-RHF Final Energy:  -344.71875158396341
    Total Energy =                       -344.7187515839633534
  Basis Set: CC-PVTZ
  Basis Set:
  Basis Set: CC-PVTZ
  Basis Set:
  @DF-RHF Final Energy:  -344.71876738805446
    Total Energy =                       -344.7187673880549141
  Basis Set: CC-PVTZ
  Basis Set:
  Basis Set: CC-PVTZ
  Basis Set:
  @DF-RHF Final Energy:  -344.71876949281733
    Total Energy =                       -344.7187694928172732
  Basis Set: CC-PVTZ
  Basis Set:
  Charge       = 0
  Multiplicity = 1
  Basis Set: CC-PVTZ
  Basis Set:

    Orbital Energies (a.u.)
    -----------------------

    Doubly Occupied:

       1A    -20.576829     2A    -11.291520     3A    -11.240406
       4A    -11.232312     5A    -11.219930     6A    -11.219483
       7A    -11.215422     8A    -11.215374     9A     -1.405839
      10A     -1.154475    11A     -1.046435    12A     -1.008214
      13A     -0.938704    14A     -0.827507    15A     -0.822387
      16A     -0.718068    17A     -0.682723    18A     -0.658139
      19A     -0.618710    20A     -0.594796    21A     -0.576342
      22A     -0.571057    23A     -0.557177    24A     -0.526635
      25A     -0.506995    26A     -0.485203    27A     -0.470825
      28A     -0.333253    29A     -0.315503

  @DF-RHF Final Energy:  -344.71877029606503

   => Energetics <=

    Nuclear Repulsion Energy =            346.1601499836306175
    One-Electron Energy =               -1153.6973097792836143
    Two-Electron Energy =                 462.8183894995880792
    DFT Exchange-Correlation Energy =       0.0000000000000000
    Empirical Dispersion Energy =           0.0000000000000000
    PCM Polarization Energy =               0.0000000000000000
    EFP Energy =                            0.0000000000000000
    Total Energy =                       -344.7187702960649176
    Molecular point group: c1
  Basis Set: CC-PVTZ
  Basis Set:

  -Total Gradient:
     Atom            X                  Y                   Z
    ------   -----------------  -----------------  -----------------
       1       -0.000035324492     0.000005175962    -0.002827318704
       2       -0.000421878509     0.000392606572     0.002751693396
       3        0.001320615468    -0.001323183813     0.001650292730
       4       -0.000061756571    -0.000103681973     0.000012317100
       5       -0.000828545070     0.001016028516    -0.001603202686
       6       -0.000011891650     0.000001543161     0.000006332351
       7        0.000077671376     0.000053154080    -0.000067136466
       8        0.000006568450    -0.000004939176     0.000014405800
       9       -0.000024655468    -0.000085006881    -0.000010768037
      10        0.000005407942    -0.000016167683    -0.000000683754
      11       -0.000040693594     0.000035941448     0.000074366351
      12       -0.000004932298     0.000012078400     0.000009033419
      13        0.000018465369    -0.000002741323    -0.000002985312
      14       -0.000003377129     0.000001513098    -0.000017305382
      15        0.000003187260    -0.000005319734     0.000011284724
      16        0.000001138920     0.000022999345    -0.000000325532

  **** Optimization is complete! (in 5 steps) ****
    Final optimized geometry and variables:
    Molecular point group: c1

    Geometry (in Angstrom), charge = 0, multiplicity = 1:

    H           -2.980133900326    -0.744253086659     0.286103972201
    O           -2.188677985247    -1.251678837431     0.278486527960
    C           -1.099976468238    -0.440832891503     0.259516119009
    C           -1.042253467309     0.715596937544     1.010425330286
    C           -0.032491028600    -0.811501712540    -0.539327462375
    H           -1.870293474656     0.996054455892     1.634183056224
    C            0.098060970133     1.496456943284     0.952942500868
    H           -0.115300824073    -1.711244573886    -1.117755644188
    C            1.113921406072    -0.039997907509    -0.585280094866
    H            0.148188294790     2.399188515438     1.531917793009
    C            1.168640903251     1.126451798504     0.167803060154
    C            2.289849241961    -0.459972571573    -1.430675728215
    H            2.047495451978     1.742542155342     0.136670725463
    H            2.712718743229     0.386033132875    -1.958187943877
    H            2.003683332873    -1.204923833391    -2.160814157537
    H            3.073064057051    -0.884964051638    -0.812081442657

  Mulliken Charges: (a.u.)
   Center  Symbol    Alpha    Beta     Spin     Total
       1     H     0.38556  0.38556  0.00000  0.22888
       2     O     4.18368  4.18368  0.00000 -0.36737
       3     C     2.84943  2.84943  0.00000  0.30114
       4     C     3.13981  3.13981  0.00000 -0.27963
       5     C     3.13940  3.13940  0.00000 -0.27879
       6     H     0.42738  0.42738  0.00000  0.14524
       7     C     3.05880  3.05880  0.00000 -0.11759
       8     H     0.42046  0.42046  0.00000  0.15907
       9     C     2.93898  2.93898  0.00000  0.12204
      10     H     0.42281  0.42281  0.00000  0.15439
      11     C     3.11433  3.11433  0.00000 -0.22867
      12     C     3.14606  3.14606  0.00000 -0.29212
      13     H     0.42752  0.42752  0.00000  0.14497
      14     H     0.44873  0.44873  0.00000  0.10254
      15     H     0.45038  0.45038  0.00000  0.09923
      16     H     0.44666  0.44666  0.00000  0.10668

   Total alpha = 29.00000, Total beta = 29.00000, Total charge = -0.00000
