  ==> Input File <==

--------------------------------------------------------------------------
set {
	reference rhf
	basis 6-31G*
}

set_num_threads( 1 )
memory 2 gb

molecule MOL {
0 1

O	 -2.821601	 1.309235	 -0.001213
C	 -2.668563	 0.129746	 -0.000350
C	 -3.801572	 -0.864014	 -0.000442
O	 -1.481751	 -0.454642	 0.000584
H	 -4.417280	 -0.689587	 -0.874708
H	 -3.443784	 -1.883046	 -0.000565
H	 -4.417179	 -0.689832	 0.873954
C	 -0.334255	 0.388708	 0.000906
C	 0.891947	 -0.504646	 0.000751
H	 -0.365390	 1.025305	 -0.873475
H	 -0.365484	 1.024911	 0.875569
C	 2.191998	 0.301789	 0.000897
H	 0.855148	 -1.151283	 -0.871571
H	 0.855132	 -1.151660	 0.872805
C	 3.441114	 -0.581407	 0.000108
H	 2.215074	 0.954890	 -0.869742
H	 2.215465	 0.953923	 0.872248
C	 4.735266	 0.218143	 -0.143959
H	 3.370116	 -1.303326	 -0.810366
H	 3.473510	 -1.158642	 0.921423
H	 4.747506	 0.780527	 -1.073254
H	 5.602307	 -0.434903	 -0.141349
H	 4.851850	 0.926038	 0.671702

	symmetry c1
}
set optking {
	frozen_dihedral = ("
		13 9 8 10,
		2 4 8 10,
		16 12 9 13,
		1 2 4 8
	")
}

ee = energy('scf')
oeprop('DIPOLE', 'QUADRUPOLE', 'MULLIKEN_CHARGES')
f=open( 'psi4out.xyz', 'w' )
f.write( "23  " )
f.write( str(ee) + "\n" )
f.write( MOL.save_string_xyz() )
f.close()
--------------------------------------------------------------------------

    Molecular point group: c1

    Geometry (in Angstrom), charge = 0, multiplicity = 1:

       Center              X                  Y                   Z               Mass
    ------------   -----------------  -----------------  -----------------  -----------------
           O         -2.821103100804     1.309923697214     0.015280557998    15.994914619560
           C         -2.668065100804     0.130434697214     0.016143557998    12.000000000000
           C         -3.801074100804    -0.863325302786     0.016051557998    12.000000000000
           O         -1.481253100804    -0.453953302786     0.017077557998    15.994914619560
           H         -4.416782100804    -0.688898302786    -0.858214442002     1.007825032070
           H         -3.443286100804    -1.882357302786     0.015928557998     1.007825032070
           H         -4.416681100804    -0.689143302786     0.890447557998     1.007825032070
           C         -0.333757100804     0.389396697214     0.017399557998    12.000000000000
           C          0.892444899196    -0.503957302786     0.017244557998    12.000000000000
           H         -0.364892100804     1.025993697214    -0.856981442002     1.007825032070
           H         -0.364986100804     1.025599697214     0.892062557998     1.007825032070
           C          2.192495899196     0.302477697214     0.017390557998    12.000000000000
           H          0.855645899196    -1.150594302786    -0.855077442002     1.007825032070
           H          0.855629899196    -1.150971302786     0.889298557998     1.007825032070
           C          3.441611899196    -0.580718302786     0.016601557998    12.000000000000
           H          2.215571899196     0.955578697214    -0.853248442002     1.007825032070
           H          2.215962899196     0.954611697214     0.888741557998     1.007825032070
           C          4.735763899196     0.218831697214    -0.127465442002    12.000000000000
           H          3.370613899196    -1.302637302786    -0.793872442002     1.007825032070
           H          3.474007899196    -1.157953302786     0.937916557998     1.007825032070
           H          4.748003899196     0.781215697214    -1.056760442002     1.007825032070
           H          5.602804899196    -0.434214302786    -0.124855442002     1.007825032070
           H          4.852347899196     0.926726697214     0.688195557998     1.007825032070

  Charge       = 0
  Multiplicity = 1
  Basis Set: 6-31G*
  Basis Set:

    Orbital Energies (a.u.)
    -----------------------

    Doubly Occupied:

       1A    -20.603027     2A    -20.540543     3A    -11.374105
       4A    -11.281519     5A    -11.232406     6A    -11.224443
       7A    -11.223812     8A    -11.221679     9A    -11.212990
      10A     -1.467993    11A     -1.360756    12A     -1.094272
      13A     -1.042279    14A     -1.003468    15A     -0.930938
      16A     -0.841698    17A     -0.802719    18A     -0.774422
      19A     -0.692262    20A     -0.685071    21A     -0.667954
      22A     -0.646623    23A     -0.606108    24A     -0.588514
      25A     -0.582225    26A     -0.566857    27A     -0.558527
      28A     -0.537173    29A     -0.523364    30A     -0.504925
      31A     -0.491251    32A     -0.477841    33A     -0.471037
      34A     -0.465735    35A     -0.451251    36A     -0.435338

  @DF-RHF Final Energy:  -422.97939388584325

   => Energetics <=

    Nuclear Repulsion Energy =            449.6308270760830510
    One-Electron Energy =               -1466.8502079687168589
    Two-Electron Energy =                 594.2399870067906704
    DFT Exchange-Correlation Energy =       0.0000000000000000
    Empirical Dispersion Energy =           0.0000000000000000
    PCM Polarization Energy =               0.0000000000000000
    EFP Energy =                            0.0000000000000000
    Total Energy =                       -422.9793938858431375

  Mulliken Charges: (a.u.)
   Center  Symbol    Alpha    Beta     Spin     Total
       1     O     4.28391  4.28391  0.00000 -0.56781
       2     C     2.61532  2.61532  0.00000  0.76936
       3     C     3.28774  3.28774  0.00000 -0.57549
       4     O     4.31273  4.31273  0.00000 -0.62547
       5     H     0.39750  0.39750  0.00000  0.20501
       6     H     0.39985  0.39985  0.00000  0.20029
       7     H     0.39750  0.39750  0.00000  0.20500
       8     C     2.99561  2.99561  0.00000  0.00877
       9     C     3.16487  3.16487  0.00000 -0.32974
      10     H     0.41062  0.41062  0.00000  0.17877
      11     H     0.41068  0.41068  0.00000  0.17865
      12     C     3.16007  3.16007  0.00000 -0.32014
      13     H     0.41420  0.41420  0.00000  0.17160
      14     H     0.41426  0.41426  0.00000  0.17148
      15     C     3.15148  3.15148  0.00000 -0.30295
      16     H     0.42093  0.42093  0.00000  0.15815
      17     H     0.42050  0.42050  0.00000  0.15901
      18     C     3.23990  3.23990  0.00000 -0.47980
      19     H     0.42153  0.42153  0.00000  0.15694
      20     H     0.42112  0.42112  0.00000  0.15775
      21     H     0.42082  0.42082  0.00000  0.15835
      22     H     0.41802  0.41802  0.00000  0.16396
      23     H     0.42084  0.42084  0.00000  0.15833

   Total alpha = 36.00000, Total beta = 36.00000, Total charge =  0.00000
