  ==> Input File <==

--------------------------------------------------------------------------
set {
	reference rhf
	basis 6-31G*
}

set_num_threads( 4 )
memory 2 gb

molecule MOL {
0 1

O	 -2.821601	 1.309235	 -0.001213
C	 -2.668563	 0.129746	 -0.000350
C	 -3.801572	 -0.864014	 -0.000442
O	 -1.481751	 -0.454642	 0.000584
H	 -4.417280	 -0.689587	 -0.874708
H	 -3.443784	 -1.883046	 -0.000565
H	 -4.417179	 -0.689832	 0.873954
C	 -0.334255	 0.388708	 0.000906
C	 0.891947	 -0.504646	 0.000751
H	 -0.365390	 1.025305	 -0.873475
H	 -0.365484	 1.024911	 0.875569
C	 2.191998	 0.301789	 0.000897
H	 0.855148	 -1.151283	 -0.871571
H	 0.855132	 -1.151660	 0.872805
C	 3.441114	 -0.581407	 0.000108
H	 2.215074	 0.954890	 -0.869742
H	 2.215465	 0.953923	 0.872248
C	 3.471619	 -1.570219	 1.164663
H	 4.326755	 0.048905	 0.037817
H	 3.494460	 -1.127350	 -0.939131
H	 3.453498	 -1.052458	 2.119445
H	 4.368220	 -2.181430	 1.137047
H	 2.615160	 -2.237757	 1.134971

	symmetry c1
}
set optking {
	frozen_dihedral = ("
		19 15 12 16
	")
}

ee = optimize('scf')
oeprop('DIPOLE', 'QUADRUPOLE', 'MULLIKEN_CHARGES')
f=open( 'psi4out.xyz', 'w' )
f.write( "23  " )
f.write( str(ee) + "\n" )
f.write( MOL.save_string_xyz() )
f.close()
--------------------------------------------------------------------------

    Molecular point group: c1
  Charge       = 0
  Multiplicity = 1
  Basis Set: 6-31G*
  Basis Set:
  @DF-RHF Final Energy:  -422.97660504890501
    Total Energy =                       -422.9766050489046165
    Molecular point group: c1
  Basis Set: 6-31G*
  Basis Set:
  Basis Set: 6-31G*
  Basis Set:
  @DF-RHF Final Energy:  -422.97710720956076
    Total Energy =                       -422.9771072095611544
  Basis Set: 6-31G*
  Basis Set:
  Basis Set: 6-31G*
  Basis Set:
  @DF-RHF Final Energy:  -422.97768548898523
    Total Energy =                       -422.9776854889856850
  Basis Set: 6-31G*
  Basis Set:
  Basis Set: 6-31G*
  Basis Set:
  @DF-RHF Final Energy:  -422.97768041199379
    Total Energy =                       -422.9776804119945837
  Basis Set: 6-31G*
  Basis Set:
  Basis Set: 6-31G*
  Basis Set:
  @DF-RHF Final Energy:  -422.97766910521329
    Total Energy =                       -422.9776691052139768
  Basis Set: 6-31G*
  Basis Set:
  Basis Set: 6-31G*
  Basis Set:
  @DF-RHF Final Energy:  -422.97772972231235
    Total Energy =                       -422.9777297223131427
  Basis Set: 6-31G*
  Basis Set:
  Basis Set: 6-31G*
  Basis Set:
  @DF-RHF Final Energy:  -422.97773083538982
    Total Energy =                       -422.9777308353898206
  Basis Set: 6-31G*
  Basis Set:
  Charge       = 0
  Multiplicity = 1
  Basis Set: 6-31G*
  Basis Set:

    Orbital Energies (a.u.)
    -----------------------

    Doubly Occupied:

       1A    -20.602953     2A    -20.540504     3A    -11.374059
       4A    -11.281443     5A    -11.232377     6A    -11.224511
       7A    -11.223549     8A    -11.222121     9A    -11.212881
      10A     -1.467922    11A     -1.360706    12A     -1.094171
      13A     -1.040968    14A     -1.001715    15A     -0.931119
      16A     -0.854851    17A     -0.792036    18A     -0.771005
      19A     -0.691413    20A     -0.684933    21A     -0.669878
      22A     -0.637629    23A     -0.615086    24A     -0.600365
      25A     -0.575288    26A     -0.571200    27A     -0.547391
      28A     -0.537833    29A     -0.525707    30A     -0.507721
      31A     -0.497037    32A     -0.471036    33A     -0.467438
      34A     -0.466440    35A     -0.451209    36A     -0.435254

  @DF-RHF Final Energy:  -422.97773108354329

   => Energetics <=

    Nuclear Repulsion Energy =            454.4592465101584366
    One-Electron Energy =               -1476.5104600760878384
    Two-Electron Energy =                 599.0734824823853160
    DFT Exchange-Correlation Energy =       0.0000000000000000
    Empirical Dispersion Energy =           0.0000000000000000
    PCM Polarization Energy =               0.0000000000000000
    EFP Energy =                            0.0000000000000000
    Total Energy =                       -422.9777310835440858
    Molecular point group: c1
  Basis Set: 6-31G*
  Basis Set:

  -Total Gradient:
     Atom            X                  Y                   Z
    ------   -----------------  -----------------  -----------------
       1       -0.000000317536    -0.000001403696    -0.000004826485
       2        0.000003096258     0.000005769265     0.000012234756
       3        0.000001880274    -0.000000362794     0.000002144065
       4        0.000007023713    -0.000003903697    -0.000014218669
       5        0.000000972526    -0.000000955019    -0.000001481303
       6       -0.000000089916    -0.000000288369    -0.000000322027
       7        0.000000080662     0.000001332887    -0.000001641214
       8       -0.000002785395     0.000002662248     0.000017649487
       9       -0.000003232312    -0.000006494613    -0.000008299286
      10       -0.000001781517    -0.000001450262    -0.000003501752
      11       -0.000000325196    -0.000000217451    -0.000001209539
      12        0.001080190416     0.001469742043     0.001547181628
      13       -0.000000736043    -0.000006385145     0.000001087691
      14       -0.000004027578     0.000004592107     0.000000596684
      15       -0.000230863065    -0.000137193102    -0.002374798064
      16       -0.000876200324    -0.001215831160    -0.000946132372
      17        0.000006251171     0.000000354884     0.000001106928
      18       -0.000001013817    -0.000004231617     0.000005224838
      19        0.000027923320    -0.000104882360     0.001766936083
      20       -0.000006085165     0.000003604034    -0.000003506821
      21       -0.000004184429    -0.000002670683     0.000001950983
      22       -0.000000515205     0.000002820742     0.000003802014
      23        0.000004739165    -0.000004608245     0.000000022374

  **** Optimization is complete! (in 8 steps) ****
    Final optimized geometry and variables:
    Molecular point group: c1

    Geometry (in Angstrom), charge = 0, multiplicity = 1:

    O           -2.676363420721     1.534322224561    -0.238513395918
    C           -2.537894066507     0.354986802639    -0.170413047477
    C           -3.682969119311    -0.624360682596    -0.139152527875
    O           -1.358713572914    -0.241921068094    -0.113606262716
    H           -4.279824875642    -0.490479433356    -1.033404394496
    H           -3.337955135515    -1.645925884315    -0.077340257272
    H           -4.312790438429    -0.396123890438     0.712387016035
    C           -0.200953674761     0.587075664128    -0.136064789008
    C            1.013938123648    -0.318778150638    -0.059934008851
    H           -0.206642289636     1.174286179411    -1.044788194585
    H           -0.242019290791     1.271431205633     0.701185276358
    C            2.318447059697     0.484128021289    -0.056363051093
    H            0.998067766686    -0.999652607246    -0.907204887560
    H            0.933919293360    -0.927023505996     0.834663556083
    C            3.588073383649    -0.372388254088    -0.127717022924
    H            2.311808059501     1.154991066184    -0.913054617078
    H            2.355631327489     1.111548655263     0.832011348955
    C            3.735200012474    -1.388939633027     1.006580848056
    H            4.447055569645     0.293090195680    -0.101855091476
    H            3.622072309770    -0.889207879992    -1.083893695998
    H            3.669438381750    -0.904517758919     1.977284907724
    H            4.698564348707    -1.886113500611     0.951683630896
    H            2.970647024617    -2.157430958490     0.967012483598

  Mulliken Charges: (a.u.)
   Center  Symbol    Alpha    Beta     Spin     Total
       1     O     4.28392  4.28392  0.00000 -0.56784
       2     C     2.61536  2.61536  0.00000  0.76928
       3     C     3.28773  3.28773  0.00000 -0.57547
       4     O     4.31276  4.31276  0.00000 -0.62553
       5     H     0.39750  0.39750  0.00000  0.20500
       6     H     0.39991  0.39991  0.00000  0.20019
       7     H     0.39751  0.39751  0.00000  0.20499
       8     C     2.99524  2.99524  0.00000  0.00951
       9     C     3.16735  3.16735  0.00000 -0.33470
      10     H     0.41071  0.41071  0.00000  0.17857
      11     H     0.41074  0.41074  0.00000  0.17853
      12     C     3.16136  3.16136  0.00000 -0.32272
      13     H     0.41509  0.41509  0.00000  0.16981
      14     H     0.41170  0.41170  0.00000  0.17659
      15     C     3.15177  3.15177  0.00000 -0.30354
      16     H     0.41949  0.41949  0.00000  0.16102
      17     H     0.42043  0.42043  0.00000  0.15913
      18     C     3.24305  3.24305  0.00000 -0.48610
      19     H     0.41902  0.41902  0.00000  0.16197
      20     H     0.42127  0.42127  0.00000  0.15745
      21     H     0.42155  0.42155  0.00000  0.15690
      22     H     0.41773  0.41773  0.00000  0.16453
      23     H     0.41878  0.41878  0.00000  0.16243

   Total alpha = 36.00000, Total beta = 36.00000, Total charge =  0.00000
