  ==> Input File <==

--------------------------------------------------------------------------
set {
	reference rhf
	basis 6-31G*
}

set_num_threads( 4 )
memory 2 gb

molecule MOL {
0 1

H	 2.336575	 -3.131865	 -3.764383
C	 2.057243	 -2.898196	 -2.742070
C	 0.844834	 -1.969004	 -2.701716
H	 1.849985	 -3.836132	 -2.234580
H	 2.919044	 -2.445285	 -2.259974
C	 0.419317	 -1.614300	 -1.280618
H	 0.003071	 -2.428815	 -3.210045
H	 1.073937	 -1.054555	 -3.246406
N	 -0.749751	 -0.757133	 -1.281929
H	 0.165505	 -2.524931	 -0.744619
H	 1.263907	 -1.166326	 -0.746422
C	 -1.217365	 -0.386708	 0.039277
H	 -0.553977	 0.072015	 -1.810347
C	 -2.452633	 0.504241	 -0.042481
H	 -1.468474	 -1.299401	 0.573031
H	 -0.443094	 0.113959	 0.630226
C	 -3.758029	 -0.289423	 -0.010781
H	 -2.394220	 1.093569	 -0.952170
H	 -2.440793	 1.210787	 0.785871
H	 -3.816659	 -0.981993	 -0.845726
H	 -4.617837	 0.370165	 -0.069296
H	 -3.847478	 -0.867502	 0.904682

	symmetry c1
}
set optking {
	frozen_dihedral = ("
		15 12 14 18
	")
}

ee = optimize('scf')
oeprop('DIPOLE', 'QUADRUPOLE', 'MULLIKEN_CHARGES')
f=open( 'psi4out.xyz', 'w' )
f.write( "22  " )
f.write( str(ee) + "\n" )
f.write( MOL.save_string_xyz() )
f.close()
--------------------------------------------------------------------------

    Molecular point group: c1
  Charge       = 0
  Multiplicity = 1
  Basis Set: 6-31G*
  Basis Set:
  @DF-RHF Final Energy:  -290.37978414899584
    Total Energy =                       -290.3797841489958955
    Molecular point group: c1
  Basis Set: 6-31G*
  Basis Set:
  Basis Set: 6-31G*
  Basis Set:
  @DF-RHF Final Energy:  -290.38030764118969
    Total Energy =                       -290.3803076411898019
  Basis Set: 6-31G*
  Basis Set:
  Basis Set: 6-31G*
  Basis Set:
  @DF-RHF Final Energy:  -290.38041583510710
    Total Energy =                       -290.3804158351071578
  Basis Set: 6-31G*
  Basis Set:
  Basis Set: 6-31G*
  Basis Set:
  @DF-RHF Final Energy:  -290.38041759524714
    Total Energy =                       -290.3804175952470814
  Basis Set: 6-31G*
  Basis Set:
  Basis Set: 6-31G*
  Basis Set:
  @DF-RHF Final Energy:  -290.38041932482048
    Total Energy =                       -290.3804193248205934
  Basis Set: 6-31G*
  Basis Set:
  Charge       = 0
  Multiplicity = 1
  Basis Set: 6-31G*
  Basis Set:

    Orbital Energies (a.u.)
    -----------------------

    Doubly Occupied:

       1A    -15.534278     2A    -11.238277     3A    -11.238107
       4A    -11.213898     5A    -11.213363     6A    -11.209963
       7A    -11.202604     8A     -1.205513     9A     -1.057770
      10A     -1.022520    11A     -0.925864    12A     -0.870575
      13A     -0.809405    14A     -0.792998    15A     -0.662075
      16A     -0.633672    17A     -0.613490    18A     -0.607469
      19A     -0.570338    20A     -0.563664    21A     -0.540296
      22A     -0.523004    23A     -0.503614    24A     -0.487948
      25A     -0.478288    26A     -0.474038    27A     -0.467211
      28A     -0.450078    29A     -0.358720

  @DF-RHF Final Energy:  -290.38041944876977

   => Energetics <=

    Nuclear Repulsion Energy =            316.4222374704513641
    One-Electron Energy =               -1018.6672305541360402
    Two-Electron Energy =                 411.8645736349150184
    DFT Exchange-Correlation Energy =       0.0000000000000000
    Empirical Dispersion Energy =           0.0000000000000000
    PCM Polarization Energy =               0.0000000000000000
    EFP Energy =                            0.0000000000000000
    Total Energy =                       -290.3804194487696577
    Molecular point group: c1
  Basis Set: 6-31G*
  Basis Set:

  -Total Gradient:
     Atom            X                  Y                   Z
    ------   -----------------  -----------------  -----------------
       1       -0.000002485364     0.000002296023     0.000000732328
       2       -0.000001568960     0.000000949033     0.000006275586
       3       -0.000007108996     0.000006642082    -0.000003401893
       4        0.000000402721    -0.000000831413    -0.000000080939
       5        0.000000370411    -0.000000048306     0.000000062151
       6       -0.000006890189     0.000003459769     0.000009405280
       7       -0.000001036851    -0.000000967604    -0.000003052085
       8        0.000000196374     0.000000483504    -0.000001540497
       9        0.000008736331    -0.000000987027    -0.000001797690
      10       -0.000000842215    -0.000002126448     0.000001637135
      11        0.000001554260     0.000001870275     0.000001278367
      12        0.000871521558     0.001710280192     0.004355877808
      13        0.000001153062     0.000001698885    -0.000004164385
      14        0.002292660759     0.003628007365     0.001848409215
      15       -0.001081088306    -0.002006605996    -0.003940919181
      16       -0.000000813201    -0.000001612945     0.000000153249
      17       -0.000007822572     0.000001099928    -0.000008766279
      18       -0.002076618172    -0.003349028250    -0.002257929801
      19        0.000007424506     0.000003286215     0.000002157359
      20       -0.000000223490    -0.000002792511    -0.000004578619
      21       -0.000005105942    -0.000002538302     0.000003093105
      22        0.000007584274     0.000007465528    -0.000002850214

  **** Optimization is complete! (in 6 steps) ****
    Final optimized geometry and variables:
    Molecular point group: c1

    Geometry (in Angstrom), charge = 0, multiplicity = 1:

    H            2.965714094231    -2.097055493444    -2.632748665787
    C            2.698843209834    -1.862267818092    -1.607356762885
    C            1.510420447861    -0.903255976605    -1.554168098214
    H            2.471355113532    -2.797523238037    -1.103667312472
    H            3.574734742531    -1.433732054837    -1.128388729008
    C            1.102397103108    -0.546689239244    -0.128364504370
    H            0.654399156100    -1.338912139660    -2.059992495442
    H            1.759177184050     0.008403115551    -2.094992948894
    N           -0.045676351939     0.338227946351    -0.117544865134
    H            0.831008597347    -1.454194229427     0.404296670024
    H            1.960942612511    -0.121687023663     0.402566456939
    C           -0.489391577061     0.723651396104     1.211836282881
    H            0.165620927348     1.161956415593    -0.648450233085
    C           -1.765584184210     1.570337523212     1.130057956815
    H           -0.702151793601    -0.200036358501     1.741869538485
    H            0.288811689167     1.249931624253     1.770465541187
    C           -3.033596414519     0.716306518468     1.081221253623
    H           -1.732198390772     2.166588001596     0.221515672851
    H           -1.814413289761     2.257375212924     1.969803177567
    H           -2.982897745157     0.010045870501     0.259441712752
    H           -3.917950383089     1.331364050215     0.943883413355
    H           -3.162421107892     0.152899783820     2.001307049443

  Mulliken Charges: (a.u.)
   Center  Symbol    Alpha    Beta     Spin     Total
       1     H     0.41770  0.41770  0.00000  0.16460
       2     C     3.24327  3.24327  0.00000 -0.48655
       3     C     3.15568  3.15568  0.00000 -0.31135
       4     H     0.42065  0.42065  0.00000  0.15869
       5     H     0.42161  0.42161  0.00000  0.15678
       6     C     3.04638  3.04638  0.00000 -0.09277
       7     H     0.41313  0.41313  0.00000  0.17374
       8     H     0.42665  0.42665  0.00000  0.14669
       9     N     3.85759  3.85759  0.00000 -0.71518
      10     H     0.42171  0.42171  0.00000  0.15658
      11     H     0.43639  0.43639  0.00000  0.12723
      12     C     3.05534  3.05534  0.00000 -0.11067
      13     H     0.33523  0.33523  0.00000  0.32954
      14     C     3.15351  3.15351  0.00000 -0.30701
      15     H     0.42021  0.42021  0.00000  0.15959
      16     H     0.43210  0.43210  0.00000  0.13580
      17     C     3.24152  3.24152  0.00000 -0.48303
      18     H     0.42284  0.42284  0.00000  0.15431
      19     H     0.42173  0.42173  0.00000  0.15653
      20     H     0.41086  0.41086  0.00000  0.17829
      21     H     0.42182  0.42182  0.00000  0.15637
      22     H     0.42409  0.42409  0.00000  0.15183

   Total alpha = 29.00000, Total beta = 29.00000, Total charge =  0.00000
