  ==> Input File <==

--------------------------------------------------------------------------
set {
	reference rhf
	basis cc-pvtz
}

set_num_threads( 4 )
memory 2 gb

molecule MOL {
0 1

H	 2.350636	 0.750311	 -0.430245
O	 2.063695	 -0.083403	 -0.105237
C	 0.742924	 0.005675	 0.350750
H	 0.731380	 0.039219	 1.440080
C	 -0.064076	 -1.193495	 -0.124425
C	 -0.047832	 1.190568	 -0.194462
H	 0.194729	 -1.376165	 -1.161308
H	 0.163013	 -2.094508	 0.429933
C	 -1.533112	 -0.752002	 0.006102
H	 0.148003	 1.266545	 -1.259275
H	 0.226235	 2.136493	 0.259722
C	 -1.506634	 0.799189	 0.067162
H	 -2.124360	 -1.110499	 -0.826089
H	 -1.983103	 -1.158030	 0.903403
H	 -2.183808	 1.252169	 -0.644677
H	 -1.813926	 1.138698	 1.049457

	symmetry c1
}
set optking {
	frozen_dihedral = ("
		1 2 3 6
	")
}

ee = optimize('scf')
oeprop('DIPOLE', 'QUADRUPOLE', 'MULLIKEN_CHARGES')
f=open( 'psi4out.xyz', 'w' )
f.write( "16  " )
f.write( str(ee) + "\n" )
f.write( MOL.save_string_xyz() )
f.close()
--------------------------------------------------------------------------

    Molecular point group: c1
  Charge       = 0
  Multiplicity = 1
  Basis Set: CC-PVTZ
  Basis Set:
  @DF-RHF Final Energy:  -270.11483305899765
    Total Energy =                       -270.1148330589978741
    Molecular point group: c1
  Basis Set: CC-PVTZ
  Basis Set:
  Basis Set: CC-PVTZ
  Basis Set:
  @DF-RHF Final Energy:  -270.11503835789159
    Total Energy =                       -270.1150383578913079
  Basis Set: CC-PVTZ
  Basis Set:
  Basis Set: CC-PVTZ
  Basis Set:
  @DF-RHF Final Energy:  -270.11509473832621
    Total Energy =                       -270.1150947383261496
  Basis Set: CC-PVTZ
  Basis Set:
  Basis Set: CC-PVTZ
  Basis Set:
  @DF-RHF Final Energy:  -270.11509937905117
    Total Energy =                       -270.1150993790510029
  Basis Set: CC-PVTZ
  Basis Set:
  Basis Set: CC-PVTZ
  Basis Set:
  @DF-RHF Final Energy:  -270.11510835638950
    Total Energy =                       -270.1151083563891007
  Basis Set: CC-PVTZ
  Basis Set:
  Basis Set: CC-PVTZ
  Basis Set:
  @DF-RHF Final Energy:  -270.11511188741866
    Total Energy =                       -270.1151118874189478
  Basis Set: CC-PVTZ
  Basis Set:
  Charge       = 0
  Multiplicity = 1
  Basis Set: CC-PVTZ
  Basis Set:

    Orbital Energies (a.u.)
    -----------------------

    Doubly Occupied:

       1A    -20.543783     2A    -11.267035     3A    -11.218063
       4A    -11.216821     5A    -11.214704     6A    -11.207012
       7A     -1.364167     8A     -1.116877     9A     -0.969548
      10A     -0.949922    11A     -0.798732    12A     -0.779924
      13A     -0.689478    14A     -0.665876    15A     -0.612676
      16A     -0.601499    17A     -0.574985    18A     -0.530577
      19A     -0.502467    20A     -0.484635    21A     -0.473118
      22A     -0.458607    23A     -0.446486    24A     -0.424855

  @DF-RHF Final Energy:  -270.11511273077986

   => Energetics <=

    Nuclear Repulsion Energy =            255.6122002760744465
    One-Electron Energy =                -873.2309386451483988
    Two-Electron Energy =                 347.5036256382938973
    DFT Exchange-Correlation Energy =       0.0000000000000000
    Empirical Dispersion Energy =           0.0000000000000000
    PCM Polarization Energy =               0.0000000000000000
    EFP Energy =                            0.0000000000000000
    Total Energy =                       -270.1151127307800834
    Molecular point group: c1
  Basis Set: CC-PVTZ
  Basis Set:

  -Total Gradient:
     Atom            X                  Y                   Z
    ------   -----------------  -----------------  -----------------
       1       -0.000442756356    -0.000326493184    -0.001385807136
       2        0.000646922918     0.000643505645     0.002052856295
       3       -0.000457726602    -0.000826631392    -0.001449849018
       4       -0.000009074271     0.000000314909     0.000017262856
       5        0.000026136221     0.000034111721     0.000000499716
       6        0.000269062654     0.000499269053     0.000732432940
       7       -0.000004201813    -0.000038563477    -0.000002944840
       8       -0.000001349997     0.000021723318     0.000026873243
       9       -0.000013679645     0.000007683029     0.000016023064
      10        0.000005408960    -0.000003339951     0.000003532386
      11       -0.000004357478     0.000000440599    -0.000005967680
      12       -0.000012383266    -0.000008380067     0.000005630716
      13        0.000029635290     0.000024151195    -0.000027874900
      14       -0.000036101636    -0.000022060310    -0.000017863966
      15       -0.000022314493     0.000009342918     0.000023654069
      16        0.000026779514    -0.000015074004     0.000011542256

  **** Optimization is complete! (in 7 steps) ****
    Final optimized geometry and variables:
    Molecular point group: c1

    Geometry (in Angstrom), charge = 0, multiplicity = 1:

    H            2.377145579934     0.765780318079    -0.365301967178
    O            2.079597769913    -0.074410718650    -0.070985935437
    C            0.742381976233    -0.003757173243     0.343605242689
    H            0.718878346883     0.024358557691     1.432098457577
    C           -0.069736603505    -1.196428345563    -0.141104391816
    C           -0.044156599546     1.186964364653    -0.191147556371
    H            0.162756820554    -1.357689182649    -1.188014141449
    H            0.168868481795    -2.109065391537     0.389142358854
    C           -1.532950392335    -0.755770008786     0.035893760308
    H            0.148002874146     1.278033173259    -1.257205553451
    H            0.231632058828     2.125303933431     0.276682292013
    C           -1.506759310075     0.797136197327     0.060522749468
    H           -2.158177777634    -1.135862494414    -0.761053759780
    H           -1.943315824507    -1.139086199645     0.961736994234
    H           -2.172009325636     1.232362716403    -0.673183206937
    H           -1.828512446945     1.161698570122     1.028500237916

  Mulliken Charges: (a.u.)
   Center  Symbol    Alpha    Beta     Spin     Total
       1     H     0.39116  0.39116  0.00000  0.21768
       2     O     4.20707  4.20707  0.00000 -0.41413
       3     C     2.92339  2.92339  0.00000  0.15322
       4     H     0.46138  0.46138  0.00000  0.07723
       5     C     3.09527  3.09527  0.00000 -0.19054
       6     C     3.11570  3.11570  0.00000 -0.23141
       7     H     0.45501  0.45501  0.00000  0.08997
       8     H     0.44274  0.44274  0.00000  0.11452
       9     C     3.11303  3.11303  0.00000 -0.22606
      10     H     0.45480  0.45480  0.00000  0.09040
      11     H     0.44371  0.44371  0.00000  0.11259
      12     C     3.11160  3.11160  0.00000 -0.22320
      13     H     0.44472  0.44472  0.00000  0.11056
      14     H     0.44826  0.44826  0.00000  0.10348
      15     H     0.44357  0.44357  0.00000  0.11286
      16     H     0.44858  0.44858  0.00000  0.10284

   Total alpha = 24.00000, Total beta = 24.00000, Total charge = -0.00000
