  ==> Input File <==

--------------------------------------------------------------------------
set {
	reference rhf
	basis 6-31G*
}

set_num_threads( 1 )
memory 2 gb

molecule MOL {
0 1

H	 -4.031818	 -0.453427	 -0.000094
C	 -2.967712	 -0.297022	 -0.000064
C	 -2.458620	 0.992929	 0.000032
C	 -2.109895	 -1.385637	 -0.000122
H	 -3.124998	 1.836319	 0.000077
C	 -1.090278	 1.193236	 0.000070
H	 -2.506361	 -2.384847	 -0.000198
C	 -0.739812	 -1.187531	 -0.000085
H	 -0.678594	 2.184290	 0.000146
C	 -0.226438	 0.104061	 0.000012
H	 -0.072310	 -2.027032	 -0.000131
C	 1.239129	 0.373821	 0.000060
O	 1.966927	 -0.712529	 0.211616
O	 1.717577	 1.451110	 -0.171395
C	 3.373710	 -0.547080	 0.227742
H	 3.720824	 -0.166932	 -0.721886
H	 3.782774	 -1.528326	 0.411249
H	 3.665522	 0.134615	 1.013272

	symmetry c1
}
set optking {
	frozen_dihedral = ("
		12 13 15 16,
		10 12 13 15
	")
}

ee = energy('scf')
oeprop('DIPOLE', 'QUADRUPOLE', 'MULLIKEN_CHARGES')
f=open( 'psi4out.xyz', 'w' )
f.write( "18  " )
f.write( str(ee) + "\n" )
f.write( MOL.save_string_xyz() )
f.close()
--------------------------------------------------------------------------

    Molecular point group: c1

    Geometry (in Angstrom), charge = 0, multiplicity = 1:

       Center              X                  Y                   Z               Mass
    ------------   -----------------  -----------------  -----------------  -----------------
           H         -4.031342316468    -0.456004698710    -0.030104511774     1.007825032070
           C         -2.967236316468    -0.299599698710    -0.030074511774    12.000000000000
           C         -2.458144316468     0.990351301290    -0.029978511774    12.000000000000
           C         -2.109419316468    -1.388214698710    -0.030132511774    12.000000000000
           H         -3.124522316468     1.833741301290    -0.029933511774     1.007825032070
           C         -1.089802316468     1.190658301290    -0.029940511774    12.000000000000
           H         -2.505885316468    -2.387424698710    -0.030208511774     1.007825032070
           C         -0.739336316468    -1.190108698710    -0.030095511774    12.000000000000
           H         -0.678118316468     2.181712301290    -0.029864511774     1.007825032070
           C         -0.225962316468     0.101483301290    -0.029998511774    12.000000000000
           H         -0.071834316468    -2.029609698710    -0.030141511774     1.007825032070
           C          1.239604683532     0.371243301290    -0.029950511774    12.000000000000
           O          1.967402683532    -0.715106698710     0.181605488226    15.994914619560
           O          1.718052683532     1.448532301290    -0.201405511774    15.994914619560
           C          3.374185683532    -0.549657698710     0.197731488226    12.000000000000
           H          3.721299683532    -0.169509698710    -0.751896511774     1.007825032070
           H          3.783249683532    -1.530903698710     0.381238488226     1.007825032070
           H          3.665997683532     0.132037301290     0.983261488226     1.007825032070

  Charge       = 0
  Multiplicity = 1
  Basis Set: 6-31G*
  Basis Set:

    Orbital Energies (a.u.)
    -----------------------

    Doubly Occupied:

       1A    -20.607693     2A    -20.544571     3A    -11.377915
       4A    -11.282955     5A    -11.245750     6A    -11.245184
       7A    -11.244266     8A    -11.241875     9A    -11.237635
      10A    -11.236819    11A     -1.472796    12A     -1.363928
      13A     -1.165371    14A     -1.048156    15A     -1.024902
      16A     -0.978155    17A     -0.860240    18A     -0.834526
      19A     -0.777804    20A     -0.739786    21A     -0.683379
      22A     -0.677429    23A     -0.672128    24A     -0.631036
      25A     -0.624203    26A     -0.597750    27A     -0.585015
      28A     -0.560903    29A     -0.529561    30A     -0.516623
      31A     -0.503644    32A     -0.499179    33A     -0.459061
      34A     -0.444476    35A     -0.344786    36A     -0.341085

  @DF-RHF Final Energy:  -457.35038560643318

   => Energetics <=

    Nuclear Repulsion Energy =            492.9628035843777525
    One-Electron Energy =               -1600.2254283850656975
    Two-Electron Energy =                 649.9122391942546528
    DFT Exchange-Correlation Energy =       0.0000000000000000
    Empirical Dispersion Energy =           0.0000000000000000
    PCM Polarization Energy =               0.0000000000000000
    EFP Energy =                            0.0000000000000000
    Total Energy =                       -457.3503856064332922

  Mulliken Charges: (a.u.)
   Center  Symbol    Alpha    Beta     Spin     Total
       1     H     0.39540  0.39540  0.00000  0.20919
       2     C     3.09015  3.09015  0.00000 -0.18030
       3     C     3.10696  3.10696  0.00000 -0.21392
       4     C     3.10712  3.10712  0.00000 -0.21424
       5     H     0.39536  0.39536  0.00000  0.20928
       6     C     3.08692  3.08692  0.00000 -0.17384
       7     H     0.39623  0.39623  0.00000  0.20754
       8     C     3.08743  3.08743  0.00000 -0.17486
       9     H     0.37644  0.37644  0.00000  0.24712
      10     C     3.07338  3.07338  0.00000 -0.14675
      11     H     0.38092  0.38092  0.00000  0.23816
      12     C     2.58325  2.58325  0.00000  0.83350
      13     O     4.31371  4.31371  0.00000 -0.62743
      14     O     4.29128  4.29128  0.00000 -0.58256
      15     C     3.09266  3.09266  0.00000 -0.18532
      16     H     0.40749  0.40749  0.00000  0.18501
      17     H     0.40792  0.40792  0.00000  0.18417
      18     H     0.40738  0.40738  0.00000  0.18525

   Total alpha = 36.00000, Total beta = 36.00000, Total charge =  0.00000
