  ==> Input File <==

--------------------------------------------------------------------------
set {
	reference rhf
	basis 6-31G*
}

set_num_threads( 1 )
memory 2 gb

molecule MOL {
0 1

H	 -3.420663	 1.227371	 -1.044276
O	 -3.452007	 0.283848	 -0.965577
C	 -3.181085	 -0.079926	 0.364119
C	 -1.765924	 0.277073	 0.805136
H	 -3.327791	 -1.152017	 0.410903
H	 -3.905698	 0.375695	 1.036898
C	 -0.677594	 -0.417312	 -0.014550
H	 -1.637766	 1.358238	 0.744969
H	 -1.659588	 0.017670	 1.857098
C	 0.738335	 -0.034840	 0.421385
H	 -0.814977	 -0.178223	 -1.064632
H	 -0.802730	 -1.495410	 0.071702
C	 1.822265	 -0.738362	 -0.399735
H	 0.853533	 1.043532	 0.342250
H	 0.871597	 -0.279636	 1.474438
C	 1.337381	 -1.959122	 -1.190169
H	 2.635147	 -1.038262	 0.259794
H	 2.248782	 -0.022084	 -1.098911
C	 0.876217	 -3.134151	 -0.325854
H	 2.146788	 -2.296589	 -1.833027
H	 0.528608	 -1.659738	 -1.853840
H	 1.661176	 -3.447336	 0.357443
H	 0.616966	 -3.988623	 -0.943515
H	 0.002082	 -2.884686	 0.266445

	symmetry c1
}
set optking {
	frozen_dihedral = ("
		20 16 13 17,
		13 10 7 11,
		11 7 4 3,
		1 2 3 5,
		7 4 3 2
	")
}

ee = energy('scf')
oeprop('DIPOLE', 'QUADRUPOLE', 'MULLIKEN_CHARGES')
f=open( 'psi4out.xyz', 'w' )
f.write( "24  " )
f.write( str(ee) + "\n" )
f.write( MOL.save_string_xyz() )
f.close()
--------------------------------------------------------------------------

    Molecular point group: c1

    Geometry (in Angstrom), charge = 0, multiplicity = 1:

       Center              X                  Y                   Z               Mass
    ------------   -----------------  -----------------  -----------------  -----------------
           H         -2.822529879319     1.942427914209    -0.867351003628     1.007825032070
           O         -2.853873879319     0.998904914209    -0.788652003628    15.994914619560
           C         -2.582951879319     0.635130914209     0.541043996372    12.000000000000
           C         -1.167790879319     0.992129914209     0.982060996372    12.000000000000
           H         -2.729657879319    -0.436960085791     0.587827996372     1.007825032070
           H         -3.307564879319     1.090751914209     1.213822996372     1.007825032070
           C         -0.079460879319     0.297744914209     0.162374996372    12.000000000000
           H         -1.039632879319     2.073294914209     0.921893996372     1.007825032070
           H         -1.061454879319     0.732726914209     2.034022996372     1.007825032070
           C          1.336468120681     0.680216914209     0.598309996372    12.000000000000
           H         -0.216843879319     0.536833914209    -0.887707003628     1.007825032070
           H         -0.204596879319    -0.780353085791     0.248626996372     1.007825032070
           C          2.420398120681    -0.023305085791    -0.222810003628    12.000000000000
           H          1.451666120681     1.758588914209     0.519174996372     1.007825032070
           H          1.469730120681     0.435420914209     1.651362996372     1.007825032070
           C          1.935514120681    -1.244065085791    -1.013244003628    12.000000000000
           H          3.233280120681    -0.323205085791     0.436718996372     1.007825032070
           H          2.846915120681     0.692972914209    -0.921986003628     1.007825032070
           C          1.474350120681    -2.419094085791    -0.148929003628    12.000000000000
           H          2.744921120681    -1.581532085791    -1.656102003628     1.007825032070
           H          1.126741120681    -0.944681085791    -1.676915003628     1.007825032070
           H          2.259309120681    -2.732279085791     0.534367996372     1.007825032070
           H          1.215099120681    -3.273566085791    -0.766590003628     1.007825032070
           H          0.600215120681    -2.169629085791     0.443369996372     1.007825032070

  Charge       = 0
  Multiplicity = 1
  Basis Set: 6-31G*
  Basis Set:

    Orbital Energies (a.u.)
    -----------------------

    Doubly Occupied:

       1A    -20.553195     2A    -11.267113     3A    -11.215810
       4A    -11.211743     5A    -11.211226     6A    -11.210305
       7A    -11.206918     8A    -11.205081     9A     -1.359743
      10A     -1.093029    11A     -1.042472    12A     -0.982692
      13A     -0.920158    14A     -0.851306    15A     -0.810838
      16A     -0.759447    17A     -0.681514    18A     -0.654978
      19A     -0.624050    20A     -0.619295    21A     -0.609974
      22A     -0.578838    23A     -0.553566    24A     -0.541369
      25A     -0.517091    26A     -0.514249    27A     -0.495528
      28A     -0.479458    29A     -0.469021    30A     -0.458758
      31A     -0.440846    32A     -0.438354    33A     -0.419824

  @DF-RHF Final Energy:  -349.22880444450539

   => Energetics <=

    Nuclear Repulsion Energy =            400.3127757154009032
    One-Electron Energy =               -1267.0874802615767294
    Two-Electron Energy =                 517.5459001016703269
    DFT Exchange-Correlation Energy =       0.0000000000000000
    Empirical Dispersion Energy =           0.0000000000000000
    PCM Polarization Energy =               0.0000000000000000
    EFP Energy =                            0.0000000000000000
    Total Energy =                       -349.2288044445054993

  Mulliken Charges: (a.u.)
   Center  Symbol    Alpha    Beta     Spin     Total
       1     H     0.28339  0.28339  0.00000  0.43322
       2     O     4.36845  4.36845  0.00000 -0.73691
       3     C     2.99597  2.99597  0.00000  0.00805
       4     C     3.16641  3.16641  0.00000 -0.33283
       5     H     0.41698  0.41698  0.00000  0.16603
       6     H     0.42827  0.42827  0.00000  0.14345
       7     C     3.15952  3.15952  0.00000 -0.31903
       8     H     0.42909  0.42909  0.00000  0.14182
       9     H     0.42332  0.42332  0.00000  0.15336
      10     C     3.15503  3.15503  0.00000 -0.31005
      11     H     0.41112  0.41112  0.00000  0.17776
      12     H     0.42203  0.42203  0.00000  0.15594
      13     C     3.15405  3.15405  0.00000 -0.30810
      14     H     0.42117  0.42117  0.00000  0.15765
      15     H     0.42332  0.42332  0.00000  0.15336
      16     C     3.16218  3.16218  0.00000 -0.32436
      17     H     0.42205  0.42205  0.00000  0.15590
      18     H     0.42091  0.42091  0.00000  0.15817
      19     C     3.24075  3.24075  0.00000 -0.48151
      20     H     0.41901  0.41901  0.00000  0.16197
      21     H     0.41697  0.41697  0.00000  0.16605
      22     H     0.42250  0.42250  0.00000  0.15499
      23     H     0.41873  0.41873  0.00000  0.16254
      24     H     0.41875  0.41875  0.00000  0.16250

   Total alpha = 33.00000, Total beta = 33.00000, Total charge =  0.00000
