                              Psi4 1.0.54 Driver

  ==> Input File <==

--------------------------------------------------------------------------
set {
	reference rhf
	basis cc-pvtz
}

set_num_threads( 4 )
memory 2 gb

molecule MOL {
0 1

H	 1.618970	 -1.708909	 -0.155359
O	 2.012307	 -0.863440	 0.000222
C	 1.050374	 0.054877	 0.000135
C	 -0.318151	 -0.570512	 0.000144
O	 1.286319	 1.213453	 -0.000040
C	 -1.454884	 0.441630	 -0.000560
H	 -0.371613	 -1.223646	 -0.864985
H	 -0.371920	 -1.222758	 0.865929
C	 -2.822577	 -0.232186	 0.000063
H	 -1.359760	 1.084704	 -0.867077
H	 -1.359641	 1.085996	 0.864983
H	 -2.954352	 -0.858985	 -0.875745
H	 -3.615886	 0.505352	 0.000019
H	 -2.953878	 -0.858359	 0.876394

	symmetry c1
}
set optking {
	frozen_dihedral = ("
		1 2 3 5
	")
}

ee,wfn = optimize('scf', return_wfn=True)
oeprop( wfn, 'DIPOLE', 'QUADRUPOLE', 'MULLIKEN_CHARGES')
f=open( 'psi4out.xyz', 'w' )
f.write( "14  " )
f.write( str(ee) + "\n" )
f.write( MOL.save_string_xyz() )
f.close()
--------------------------------------------------------------------------

    Molecular point group: c1
  Charge       = 0
  Multiplicity = 1
  Basis Set: CC-PVTZ
  Basis Set:
  @DF-RHF Final Energy:  -305.98996972790303
    Total Energy =                       -305.9899697279032580
    Molecular point group: c1
  Basis Set: CC-PVTZ
  Basis Set:
  Basis Set: CC-PVTZ
  Basis Set:
  @DF-RHF Final Energy:  -305.99116851339602
    Total Energy =                       -305.9911685133960191
  Basis Set: CC-PVTZ
  Basis Set:
  Basis Set: CC-PVTZ
  Basis Set:
  @DF-RHF Final Energy:  -305.99139411414751
    Total Energy =                       -305.9913941141474538
  Basis Set: CC-PVTZ
  Basis Set:
  Basis Set: CC-PVTZ
  Basis Set:
  @DF-RHF Final Energy:  -305.99119556951621
    Total Energy =                       -305.9911955695161510
  Basis Set: CC-PVTZ
  Basis Set:
  Basis Set: CC-PVTZ
  Basis Set:
  @DF-RHF Final Energy:  -305.99141470013933
    Total Energy =                       -305.9914147001393872
  Basis Set: CC-PVTZ
  Basis Set:
  Charge       = 0
  Multiplicity = 1
  Basis Set: CC-PVTZ
  Basis Set:

    Orbital Energies (a.u.)
    -----------------------

    Doubly Occupied:

       1A    -20.604441     2A    -20.536863     3A    -11.373154
       4A    -11.250968     5A    -11.229479     6A    -11.220673
       7A     -1.471632     8A     -1.373727     9A     -1.089139
      10A     -0.979424    11A     -0.854821    12A     -0.820753
      13A     -0.722155    14A     -0.674617    15A     -0.662976
      16A     -0.620822    17A     -0.595508    18A     -0.583665
      19A     -0.553602    20A     -0.510958    21A     -0.496783
      22A     -0.489564    23A     -0.481283    24A     -0.443849

  @DF-RHF Final Energy:  -305.99141528981789

   => Energetics <=

    Nuclear Repulsion Energy =            240.4169397323665294
    One-Electron Energy =                -893.5349980933400502
    Two-Electron Energy =                 347.1266430711555131
    DFT Exchange-Correlation Energy =       0.0000000000000000
    Empirical Dispersion Energy =           0.0000000000000000
    PCM Polarization Energy =               0.0000000000000000
    EFP Energy =                            0.0000000000000000
    Total Energy =                       -305.9914152898179509
    Molecular point group: c1
  Basis Set: CC-PVTZ
  Basis Set:

  -Total Gradient:
     Atom            X                  Y                   Z
    ------   -----------------  -----------------  -----------------
       1        0.000337564230     0.000272612041    -0.002362314325
       2       -0.000364639334    -0.000548979141     0.002064219319
       3        0.000042749620     0.000178737840     0.002375955046
       4        0.000031473046     0.000003609563     0.000009689510
       5       -0.000052874904     0.000094799119    -0.002074284114
       6        0.000023026593     0.000006844932    -0.000006454350
       7       -0.000000775716     0.000001506722    -0.000004042411
       8       -0.000001227138    -0.000001212028    -0.000008171596
       9       -0.000017117236    -0.000003287863     0.000000997071
      10        0.000001490330    -0.000002986872     0.000005659780
      11        0.000001940767    -0.000001833590    -0.000001508304
      12        0.000000872558     0.000000834975     0.000001352424
      13       -0.000002499965    -0.000001467853     0.000000224624
      14        0.000000017149     0.000000822154    -0.000001322674

  **** Optimization is complete! (in 6 steps) ****
    Final optimized geometry and variables:
    Molecular point group: c1

    Geometry (in Angstrom), charge = 0, multiplicity = 1:

    H            1.785922035086    -1.692903708616    -0.133077506686
    O            2.075563991476    -0.811215789654     0.023095379820
    C            1.061416175097     0.058686936324     0.015072781699
    C           -0.315624356478    -0.566383907990    -0.001339032959
    O            1.274377469036     1.215161719850     0.019606647248
    C           -1.449813547428     0.448750404285    -0.015765129096
    H           -0.374815778348    -1.215884270550    -0.872056424052
    H           -0.391504364995    -1.215625391974     0.867140899079
    C           -2.820518528584    -0.218572345404    -0.031777047160
    H           -1.338573813070     1.090897475947    -0.880446987744
    H           -1.358970682154     1.091161265331     0.851025942192
    H           -2.946188486854    -0.844021984016    -0.909606039622
    H           -3.609203668955     0.523571203262    -0.041158766175
    H           -2.966570178082    -0.843739486917     0.843017879845

  Mulliken Charges: (a.u.)
   Center  Symbol    Alpha    Beta     Spin     Total
       1     H     0.38815  0.38815  0.00000  0.22371
       2     O     4.14552  4.14552  0.00000 -0.29103
       3     C     2.80351  2.80351  0.00000  0.39298
       4     C     3.12402  3.12402  0.00000 -0.24804
       5     O     4.17570  4.17570  0.00000 -0.35139
       6     C     3.08339  3.08339  0.00000 -0.16678
       7     H     0.44678  0.44678  0.00000  0.10643
       8     H     0.44073  0.44073  0.00000  0.11853
       9     C     3.15043  3.15043  0.00000 -0.30087
      10     H     0.44340  0.44340  0.00000  0.11320
      11     H     0.44284  0.44284  0.00000  0.11433
      12     H     0.45607  0.45607  0.00000  0.08786
      13     H     0.44373  0.44373  0.00000  0.11253
      14     H     0.45573  0.45573  0.00000  0.08854

   Total alpha = 24.00000, Total beta = 24.00000, Total charge =  0.00000

*** Psi4 exiting successfully. Buy a developer a beer!
