  ==> Input File <==

--------------------------------------------------------------------------
set {
	reference rhf
	basis 6-31G*
}

set_num_threads( 1 )
memory 2 gb

molecule MOL {
0 1

H	 2.825710	 0.162009	 -0.220941
C	 1.951159	 -0.223429	 0.317018
C	 0.692068	 0.589600	 0.160137
O	 2.038695	 -1.215736	 0.964933
C	 -0.558097	 -0.297372	 0.091132
H	 0.791645	 1.202255	 -0.728243
H	 0.616171	 1.253469	 1.020572
C	 -1.850991	 0.512573	 -0.019058
H	 -0.476753	 -0.965681	 -0.762987
H	 -0.604799	 -0.930658	 0.975228
C	 -3.096943	 -0.368295	 -0.099594
H	 -1.800724	 1.150330	 -0.898172
H	 -1.931651	 1.177355	 0.838044
H	 -3.060452	 -1.020287	 -0.967456
H	 -3.996858	 0.233488	 -0.175704
H	 -3.191959	 -0.995686	 0.782074

	symmetry c1
}
set optking {
	frozen_dihedral = ("
		9 5 8 12,
		6 3 5 9
	")
}

ee = energy('scf')
oeprop('DIPOLE', 'QUADRUPOLE', 'MULLIKEN_CHARGES')
f=open( 'psi4out.xyz', 'w' )
f.write( "16  " )
f.write( str(ee) + "\n" )
f.write( MOL.save_string_xyz() )
f.close()
--------------------------------------------------------------------------

    Molecular point group: c1

    Geometry (in Angstrom), charge = 0, multiplicity = 1:

       Center              X                  Y                   Z               Mass
    ------------   -----------------  -----------------  -----------------  -----------------
           H          2.972786130679     0.343391483055    -0.461329271489     1.007825032070
           C          2.098235130679    -0.042046516945     0.076629728511    12.000000000000
           C          0.839144130679     0.770982483055    -0.080251271489    12.000000000000
           O          2.185771130679    -1.034353516945     0.724544728511    15.994914619560
           C         -0.411020869321    -0.115989516945    -0.149256271489    12.000000000000
           H          0.938721130679     1.383637483055    -0.968631271489     1.007825032070
           H          0.763247130679     1.434851483055     0.780183728511     1.007825032070
           C         -1.703914869321     0.693955483055    -0.259446271489    12.000000000000
           H         -0.329676869321    -0.784298516945    -1.003375271489     1.007825032070
           H         -0.457722869321    -0.749275516945     0.734839728511     1.007825032070
           C         -2.949866869321    -0.186912516945    -0.339982271489    12.000000000000
           H         -1.653647869321     1.331712483055    -1.138560271489     1.007825032070
           H         -1.784574869321     1.358737483055     0.597655728511     1.007825032070
           H         -2.913375869321    -0.838904516945    -1.207844271489     1.007825032070
           H         -3.849781869321     0.414870483055    -0.416092271489     1.007825032070
           H         -3.044882869321    -0.814303516945     0.541685728511     1.007825032070

  Charge       = 0
  Multiplicity = 1
  Basis Set: 6-31G*
  Basis Set:

    Orbital Energies (a.u.)
    -----------------------

    Doubly Occupied:

       1A    -20.563429     2A    -11.327803     3A    -11.236334
       4A    -11.225508     5A    -11.222786     6A    -11.213180
       7A     -1.403846     8A     -1.089165     9A     -1.015440
      10A     -0.907234    11A     -0.812879    12A     -0.774851
      13A     -0.679031    14A     -0.650779    15A     -0.628924
      16A     -0.599343    17A     -0.582100    18A     -0.540835
      19A     -0.527056    20A     -0.502410    21A     -0.480234
      22A     -0.478705    23A     -0.471821    24A     -0.409327

  @DF-RHF Final Energy:  -270.01917200098126

   => Energetics <=

    Nuclear Repulsion Energy =            231.6878776758767060
    One-Electron Energy =                -824.7280431951207902
    Two-Electron Energy =                 323.0209935182627419
    DFT Exchange-Correlation Energy =       0.0000000000000000
    Empirical Dispersion Energy =           0.0000000000000000
    PCM Polarization Energy =               0.0000000000000000
    EFP Energy =                            0.0000000000000000
    Total Energy =                       -270.0191720009813139

  Mulliken Charges: (a.u.)
   Center  Symbol    Alpha    Beta     Spin     Total
       1     H     0.42738  0.42738  0.00000  0.14523
       2     C     2.83994  2.83994  0.00000  0.32012
       3     C     3.20794  3.20794  0.00000 -0.41589
       4     O     4.23712  4.23712  0.00000 -0.47424
       5     C     3.15375  3.15375  0.00000 -0.30750
       6     H     0.41345  0.41345  0.00000  0.17311
       7     H     0.40144  0.40144  0.00000  0.19712
       8     C     3.15276  3.15276  0.00000 -0.30553
       9     H     0.41825  0.41825  0.00000  0.16350
      10     H     0.40483  0.40483  0.00000  0.19035
      11     C     3.23989  3.23989  0.00000 -0.47978
      12     H     0.42338  0.42338  0.00000  0.15324
      13     H     0.42217  0.42217  0.00000  0.15565
      14     H     0.42040  0.42040  0.00000  0.15919
      15     H     0.41818  0.41818  0.00000  0.16364
      16     H     0.41911  0.41911  0.00000  0.16179

   Total alpha = 24.00000, Total beta = 24.00000, Total charge =  0.00000
