                              Psi4 1.0.54 Driver

  ==> Input File <==

--------------------------------------------------------------------------
set {
	reference rhf
	basis cc-pvtz
}

set_num_threads( 4 )
memory 2 gb

molecule MOL {
0 1

H	 -2.557784	 -0.502796	 0.448414
N	 -1.797991	 0.143955	 0.448155
C	 -0.561396	 -0.500007	 0.035200
H	 -1.718909	 0.506073	 1.375492
C	 0.575129	 0.507849	 -0.048832
H	 -0.724896	 -0.935450	 -0.945042
H	 -0.266417	 -1.317248	 0.695139
C	 1.951750	 -0.141983	 0.035101
H	 0.478254	 1.061643	 -0.975981
H	 0.467676	 1.231891	 0.755499
H	 2.101550	 -0.848142	 -0.774949
H	 2.738260	 0.600794	 -0.026526
H	 2.078939	 -0.679792	 0.968824

	symmetry c1
}
set optking {
	frozen_dihedral = ("
		6 3 5 9
	")
}

ee,wfn = optimize('scf', return_wfn=True)
oeprop( wfn, 'DIPOLE', 'QUADRUPOLE', 'MULLIKEN_CHARGES')
f=open( 'psi4out.xyz', 'w' )
f.write( "13  " )
f.write( str(ee) + "\n" )
f.write( MOL.save_string_xyz() )
f.close()
--------------------------------------------------------------------------

    Molecular point group: c1
  Charge       = 0
  Multiplicity = 1
  Basis Set: CC-PVTZ
  Basis Set:
  @DF-RHF Final Energy:  -173.35061537994264
    Total Energy =                       -173.3506153799428091
    Molecular point group: c1
  Basis Set: CC-PVTZ
  Basis Set:
  Basis Set: CC-PVTZ
  Basis Set:
  @DF-RHF Final Energy:  -173.35084349863413
    Total Energy =                       -173.3508434986342195
  Basis Set: CC-PVTZ
  Basis Set:
  Basis Set: CC-PVTZ
  Basis Set:
  @DF-RHF Final Energy:  -173.35089414177435
    Total Energy =                       -173.3508941417743756
  Basis Set: CC-PVTZ
  Basis Set:
  Charge       = 0
  Multiplicity = 1
  Basis Set: CC-PVTZ
  Basis Set:

    Orbital Energies (a.u.)
    -----------------------

    Doubly Occupied:

       1A    -15.526358     2A    -11.238573     3A    -11.210642
       4A    -11.206792     5A     -1.177742     6A     -1.035607
       7A     -0.898870     8A     -0.799763     9A     -0.667422
      10A     -0.622664    11A     -0.607644    12A     -0.566572
      13A     -0.532297    14A     -0.490851    15A     -0.478715
      16A     -0.468115    17A     -0.384043

  @DF-RHF Final Energy:  -173.35089490820437

   => Energetics <=

    Nuclear Repulsion Energy =            131.9450460557431768
    One-Electron Energy =                -494.7665388305017018
    Two-Electron Energy =                 189.4705978665541579
    DFT Exchange-Correlation Energy =       0.0000000000000000
    Empirical Dispersion Energy =           0.0000000000000000
    PCM Polarization Energy =               0.0000000000000000
    EFP Energy =                            0.0000000000000000
    Total Energy =                       -173.3508949082043955
    Molecular point group: c1
  Basis Set: CC-PVTZ
  Basis Set:

  -Total Gradient:
     Atom            X                  Y                   Z
    ------   -----------------  -----------------  -----------------
       1       -0.000040117791     0.000027611618     0.000020209285
       2       -0.000041160199    -0.000083314101    -0.000047382559
       3        0.003969486216    -0.004322946616     0.000784582798
       4        0.000020234125    -0.000020330681    -0.000034122069
       5       -0.003577467885     0.004201067869     0.002135710104
       6       -0.002793750827     0.003068232517    -0.000900011168
       7        0.000006481636    -0.000001563636    -0.000009755060
       8        0.000015626090     0.000041095098     0.000026847161
       9        0.002406119469    -0.002845745844    -0.001953405254
      10        0.000002620949    -0.000041724589    -0.000017499573
      11       -0.000000018984     0.000011499647     0.000007024278
      12        0.000017578957    -0.000017864733     0.000004550370
      13        0.000014368249    -0.000016016547    -0.000016748313

  **** Optimization is complete! (in 4 steps) ****
    Final optimized geometry and variables:
    Molecular point group: c1

    Geometry (in Angstrom), charge = 0, multiplicity = 1:

    H           -2.589056109391    -0.485854534653     0.247477416452
    N           -1.824342054133     0.154183934249     0.282973610967
    C           -0.574395650538    -0.497852242022    -0.080996635995
    H           -1.782363834706     0.513414338459     1.213674402850
    C            0.560634655892     0.519505030777    -0.159089770301
    H           -0.729005834529    -0.934213173200    -1.061504875166
    H           -0.301169057648    -1.302967181496     0.600832666764
    C            1.939533554110    -0.133525748401    -0.112343579805
    H            0.471137840866     1.075197194714    -1.085612504353
    H            0.466181111751     1.230339465703     0.655723109361
    H            2.058870704743    -0.854550224752    -0.914885924702
    H            2.725839843841     0.605043639047    -0.215968643380
    H            2.097768895162    -0.656642947189     0.824853352207

  Mulliken Charges: (a.u.)
   Center  Symbol    Alpha    Beta     Spin     Total
       1     H     0.42946  0.42946  0.00000  0.14108
       2     N     3.69152  3.69152  0.00000 -0.38305
       3     C     3.02427  3.02427  0.00000 -0.04854
       4     H     0.43072  0.43072  0.00000  0.13856
       5     C     3.07546  3.07546  0.00000 -0.15093
       6     H     0.45628  0.45628  0.00000  0.08745
       7     H     0.46873  0.46873  0.00000  0.06254
       8     C     3.15318  3.15318  0.00000 -0.30635
       9     H     0.45165  0.45165  0.00000  0.09670
      10     H     0.45793  0.45793  0.00000  0.08414
      11     H     0.45542  0.45542  0.00000  0.08916
      12     H     0.44835  0.44835  0.00000  0.10331
      13     H     0.45704  0.45704  0.00000  0.08593

   Total alpha = 17.00000, Total beta = 17.00000, Total charge = -0.00000

*** Psi4 exiting successfully. Buy a developer a beer!
