  ==> Input File <==

--------------------------------------------------------------------------
set {
	reference rhf
	basis 6-31G*
}

set_num_threads( 1 )
memory 2 gb

molecule MOL {
0 1

H	 -1.864092	 0.784769	 -0.862322
N	 -1.852125	 0.165761	 -0.074816
C	 -0.563778	 -0.502042	 0.037919
H	 -2.583321	 -0.503967	 -0.221696
C	 0.575259	 0.508231	 -0.048326
H	 -0.482092	 -1.204004	 -0.786564
H	 -0.460411	 -1.085169	 0.956626
C	 1.954651	 -0.143624	 0.035137
H	 0.475158	 1.060484	 -0.977307
H	 0.469181	 1.234488	 0.755973
H	 2.103292	 -0.853109	 -0.774172
H	 2.742821	 0.599562	 -0.030094
H	 2.083613	 -0.679371	 0.971560

	symmetry c1
}
set optking {
	frozen_dihedral = ("
		6 3 5 9
	")
}

ee = energy('scf')
oeprop('DIPOLE', 'QUADRUPOLE', 'MULLIKEN_CHARGES')
f=open( 'psi4out.xyz', 'w' )
f.write( "13  " )
f.write( str(ee) + "\n" )
f.write( MOL.save_string_xyz() )
f.close()
--------------------------------------------------------------------------

    Molecular point group: c1

    Geometry (in Angstrom), charge = 0, multiplicity = 1:

       Center              X                  Y                   Z               Mass
    ------------   -----------------  -----------------  -----------------  -----------------
           H         -1.866829743767     0.784420804970    -0.833096296340     1.007825032070
           N         -1.854862743767     0.165412804970    -0.045590296340    14.003074004780
           C         -0.566515743767    -0.502390195030     0.067144703660    12.000000000000
           H         -2.586058743767    -0.504315195030    -0.192470296340     1.007825032070
           C          0.572521256233     0.507882804970    -0.019100296340    12.000000000000
           H         -0.484829743767    -1.204352195030    -0.757338296340     1.007825032070
           H         -0.463148743767    -1.085517195030     0.985851703660     1.007825032070
           C          1.951913256233    -0.143972195030     0.064362703660    12.000000000000
           H          0.472420256233     1.060135804970    -0.948081296340     1.007825032070
           H          0.466443256233     1.234139804970     0.785198703660     1.007825032070
           H          2.100554256233    -0.853457195030    -0.744946296340     1.007825032070
           H          2.740083256233     0.599213804970    -0.000868296340     1.007825032070
           H          2.080875256233    -0.679719195030     1.000785703660     1.007825032070

  Charge       = 0
  Multiplicity = 1
  Basis Set: 6-31G*
  Basis Set:

    Orbital Energies (a.u.)
    -----------------------

    Doubly Occupied:

       1A    -15.530643     2A    -11.240462     3A    -11.215398
       4A    -11.211083     5A     -1.176871     6A     -1.036442
       7A     -0.898931     8A     -0.802990     9A     -0.654237
      10A     -0.634382    11A     -0.604813    12A     -0.563398
      13A     -0.540320    14A     -0.494496    15A     -0.477904
      16A     -0.469719    17A     -0.376923

  @DF-RHF Final Energy:  -173.27964290007799

   => Energetics <=

    Nuclear Repulsion Energy =            131.8831431946948101
    One-Electron Energy =                -494.4675264000079551
    Two-Electron Energy =                 189.3047403052347875
    DFT Exchange-Correlation Energy =       0.0000000000000000
    Empirical Dispersion Energy =           0.0000000000000000
    PCM Polarization Energy =               0.0000000000000000
    EFP Energy =                            0.0000000000000000
    Total Energy =                       -173.2796429000783576

  Mulliken Charges: (a.u.)
   Center  Symbol    Alpha    Beta     Spin     Total
       1     H     0.33457  0.33457  0.00000  0.33085
       2     N     3.92317  3.92317  0.00000 -0.84634
       3     C     3.05486  3.05486  0.00000 -0.10972
       4     H     0.33344  0.33344  0.00000  0.33312
       5     C     3.15601  3.15601  0.00000 -0.31202
       6     H     0.43537  0.43537  0.00000  0.12925
       7     H     0.42044  0.42044  0.00000  0.15912
       8     C     3.24324  3.24324  0.00000 -0.48649
       9     H     0.42649  0.42649  0.00000  0.14703
      10     H     0.41316  0.41316  0.00000  0.17368
      11     H     0.42168  0.42168  0.00000  0.15665
      12     H     0.41742  0.41742  0.00000  0.16515
      13     H     0.42014  0.42014  0.00000  0.15972

   Total alpha = 17.00000, Total beta = 17.00000, Total charge = -0.00000
