  ==> Input File <==

--------------------------------------------------------------------------
set {
	reference rhf
	basis 6-31G*
}

set_num_threads( 1 )
memory 2 gb

molecule MOL {
0 1

H	 0.704874	 1.128645	 -1.982233
C	 0.748324	 1.572878	 -0.980449
C	 0.692068	 0.589600	 0.160137
O	 0.833608	 2.751317	 -0.853411
C	 -0.558097	 -0.297372	 0.091132
H	 0.731913	 1.144999	 1.089882
H	 1.581899	 -0.036321	 0.103081
C	 -1.850991	 0.512573	 -0.019058
H	 -0.476753	 -0.965681	 -0.762987
H	 -0.604799	 -0.930658	 0.975228
C	 -3.096943	 -0.368295	 -0.099594
H	 -1.800724	 1.150330	 -0.898172
H	 -1.931651	 1.177355	 0.838044
H	 -3.060452	 -1.020287	 -0.967456
H	 -3.996858	 0.233488	 -0.175704
H	 -3.191959	 -0.995686	 0.782074

	symmetry c1
}
set optking {
	frozen_dihedral = ("
		9 5 8 12,
		4 2 3 6
	")
}

ee = energy('scf')
oeprop('DIPOLE', 'QUADRUPOLE', 'MULLIKEN_CHARGES')
f=open( 'psi4out.xyz', 'w' )
f.write( "16  " )
f.write( str(ee) + "\n" )
f.write( MOL.save_string_xyz() )
f.close()
--------------------------------------------------------------------------

    Molecular point group: c1

    Geometry (in Angstrom), charge = 0, multiplicity = 1:

       Center              X                  Y                   Z               Mass
    ------------   -----------------  -----------------  -----------------  -----------------
           H          1.257809841547     0.326852629841    -1.693754304217     1.007825032070
           C          1.301259841547     0.771085629841    -0.691970304217    12.000000000000
           C          1.245003841547    -0.212192370159     0.448615695783    12.000000000000
           O          1.386543841547     1.949524629841    -0.564932304217    15.994914619560
           C         -0.005161158453    -1.099164370159     0.379610695783    12.000000000000
           H          1.284848841547     0.343206629841     1.378360695783     1.007825032070
           H          2.134834841547    -0.838113370159     0.391559695783     1.007825032070
           C         -1.298055158453    -0.289219370159     0.269420695783    12.000000000000
           H          0.076182841547    -1.767473370159    -0.474508304217     1.007825032070
           H         -0.051863158453    -1.732450370159     1.263706695783     1.007825032070
           C         -2.544007158453    -1.170087370159     0.188884695783    12.000000000000
           H         -1.247788158453     0.348537629841    -0.609693304217     1.007825032070
           H         -1.378715158453     0.375562629841     1.126522695783     1.007825032070
           H         -2.507516158453    -1.822079370159    -0.678977304217     1.007825032070
           H         -3.443922158453    -0.568304370159     0.112774695783     1.007825032070
           H         -2.639023158453    -1.797478370159     1.070552695783     1.007825032070

  Charge       = 0
  Multiplicity = 1
  Basis Set: 6-31G*
  Basis Set:

    Orbital Energies (a.u.)
    -----------------------

    Doubly Occupied:

       1A    -20.562305     2A    -11.326693     3A    -11.235863
       4A    -11.234948     5A    -11.226658     6A    -11.217240
       7A     -1.402416     8A     -1.097230     9A     -1.016012
      10A     -0.903917    11A     -0.824273    12A     -0.784761
      13A     -0.666946    14A     -0.655059    15A     -0.618083
      16A     -0.609546    17A     -0.588010    18A     -0.551126
      19A     -0.523053    20A     -0.516467    21A     -0.490728
      22A     -0.478807    23A     -0.467512    24A     -0.409915

  @DF-RHF Final Energy:  -270.01845967924891

   => Energetics <=

    Nuclear Repulsion Energy =            234.9498606028436143
    One-Electron Energy =                -831.1215098600309830
    Two-Electron Energy =                 326.1531895779386332
    DFT Exchange-Correlation Energy =       0.0000000000000000
    Empirical Dispersion Energy =           0.0000000000000000
    PCM Polarization Energy =               0.0000000000000000
    EFP Energy =                            0.0000000000000000
    Total Energy =                       -270.0184596792487355

  Mulliken Charges: (a.u.)
   Center  Symbol    Alpha    Beta     Spin     Total
       1     H     0.43222  0.43222  0.00000  0.13555
       2     C     2.83230  2.83230  0.00000  0.33540
       3     C     3.20670  3.20670  0.00000 -0.41340
       4     O     4.23795  4.23795  0.00000 -0.47589
       5     C     3.16381  3.16381  0.00000 -0.32762
       6     H     0.39994  0.39994  0.00000  0.20011
       7     H     0.40733  0.40733  0.00000  0.18534
       8     C     3.15804  3.15804  0.00000 -0.31607
       9     H     0.41960  0.41960  0.00000  0.16079
      10     H     0.41239  0.41239  0.00000  0.17521
      11     C     3.23993  3.23993  0.00000 -0.47987
      12     H     0.41749  0.41749  0.00000  0.16502
      13     H     0.41541  0.41541  0.00000  0.16918
      14     H     0.42105  0.42105  0.00000  0.15790
      15     H     0.41547  0.41547  0.00000  0.16905
      16     H     0.42036  0.42036  0.00000  0.15928

   Total alpha = 24.00000, Total beta = 24.00000, Total charge = -0.00000
