                              Psi4 1.0.54 Driver

  ==> Input File <==

--------------------------------------------------------------------------
set {
	reference rhf
	basis cc-pvtz
}

set_num_threads( 4 )
memory 2 gb

molecule MOL {
0 1

H	 2.690516	 -0.599055	 -0.996807
O	 1.917682	 -0.970130	 -0.598353
C	 0.952633	 -0.055327	 -0.619263
C	 -0.318151	 -0.570512	 0.000144
O	 1.116123	 1.021555	 -1.079224
C	 -1.454884	 0.441630	 -0.000560
H	 -0.593358	 -1.472459	 -0.537111
H	 -0.075898	 -0.890197	 1.008615
C	 -2.822577	 -0.232186	 0.000063
H	 -1.359760	 1.084704	 -0.867077
H	 -1.359641	 1.085996	 0.864983
H	 -2.954352	 -0.858985	 -0.875745
H	 -3.615886	 0.505352	 0.000019
H	 -2.953878	 -0.858359	 0.876394

	symmetry c1
}
set optking {
	frozen_dihedral = ("
		7 4 6 10
	")
}

ee,wfn = optimize('scf', return_wfn=True)
oeprop( wfn, 'DIPOLE', 'QUADRUPOLE', 'MULLIKEN_CHARGES')
f=open( 'psi4out.xyz', 'w' )
f.write( "14  " )
f.write( str(ee) + "\n" )
f.write( MOL.save_string_xyz() )
f.close()
--------------------------------------------------------------------------

    Molecular point group: c1
  Charge       = 0
  Multiplicity = 1
  Basis Set: CC-PVTZ
  Basis Set:
  @DF-RHF Final Energy:  -305.99888522981826
    Total Energy =                       -305.9988852298183133
    Molecular point group: c1
  Basis Set: CC-PVTZ
  Basis Set:
  Basis Set: CC-PVTZ
  Basis Set:
  @DF-RHF Final Energy:  -305.99909289857669
    Total Energy =                       -305.9990928985768051
  Basis Set: CC-PVTZ
  Basis Set:
  Basis Set: CC-PVTZ
  Basis Set:
  @DF-RHF Final Energy:  -305.99902388919736
    Total Energy =                       -305.9990238891972467
  Basis Set: CC-PVTZ
  Basis Set:
  Basis Set: CC-PVTZ
  Basis Set:
  @DF-RHF Final Energy:  -305.99914565827544
    Total Energy =                       -305.9991456582753244
  Basis Set: CC-PVTZ
  Basis Set:
  Basis Set: CC-PVTZ
  Basis Set:
  @DF-RHF Final Energy:  -305.99914811735914
    Total Energy =                       -305.9991481173589705
  Basis Set: CC-PVTZ
  Basis Set:
  Charge       = 0
  Multiplicity = 1
  Basis Set: CC-PVTZ
  Basis Set:

    Orbital Energies (a.u.)
    -----------------------

    Doubly Occupied:

       1A    -20.604670     2A    -20.541524     3A    -11.374706
       4A    -11.239682     5A    -11.223186     6A    -11.215564
       7A     -1.478487     8A     -1.369993     9A     -1.083189
      10A     -0.981361    11A     -0.859819    12A     -0.793198
      13A     -0.704783    14A     -0.694047    15A     -0.666912
      16A     -0.616802    17A     -0.597775    18A     -0.573989
      19A     -0.547958    20A     -0.506036    21A     -0.492456
      22A     -0.484857    23A     -0.479065    24A     -0.449055

  @DF-RHF Final Energy:  -305.99914847419490

   => Energetics <=

    Nuclear Repulsion Energy =            240.3616143606794253
    One-Electron Energy =                -893.5632994535411626
    Two-Electron Energy =                 347.2025366186668407
    DFT Exchange-Correlation Energy =       0.0000000000000000
    Empirical Dispersion Energy =           0.0000000000000000
    PCM Polarization Energy =               0.0000000000000000
    EFP Energy =                            0.0000000000000000
    Total Energy =                       -305.9991484741948398
    Molecular point group: c1
  Basis Set: CC-PVTZ
  Basis Set:

  -Total Gradient:
     Atom            X                  Y                   Z
    ------   -----------------  -----------------  -----------------
       1       -0.000017874978     0.000001778724     0.000000817387
       2        0.000021817802    -0.000016940920     0.000010447030
       3        0.000009491071     0.000041210507    -0.000017823615
       4        0.002168590784     0.002434135580    -0.003421985476
       5       -0.000010571511    -0.000030828319    -0.000003843774
       6       -0.002833477475    -0.003284067890    -0.001637741012
       7       -0.001323452328    -0.001477894596     0.003097646239
       8       -0.000002244131    -0.000013040683    -0.000008602381
       9       -0.000013064786     0.000012921251     0.000013134162
      10        0.002020818381     0.002338880955     0.001958849304
      11       -0.000009029314    -0.000006241623     0.000004804969
      12        0.000008220871     0.000005649644    -0.000003614610
      13       -0.000017184476     0.000003772867    -0.000000263038
      14       -0.000002039909    -0.000009335495     0.000008174813

  **** Optimization is complete! (in 6 steps) ****
    Final optimized geometry and variables:
    Molecular point group: c1

    Geometry (in Angstrom), charge = 0, multiplicity = 1:

    H            2.778557458247    -0.518311803946    -0.518959807662
    O            1.989841976381    -0.894101556298    -0.157838884382
    C            1.026544200353     0.021324448245    -0.208708194445
    C           -0.266402563870    -0.502834536652     0.353032074590
    O            1.210352529848     1.103586226761    -0.647768768897
    C           -1.416743843890     0.500925610254     0.341435784842
    H           -0.522496460661    -1.409223244506    -0.185816783359
    H           -0.053853714414    -0.838418911527     1.363207409403
    C           -2.782725593320    -0.172939772490     0.378293339053
    H           -1.322851535992     1.145964421569    -0.521802893345
    H           -1.314966899653     1.158334526392     1.198374705978
    H           -2.939214847750    -0.790277208140    -0.499919683682
    H           -3.576111748987     0.563864957859     0.410715651502
    H           -2.886984478264    -0.808619526016     1.251648381031

  Mulliken Charges: (a.u.)
   Center  Symbol    Alpha    Beta     Spin     Total
       1     H     0.38240  0.38240  0.00000  0.23521
       2     O     4.16004  4.16004  0.00000 -0.32008
       3     C     2.80298  2.80298  0.00000  0.39405
       4     C     3.10822  3.10822  0.00000 -0.21644
       5     O     4.19048  4.19048  0.00000 -0.38096
       6     C     3.08296  3.08296  0.00000 -0.16593
       7     H     0.43947  0.43947  0.00000  0.12105
       8     H     0.43698  0.43698  0.00000  0.12604
       9     C     3.14922  3.14922  0.00000 -0.29844
      10     H     0.43991  0.43991  0.00000  0.12018
      11     H     0.45134  0.45134  0.00000  0.09731
      12     H     0.45481  0.45481  0.00000  0.09039
      13     H     0.44584  0.44584  0.00000  0.10831
      14     H     0.45534  0.45534  0.00000  0.08931

   Total alpha = 24.00000, Total beta = 24.00000, Total charge = -0.00000

*** Psi4 exiting successfully. Buy a developer a beer!
