  ==> Input File <==

--------------------------------------------------------------------------
set {
	reference rhf
	basis 6-31G*
}

set_num_threads( 4 )
memory 2 gb

molecule MOL {
0 1

H	 -4.328886	 0.638087	 -1.020442
O	 -3.452007	 0.283848	 -0.965577
C	 -3.181085	 -0.079926	 0.364119
C	 -1.765924	 0.277073	 0.805136
H	 -3.327791	 -1.152017	 0.410903
H	 -3.905698	 0.375695	 1.036898
C	 -0.677594	 -0.417312	 -0.014550
H	 -1.637766	 1.358238	 0.744969
H	 -1.659588	 0.017670	 1.857098
C	 0.738335	 -0.034840	 0.421385
H	 -0.814977	 -0.178223	 -1.064632
H	 -0.802730	 -1.495410	 0.071702
C	 1.822265	 -0.738362	 -0.399735
H	 0.853533	 1.043532	 0.342250
H	 0.871597	 -0.279636	 1.474438
C	 3.258060	 -0.455774	 0.057203
H	 1.718003	 -0.459167	 -1.447053
H	 1.651028	 -1.811884	 -0.354513
C	 3.709143	 0.994797	 -0.123830
H	 3.930637	 -1.101717	 -0.501982
H	 3.365259	 -0.739518	 1.102287
H	 3.601178	 1.310569	 -1.158127
H	 4.753787	 1.110486	 0.148516
H	 3.135362	 1.678896	 0.492569

	symmetry c1
}
set optking {
	frozen_dihedral = ("
		1 2 3 5
	")
}

ee = optimize('scf')
oeprop('DIPOLE', 'QUADRUPOLE', 'MULLIKEN_CHARGES')
f=open( 'psi4out.xyz', 'w' )
f.write( "24  " )
f.write( str(ee) + "\n" )
f.write( MOL.save_string_xyz() )
f.close()
--------------------------------------------------------------------------

    Molecular point group: c1
  Charge       = 0
  Multiplicity = 1
  Basis Set: 6-31G*
  Basis Set:
  @DF-RHF Final Energy:  -349.24486756917298
    Total Energy =                       -349.2448675691726407
    Molecular point group: c1
  Basis Set: 6-31G*
  Basis Set:
  Basis Set: 6-31G*
  Basis Set:
  @DF-RHF Final Energy:  -349.24582779852034
    Total Energy =                       -349.2458277985203949
  Basis Set: 6-31G*
  Basis Set:
  Basis Set: 6-31G*
  Basis Set:
  @DF-RHF Final Energy:  -349.24602890715801
    Total Energy =                       -349.2460289071579496
  Basis Set: 6-31G*
  Basis Set:
  Basis Set: 6-31G*
  Basis Set:
  @DF-RHF Final Energy:  -349.24603341406936
    Total Energy =                       -349.2460334140690748
  Basis Set: 6-31G*
  Basis Set:
  Basis Set: 6-31G*
  Basis Set:
  @DF-RHF Final Energy:  -349.24604195459000
    Total Energy =                       -349.2460419545900550
  Basis Set: 6-31G*
  Basis Set:
  Charge       = 0
  Multiplicity = 1
  Basis Set: 6-31G*
  Basis Set:

    Orbital Energies (a.u.)
    -----------------------

    Doubly Occupied:

       1A    -20.551576     2A    -11.268057     3A    -11.211188
       4A    -11.211166     5A    -11.208287     6A    -11.207591
       7A    -11.205568     8A    -11.204476     9A     -1.358069
      10A     -1.084538    11A     -1.045397    12A     -0.983425
      13A     -0.911645    14A     -0.843593    15A     -0.789815
      16A     -0.772590    17A     -0.700860    18A     -0.648936
      19A     -0.627051    20A     -0.610364    21A     -0.583705
      22A     -0.575252    23A     -0.556035    24A     -0.530697
      25A     -0.523902    26A     -0.502911    27A     -0.488831
      28A     -0.482698    29A     -0.466045    30A     -0.453502
      31A     -0.449697    32A     -0.432973    33A     -0.425366

  @DF-RHF Final Energy:  -349.24604243532156

   => Energetics <=

    Nuclear Repulsion Energy =            384.6370254460879323
    One-Electron Energy =               -1235.9345205658100895
    Two-Electron Energy =                 502.0514526844007150
    DFT Exchange-Correlation Energy =       0.0000000000000000
    Empirical Dispersion Energy =           0.0000000000000000
    PCM Polarization Energy =               0.0000000000000000
    EFP Energy =                            0.0000000000000000
    Total Energy =                       -349.2460424353214421
    Molecular point group: c1
  Basis Set: 6-31G*
  Basis Set:

  -Total Gradient:
     Atom            X                  Y                   Z
    ------   -----------------  -----------------  -----------------
       1        0.000524849042     0.001405588290     0.000325158036
       2       -0.000343582215    -0.001776764662    -0.000449567002
       3       -0.001435349381     0.000491082658     0.000363637496
       4       -0.000019987698     0.000001267628     0.000089125456
       5        0.001262347302    -0.000170684844    -0.000255913293
       6        0.000034549116     0.000007066164    -0.000013966973
       7       -0.000032281404     0.000011442131    -0.000050666599
       8       -0.000008457211     0.000014279920    -0.000001915648
       9       -0.000001570162     0.000024303974    -0.000003453693
      10        0.000000894756    -0.000000366815     0.000012099992
      11        0.000015217936     0.000009314074    -0.000013926687
      12        0.000004440929     0.000006935237    -0.000008020831
      13        0.000003204458    -0.000023787316     0.000014286176
      14        0.000012825891     0.000006035271    -0.000005191081
      15       -0.000006782930     0.000006853292     0.000001356184
      16        0.000007471734    -0.000005891205    -0.000015077188
      17       -0.000001813044    -0.000008199532     0.000003567582
      18       -0.000000329500    -0.000002746702     0.000005268335
      19       -0.000007547597    -0.000000621857     0.000004628707
      20        0.000003308404     0.000006468229    -0.000004247279
      21        0.000002571842    -0.000006540940    -0.000004889290
      22        0.000002387165    -0.000002871827     0.000001528506
      23       -0.000001666697     0.000002454405     0.000003717283
      24       -0.000014700725     0.000005384425     0.000002461811

  **** Optimization is complete! (in 6 steps) ****
    Final optimized geometry and variables:
    Molecular point group: c1

    Geometry (in Angstrom), charge = 0, multiplicity = 1:

    H           -4.249358136276     0.663374449485    -1.066221088795
    O           -3.383068197770     0.300831500434    -0.962063129650
    C           -3.177758944291    -0.088503637799     0.376087731761
    C           -1.766381758324     0.279256930293     0.807509237985
    H           -3.319917412551    -1.163229143915     0.466699551235
    H           -3.897746855320     0.395805729246     1.030858821853
    C           -0.681236438619    -0.415318351160    -0.016721089290
    H           -1.652423300913     1.357779427627     0.731843123059
    H           -1.651904341785     0.019822761951     1.858895810393
    C            0.734705831970    -0.033750041918     0.420013309980
    H           -0.819612237299    -0.168672488771    -1.064547196386
    H           -0.805502005257    -1.494144138445     0.066192847734
    C            1.818842615667    -0.733246981749    -0.404250277908
    H            0.848231764886     1.044777578155     0.344101029426
    H            0.869005058379    -0.282292421060     1.472248871625
    C            3.254872332833    -0.448444267491     0.050615874880
    H            1.712053105332    -0.452019066003    -1.450685046345
    H            1.650271280037    -1.807416900021    -0.361097828312
    C            3.701458008854     1.004010961219    -0.126368412973
    H            3.928285220077    -1.090615385162    -0.512005490418
    H            3.364933579719    -0.735300438299     1.094618973689
    H            3.590964327303     1.322747005242    -1.159446583889
    H            4.746201571225     1.122012100740     0.144934963740
    H            3.126170067821     1.684279108288     0.492742828227

  Mulliken Charges: (a.u.)
   Center  Symbol    Alpha    Beta     Spin     Total
       1     H     0.27942  0.27942  0.00000  0.44117
       2     O     4.37207  4.37207  0.00000 -0.74414
       3     C     2.99867  2.99867  0.00000  0.00266
       4     C     3.15698  3.15698  0.00000 -0.31395
       5     H     0.42756  0.42756  0.00000  0.14487
       6     H     0.42971  0.42971  0.00000  0.14059
       7     C     3.15466  3.15466  0.00000 -0.30932
       8     H     0.41967  0.41967  0.00000  0.16066
       9     H     0.42580  0.42580  0.00000  0.14839
      10     C     3.15382  3.15382  0.00000 -0.30764
      11     H     0.40721  0.40721  0.00000  0.18557
      12     H     0.42612  0.42612  0.00000  0.14775
      13     C     3.15211  3.15211  0.00000 -0.30423
      14     H     0.42172  0.42172  0.00000  0.15655
      15     H     0.42662  0.42662  0.00000  0.14676
      16     C     3.15210  3.15210  0.00000 -0.30420
      17     H     0.42338  0.42338  0.00000  0.15323
      18     H     0.42293  0.42293  0.00000  0.15414
      19     C     3.24090  3.24090  0.00000 -0.48181
      20     H     0.42171  0.42171  0.00000  0.15658
      21     H     0.42424  0.42424  0.00000  0.15152
      22     H     0.42215  0.42215  0.00000  0.15570
      23     H     0.42021  0.42021  0.00000  0.15958
      24     H     0.42023  0.42023  0.00000  0.15955

   Total alpha = 33.00000, Total beta = 33.00000, Total charge =  0.00000
