  ==> Input File <==

--------------------------------------------------------------------------
set {
	reference rhf
	basis 6-31G*
}

set_num_threads( 4 )
memory 2 gb

molecule MOL {
0 1

H	 -0.683014	 1.808778	 -1.744755
C	 -1.347070	 1.212649	 -1.126030
O	 -0.774054	 0.001095	 -0.743181
H	 -2.224540	 0.967351	 -1.709301
H	 -1.660160	 1.810764	 -0.275485
C	 0.406953	 0.000033	 0.038965
C	 1.527284	 -0.003667	 -0.998752
C	 0.498933	 1.262172	 0.902524
C	 0.494271	 -1.259566	 0.906664
H	 1.452513	 0.873252	 -1.631882
H	 1.448863	 -0.881882	 -1.629595
H	 2.502020	 -0.005104	 -0.521731
H	 0.364280	 2.147110	 0.289513
H	 1.472180	 1.321775	 1.378800
H	 -0.247853	 1.275162	 1.689097
H	 0.356778	 -2.146106	 0.296587
H	 1.467182	 -1.320941	 1.383330
H	 -0.252763	 -1.267328	 1.693119

	symmetry c1
}
set optking {
	frozen_dihedral = ("
		2 3 6 7
	")
}

ee = optimize('scf')
oeprop('DIPOLE', 'QUADRUPOLE', 'MULLIKEN_CHARGES')
f=open( 'psi4out.xyz', 'w' )
f.write( "18  " )
f.write( str(ee) + "\n" )
f.write( MOL.save_string_xyz() )
f.close()
--------------------------------------------------------------------------

    Molecular point group: c1
  Charge       = 0
  Multiplicity = 1
  Basis Set: 6-31G*
  Basis Set:
  @DF-RHF Final Energy:  -271.16819973750870
    Total Energy =                       -271.1681997375089850
    Molecular point group: c1
  Basis Set: 6-31G*
  Basis Set:
  Basis Set: 6-31G*
  Basis Set:
  @DF-RHF Final Energy:  -271.17169280329421
    Total Energy =                       -271.1716928032942633
  Basis Set: 6-31G*
  Basis Set:
  Basis Set: 6-31G*
  Basis Set:
  @DF-RHF Final Energy:  -271.17397924324263
    Total Energy =                       -271.1739792432425702
  Basis Set: 6-31G*
  Basis Set:
  Basis Set: 6-31G*
  Basis Set:
  @DF-RHF Final Energy:  -271.17405699853418
    Total Energy =                       -271.1740569985342972
  Basis Set: 6-31G*
  Basis Set:
  Basis Set: 6-31G*
  Basis Set:
  @DF-RHF Final Energy:  -271.17398662263901
    Total Energy =                       -271.1739866226388926
  Basis Set: 6-31G*
  Basis Set:
  Basis Set: 6-31G*
  Basis Set:
  @DF-RHF Final Energy:  -271.17408371196558
    Total Energy =                       -271.1740837119656362
  Basis Set: 6-31G*
  Basis Set:
  Charge       = 0
  Multiplicity = 1
  Basis Set: 6-31G*
  Basis Set:

    Orbital Energies (a.u.)
    -----------------------

    Doubly Occupied:

       1A    -20.545741     2A    -11.281341     3A    -11.261566
       4A    -11.212595     5A    -11.205373     6A    -11.202981
       7A     -1.368947     8A     -1.073353     9A     -0.949496
      10A     -0.936201    11A     -0.911899    12A     -0.751943
      13A     -0.655978    14A     -0.645563    15A     -0.637584
      16A     -0.587997    17A     -0.574147    18A     -0.551568
      19A     -0.536686    20A     -0.525184    21A     -0.514829
      22A     -0.490090    23A     -0.484603    24A     -0.441058
      25A     -0.400185

  @DF-RHF Final Energy:  -271.17408386338957

   => Energetics <=

    Nuclear Repulsion Energy =            272.1868048307012486
    One-Electron Energy =                -907.2279642240025623
    Two-Electron Energy =                 363.8670755299116877
    DFT Exchange-Correlation Energy =       0.0000000000000000
    Empirical Dispersion Energy =           0.0000000000000000
    PCM Polarization Energy =               0.0000000000000000
    EFP Energy =                            0.0000000000000000
    Total Energy =                       -271.1740838633896260
    Molecular point group: c1
  Basis Set: 6-31G*
  Basis Set:

  -Total Gradient:
     Atom            X                  Y                   Z
    ------   -----------------  -----------------  -----------------
       1        0.000000468578    -0.000004618584    -0.000002802816
       2       -0.001499184032     0.000104320712     0.002726867723
       3        0.002343544054    -0.001055448609    -0.003941948393
       4       -0.000002274743    -0.000006042078    -0.000001200261
       5        0.000003329807     0.000008552478     0.000025006431
       6       -0.000829560275     0.003502724114     0.001097194451
       7        0.000082817796    -0.002557237415     0.000154533136
       8       -0.000014967667     0.000012675426    -0.000017467077
       9       -0.000040624370     0.000000967638    -0.000031979552
      10        0.000004467189    -0.000002214952    -0.000025039135
      11       -0.000011971397    -0.000012380004     0.000031798713
      12       -0.000002149795     0.000020495129    -0.000000445637
      13       -0.000001411107    -0.000004907490     0.000008174494
      14       -0.000001941008    -0.000006632975    -0.000008353335
      15       -0.000014907263     0.000006493626     0.000003904666
      16       -0.000008032753    -0.000030981767     0.000002825292
      17       -0.000010975561     0.000016788740    -0.000022936576
      18        0.000003372550     0.000007446014     0.000001867876

  **** Optimization is complete! (in 7 steps) ****
    Final optimized geometry and variables:
    Molecular point group: c1

    Geometry (in Angstrom), charge = 0, multiplicity = 1:

    H           -0.899782644949     1.555666761726    -1.538054200745
    C           -1.544292565386     0.932508923417    -0.922397648155
    O           -0.915960887025    -0.238679111994    -0.505123653395
    H           -2.393627922610     0.630193388860    -1.520594849515
    H           -1.906122651421     1.526347716876    -0.089002330808
    C            0.320055046379    -0.172302503961     0.189389571239
    C            1.455489533393    -0.216955294613    -0.836596113996
    C            0.439462792514     1.059209347803     1.090610783792
    C            0.341892345088    -1.439447424826     1.043224248140
    H            1.427598563893     0.649345742936    -1.490837593634
    H            1.362398670043    -1.104928257393    -1.451215312427
    H            2.425316614762    -0.233689824755    -0.348812418120
    H            0.475144640667     1.983417967863     0.524313171945
    H            1.354739258025     0.996303103538     1.669284480540
    H           -0.391690408960     1.114331368256     1.785844203346
    H            0.202726950008    -2.312273764974     0.415583821912
    H            1.285136263664    -1.540314868378     1.570933643603
    H           -0.461813242206    -1.417357055645     1.771036360414

  Mulliken Charges: (a.u.)
   Center  Symbol    Alpha    Beta     Spin     Total
       1     H     0.43206  0.43206  0.00000  0.13588
       2     C     3.07774  3.07774  0.00000 -0.15549
       3     O     4.32120  4.32120  0.00000 -0.64241
       4     H     0.41256  0.41256  0.00000  0.17487
       5     H     0.42798  0.42798  0.00000  0.14404
       6     C     2.84189  2.84189  0.00000  0.31622
       7     C     3.23632  3.23632  0.00000 -0.47264
       8     C     3.25561  3.25561  0.00000 -0.51121
       9     C     3.23228  3.23228  0.00000 -0.46455
      10     H     0.42164  0.42164  0.00000  0.15673
      11     H     0.41347  0.41347  0.00000  0.17306
      12     H     0.42418  0.42418  0.00000  0.15165
      13     H     0.41773  0.41773  0.00000  0.16453
      14     H     0.41563  0.41563  0.00000  0.16874
      15     H     0.41402  0.41402  0.00000  0.17195
      16     H     0.41302  0.41302  0.00000  0.17396
      17     H     0.42565  0.42565  0.00000  0.14870
      18     H     0.41702  0.41702  0.00000  0.16597

   Total alpha = 25.00000, Total beta = 25.00000, Total charge =  0.00000
