  ==> Input File <==

--------------------------------------------------------------------------
set {
	reference rhf
	basis cc-pvtz
}

set_num_threads( 4 )
memory 2 gb

molecule MOL {
0 1

H	 3.721907	 -0.933076	 -0.066039
O	 2.824271	 -1.154299	 0.131461
C	 2.076458	 -0.067370	 -0.038225
C	 0.626018	 -0.337582	 0.258241
O	 2.538288	 0.965419	 -0.381593
C	 -0.267326	 0.883135	 0.076490
H	 0.325620	 -1.161483	 -0.378003
H	 0.574537	 -0.713685	 1.275261
C	 -1.726822	 0.642622	 0.463839
H	 -0.210803	 1.217591	 -0.953497
H	 0.129920	 1.693110	 0.675679
C	 -2.480891	 -0.340606	 -0.429852
H	 -2.243098	 1.597649	 0.438609
H	 -1.776542	 0.301208	 1.495542
C	 -3.548474	 -1.124481	 0.326641
H	 -2.945923	 0.204836	 -1.246719
H	 -1.787739	 -1.040759	 -0.885134
H	 -4.069298	 -1.812181	 -0.329480
H	 -4.286382	 -0.459601	 0.762673
H	 -3.110482	 -1.704069	 1.132492

	symmetry c1
}
set optking {
	frozen_dihedral = ("
		16 12 9 6
	")
}

ee = optimize('scf')
oeprop('DIPOLE', 'QUADRUPOLE', 'MULLIKEN_CHARGES')
f=open( 'psi4out.xyz', 'w' )
f.write( "20  " )
f.write( str(ee) + "\n" )
f.write( MOL.save_string_xyz() )
f.close()
--------------------------------------------------------------------------

    Molecular point group: c1
  Charge       = 0
  Multiplicity = 1
  Basis Set: CC-PVTZ
  Basis Set:
  @DF-RHF Final Energy:  -384.09139590532419
    Total Energy =                       -384.0913959053239637
    Molecular point group: c1
  Basis Set: CC-PVTZ
  Basis Set:
  Basis Set: CC-PVTZ
  Basis Set:
  @DF-RHF Final Energy:  -384.09167662657347
    Total Energy =                       -384.0916766265731326
  Basis Set: CC-PVTZ
  Basis Set:
  Basis Set: CC-PVTZ
  Basis Set:
  @DF-RHF Final Energy:  -384.09189455926747
    Total Energy =                       -384.0918945592673026
  Basis Set: CC-PVTZ
  Basis Set:
  Basis Set: CC-PVTZ
  Basis Set:
  @DF-RHF Final Energy:  -384.09166454767865
    Total Energy =                       -384.0916645476784197
  Basis Set: CC-PVTZ
  Basis Set:
  Basis Set: CC-PVTZ
  Basis Set:
  @DF-RHF Final Energy:  -384.09191256935765
    Total Energy =                       -384.0919125693579872
  Basis Set: CC-PVTZ
  Basis Set:
  Basis Set: CC-PVTZ
  Basis Set:
  @DF-RHF Final Energy:  -384.09191737436964
    Total Energy =                       -384.0919173743694728
  Basis Set: CC-PVTZ
  Basis Set:
  Charge       = 0
  Multiplicity = 1
  Basis Set: CC-PVTZ
  Basis Set:

    Orbital Energies (a.u.)
    -----------------------

    Doubly Occupied:

       1A    -20.604032     2A    -20.540643     3A    -11.373637
       4A    -11.239022     5A    -11.221280     6A    -11.218722
       7A    -11.218131     8A    -11.210835     9A     -1.477619
      10A     -1.369140    11A     -1.097009    12A     -1.041528
      13A     -0.962497    14A     -0.870350    15A     -0.815986
      16A     -0.780601    17A     -0.703818    18A     -0.693863
      19A     -0.666550    20A     -0.633527    21A     -0.608103
      22A     -0.594878    23A     -0.581955    24A     -0.554192
      25A     -0.539720    26A     -0.511164    27A     -0.501383
      28A     -0.484684    29A     -0.470267    30A     -0.466286
      31A     -0.457297    32A     -0.446640

  @DF-RHF Final Energy:  -384.09191743194185

   => Energetics <=

    Nuclear Repulsion Energy =            377.6348910443568911
    One-Electron Energy =               -1271.5428990993336811
    Two-Electron Energy =                 509.8160906230346541
    DFT Exchange-Correlation Energy =       0.0000000000000000
    Empirical Dispersion Energy =           0.0000000000000000
    PCM Polarization Energy =               0.0000000000000000
    EFP Energy =                            0.0000000000000000
    Total Energy =                       -384.0919174319421359
    Molecular point group: c1
  Basis Set: CC-PVTZ
  Basis Set:

  -Total Gradient:
     Atom            X                  Y                   Z
    ------   -----------------  -----------------  -----------------
       1       -0.000002871712     0.000003935770     0.000001883305
       2       -0.000001650593    -0.000007609144     0.000012694322
       3        0.000005772284    -0.000002887849    -0.000032234824
       4        0.000003917816    -0.000005310003    -0.000037278353
       5       -0.000000011722     0.000008236622     0.000016507513
       6        0.000876186152    -0.002268157130     0.001672700169
       7       -0.000016052238    -0.000021756448    -0.000006748706
       8       -0.000013348814     0.000009185685    -0.000004817132
       9       -0.001991930934     0.003463085022    -0.001778815027
      10       -0.000025450234    -0.000017164735     0.000035296935
      11        0.000023759868     0.000018235984     0.000002945229
      12        0.004379151823    -0.001598725105    -0.002054826461
      13        0.000021874818     0.000051677233     0.000058568022
      14        0.000029835094     0.000032818790    -0.000049024767
      15       -0.000061171588     0.000014878211    -0.000076238631
      16       -0.003219067065     0.000353162506     0.002310895069
      17       -0.000000752510    -0.000042168151    -0.000061785055
      18       -0.000024289090    -0.000008563011     0.000008313148
      19       -0.000008970120    -0.000002266341     0.000013756805
      20        0.000025068773     0.000019392096    -0.000031791557

  **** Optimization is complete! (in 7 steps) ****
    Final optimized geometry and variables:
    Molecular point group: c1

    Geometry (in Angstrom), charge = 0, multiplicity = 1:

    H            3.679368363477    -0.834637527382    -0.123081068336
    O            2.795371589591    -1.038838204974     0.142590220809
    C            2.027386095985     0.018985731161    -0.103846117769
    C            0.597253006345    -0.226747566036     0.294825001789
    O            2.458788921847     1.011927480047    -0.579041351747
    C           -0.318202856784     0.963898532360     0.040316537722
    H            0.272143361457    -1.114598684941    -0.234876454757
    H            0.602794027763    -0.495895630144     1.346202342162
    C           -1.770081701226     0.705464388973     0.448676759356
    H           -0.269027390451     1.238790938185    -1.007553225879
    H            0.065122268836     1.815138007665     0.589836698960
    C           -2.542183740086    -0.244080262602    -0.480523855072
    H           -2.295863870979     1.652166391492     0.504032715250
    H           -1.776368869026     0.303285720913     1.459014299897
    C           -3.626410985760    -1.035308431613     0.247397509300
    H           -3.021323185329     0.338550338006    -1.260806671941
    H           -1.868208162905    -0.935352885847    -0.973584797323
    H           -4.192906176266    -1.652106238884    -0.440897295928
    H           -4.324293390460    -0.371168809548     0.746852602065
    H           -3.196658196134    -1.686650624777     1.001140219340

  Mulliken Charges: (a.u.)
   Center  Symbol    Alpha    Beta     Spin     Total
       1     H     0.38239  0.38239  0.00000  0.23521
       2     O     4.16042  4.16042  0.00000 -0.32085
       3     C     2.80338  2.80338  0.00000  0.39324
       4     C     3.11162  3.11162  0.00000 -0.22324
       5     O     4.19097  4.19097  0.00000 -0.38194
       6     C     3.09121  3.09121  0.00000 -0.18242
       7     H     0.43768  0.43768  0.00000  0.12464
       8     H     0.43761  0.43761  0.00000  0.12479
       9     C     3.10170  3.10170  0.00000 -0.20340
      10     H     0.44493  0.44493  0.00000  0.11013
      11     H     0.44056  0.44056  0.00000  0.11888
      12     C     3.08847  3.08847  0.00000 -0.17694
      13     H     0.44285  0.44285  0.00000  0.11430
      14     H     0.45700  0.45700  0.00000  0.08600
      15     C     3.14809  3.14809  0.00000 -0.29618
      16     H     0.44859  0.44859  0.00000  0.10282
      17     H     0.45435  0.45435  0.00000  0.09130
      18     H     0.44835  0.44835  0.00000  0.10330
      19     H     0.45373  0.45373  0.00000  0.09255
      20     H     0.45609  0.45609  0.00000  0.08782

   Total alpha = 32.00000, Total beta = 32.00000, Total charge = -0.00000
