                              Psi4 1.0.54 Driver

  ==> Input File <==

--------------------------------------------------------------------------
set {
	reference rhf
	basis cc-pvtz
}

set_num_threads( 4 )
memory 2 gb

molecule MOL {
0 1

H	 1.036595	 -5.296396	 -1.925443
O	 1.929043	 -5.085505	 -2.127659
C	 2.002670	 -3.828294	 -2.746749
C	 1.752877	 -2.667998	 -1.794908
H	 3.003539	 -3.756033	 -3.150507
H	 1.312186	 -3.777805	 -3.586470
C	 0.336226	 -2.616259	 -1.227217
H	 2.470674	 -2.727241	 -0.982249
H	 1.959140	 -1.745146	 -2.331749
C	 0.113298	 -1.420414	 -0.302504
H	 0.133031	 -3.534306	 -0.686012
H	 -0.378831	 -2.571330	 -2.046950
C	 -1.311023	 -1.277304	 0.237018
H	 0.808571	 -1.479563	 0.531357
H	 0.367921	 -0.513488	 -0.843909
C	 -2.041121	 -0.006551	 -0.194127
H	 -1.888548	 -2.136293	 -0.093331
H	 -1.289731	 -1.328757	 1.323321
C	 -3.489218	 0.042606	 0.286507
H	 -2.022185	 0.066287	 -1.279394
H	 -1.518764	 0.869305	 0.178730
C	 -4.219984	 1.311773	 -0.139038
H	 -4.022855	 -0.824300	 -0.093339
H	 -3.510372	 -0.038577	 1.370031
H	 -4.244251	 1.405725	 -1.219696
H	 -5.244345	 1.313233	 0.215630
H	 -3.732090	 2.196311	 0.257073

	symmetry c1
}
set optking {
	frozen_dihedral = ("
		14 10 13 16
	")
}

ee,wfn = optimize('scf', return_wfn=True)
oeprop( wfn, 'DIPOLE', 'QUADRUPOLE', 'MULLIKEN_CHARGES')
f=open( 'psi4out.xyz', 'w' )
f.write( "27  " )
f.write( str(ee) + "\n" )
f.write( MOL.save_string_xyz() )
f.close()
--------------------------------------------------------------------------

    Molecular point group: c1
  Charge       = 0
  Multiplicity = 1
  Basis Set: CC-PVTZ
  Basis Set:
  @DF-RHF Final Energy:  -388.42370947264146
    Total Energy =                       -388.4237094726406667
    Molecular point group: c1
  Basis Set: CC-PVTZ
  Basis Set:
  Basis Set: CC-PVTZ
  Basis Set:
  @DF-RHF Final Energy:  -388.42411089952952
    Total Energy =                       -388.4241108995292961
  Basis Set: CC-PVTZ
  Basis Set:
  Basis Set: CC-PVTZ
  Basis Set:
  @DF-RHF Final Energy:  -388.42421805578903
    Total Energy =                       -388.4242180557887423
  Basis Set: CC-PVTZ
  Basis Set:
  Basis Set: CC-PVTZ
  Basis Set:
  @DF-RHF Final Energy:  -388.42421864277878
    Total Energy =                       -388.4242186427790102
  Basis Set: CC-PVTZ
  Basis Set:
  Basis Set: CC-PVTZ
  Basis Set:
  @DF-RHF Final Energy:  -388.42422382112545
    Total Energy =                       -388.4242238211254517
  Basis Set: CC-PVTZ
  Basis Set:
  Charge       = 0
  Multiplicity = 1
  Basis Set: CC-PVTZ
  Basis Set:

    Orbital Energies (a.u.)
    -----------------------

    Doubly Occupied:

       1A    -20.545243     2A    -11.265066     3A    -11.217919
       4A    -11.214114     5A    -11.213714     6A    -11.213198
       7A    -11.212891     8A    -11.212309     9A    -11.207347
      10A     -1.363220    11A     -1.094864    12A     -1.063567
      13A     -1.011726    14A     -0.951241    15A     -0.883776
      16A     -0.821495    17A     -0.793720    18A     -0.790151
      19A     -0.696529    20A     -0.652465    21A     -0.636955
      22A     -0.616534    23A     -0.605011    24A     -0.582576
      25A     -0.580140    26A     -0.555170    27A     -0.538157
      28A     -0.523633    29A     -0.507772    30A     -0.501954
      31A     -0.478412    32A     -0.476408    33A     -0.470983
      34A     -0.462662    35A     -0.453178    36A     -0.442831
      37A     -0.423793

  @DF-RHF Final Energy:  -388.42422395881266

   => Energetics <=

    Nuclear Repulsion Energy =            453.9376765291759170
    One-Electron Energy =               -1426.1623531362570247
    Two-Electron Energy =                 583.8004526482686742
    DFT Exchange-Correlation Energy =       0.0000000000000000
    Empirical Dispersion Energy =           0.0000000000000000
    PCM Polarization Energy =               0.0000000000000000
    EFP Energy =                            0.0000000000000000
    Total Energy =                       -388.4242239588124903
    Molecular point group: c1
  Basis Set: CC-PVTZ
  Basis Set:

  -Total Gradient:
     Atom            X                  Y                   Z
    ------   -----------------  -----------------  -----------------
       1        0.000018489668     0.000001640942    -0.000007998982
       2       -0.000015641534    -0.000002931433     0.000009845445
       3       -0.000005692580     0.000013939908    -0.000011848576
       4        0.000004736954    -0.000010396769     0.000015031475
       5       -0.000009615673    -0.000003754627     0.000004135513
       6        0.000006084257    -0.000005010343     0.000007459211
       7        0.000003357837    -0.000012978928    -0.000016081988
       8       -0.000001038898     0.000002970790    -0.000006750949
       9       -0.000001438429    -0.000004066751     0.000004754830
      10       -0.000010648537    -0.000331750497     0.000049076163
      11       -0.000004570653     0.000008303264    -0.000007426777
      12        0.000011428676     0.000007525655     0.000005190737
      13       -0.000096424611    -0.000080292556    -0.000248285421
      14        0.000021543352     0.000302487401     0.000004702515
      15       -0.000012219298    -0.000001316484     0.000002658053
      16        0.000068854665     0.000129245704     0.000180949761
      17        0.000009007837    -0.000004121588     0.000002517485
      18        0.000003999177     0.000005839435     0.000003985170
      19        0.000007220888     0.000001060589     0.000007029698
      20        0.000005471402     0.000000376791     0.000010184670
      21       -0.000005461670    -0.000008994656     0.000003956455
      22       -0.000003706495    -0.000006545300    -0.000011701966
      23       -0.000000151118     0.000001031661     0.000006754404
      24        0.000000110771     0.000001212917    -0.000007755670
      25        0.000000451864     0.000005214484     0.000004720260
      26        0.000006989457    -0.000003823919    -0.000004671673
      27       -0.000001137305    -0.000004865696    -0.000000429841

  **** Optimization is complete! (in 6 steps) ****
    Final optimized geometry and variables:
    Molecular point group: c1

    Geometry (in Angstrom), charge = 0, multiplicity = 1:

    H            1.509313164753    -3.519059351089    -0.999295108031
    O            2.409004018717    -3.335514992936    -1.195509172948
    C            2.525113977830    -2.082175933504    -1.815571670833
    C            2.289234959621    -0.913764014115    -0.870106738790
    H            3.533994042806    -2.036738855411    -2.202801708335
    H            1.850104268859    -2.015962039406    -2.666667223603
    C            0.866654456011    -0.825660118867    -0.324715523416
    H            2.992949655863    -0.988191106499    -0.046539254669
    H            2.525772818923     0.002661339344    -1.405562619742
    C            0.645645204507     0.376955944941     0.590659346964
    H            0.628935411335    -1.730501749550     0.228450857733
    H            0.163748699183    -0.775967047269    -1.154485764871
    C           -0.792752541150     0.485213886700     1.136263291726
    H            1.351504344161     0.325135890023     1.413130189246
    H            0.895205800239     1.281459171456     0.043734087271
    C           -1.520951832293     1.753853582492     0.697582821589
    H           -1.369372092130    -0.378068577831     0.816492785544
    H           -0.779735488682     0.446775026253     2.220793346851
    C           -2.950148846905     1.848028744916     1.222547253707
    H           -1.534023027069     1.801663475675    -0.389299502027
    H           -0.958227431889     2.622383301643     1.031569794695
    C           -3.669163970704     3.118670452540     0.781507607280
    H           -3.513362713850     0.981145660051     0.887533781840
    H           -2.937045586109     1.800350457401     2.308079135679
    H           -3.729233474752     3.179142037306    -0.300144971704
    H           -4.680231375454     3.153617995791     1.170726958961
    H           -3.149354639965     4.004156030652     1.132019119895

  Mulliken Charges: (a.u.)
   Center  Symbol    Alpha    Beta     Spin     Total
       1     H     0.39236  0.39236  0.00000  0.21528
       2     O     4.20568  4.20568  0.00000 -0.41136
       3     C     2.98000  2.98000  0.00000  0.03999
       4     C     3.08994  3.08994  0.00000 -0.17988
       5     H     0.44850  0.44850  0.00000  0.10300
       6     H     0.47007  0.47007  0.00000  0.05987
       7     C     3.10080  3.10080  0.00000 -0.20160
       8     H     0.45101  0.45101  0.00000  0.09799
       9     H     0.45548  0.45548  0.00000  0.08905
      10     C     3.09823  3.09823  0.00000 -0.19646
      11     H     0.45603  0.45603  0.00000  0.08794
      12     H     0.45333  0.45333  0.00000  0.09334
      13     C     3.09798  3.09798  0.00000 -0.19596
      14     H     0.44658  0.44658  0.00000  0.10683
      15     H     0.45350  0.45350  0.00000  0.09301
      16     C     3.08495  3.08495  0.00000 -0.16990
      17     H     0.45549  0.45549  0.00000  0.08902
      18     H     0.44788  0.44788  0.00000  0.10424
      19     C     3.08521  3.08521  0.00000 -0.17042
      20     H     0.45537  0.45537  0.00000  0.08927
      21     H     0.45361  0.45361  0.00000  0.09278
      22     C     3.14999  3.14999  0.00000 -0.29997
      23     H     0.45452  0.45452  0.00000  0.09097
      24     H     0.45457  0.45457  0.00000  0.09087
      25     H     0.45545  0.45545  0.00000  0.08909
      26     H     0.44838  0.44838  0.00000  0.10324
      27     H     0.45511  0.45511  0.00000  0.08978

   Total alpha = 37.00000, Total beta = 37.00000, Total charge = -0.00000

*** Psi4 exiting successfully. Buy a developer a beer!
