                              Psi4 1.0.54 Driver

  ==> Input File <==

--------------------------------------------------------------------------
set {
	reference rhf
	basis cc-pvtz
}

set_num_threads( 4 )
memory 2 gb

molecule MOL {
0 1

O	 0.798402	 0.050596	 -0.758914
C	 1.704209	 0.119472	 -0.000093
C	 1.867864	 1.162344	 1.075674
O	 2.715427	 -0.733672	 0.000025
C	 0.733120	 2.175343	 1.125821
H	 1.967367	 0.636532	 2.019639
H	 2.822670	 1.649659	 0.907413
C	 0.931201	 3.215019	 2.224846
H	 -0.205098	 1.653690	 1.277144
H	 0.651035	 2.667816	 0.163521
C	 -0.197048	 4.240313	 2.290396
H	 1.015273	 2.714424	 3.186920
H	 1.875324	 3.732304	 2.069008
C	 0.000621	 5.279145	 3.389107
H	 -1.140400	 3.724827	 2.446984
H	 -0.280860	 4.742068	 1.330512
H	 0.053715	 4.810584	 4.366279
H	 -0.816909	 5.990494	 3.408153
H	 0.919850	 5.836142	 3.240768
C	 4.020999	 -0.192556	 0.000019
H	 4.182809	 0.412891	 -0.879449
H	 4.692590	 -1.035653	 0.000152
H	 4.182726	 0.413087	 0.879368

	symmetry c1
}
set optking {
	frozen_dihedral = ("
		1 2 4 20
	")
}

ee,wfn = optimize('scf', return_wfn=True)
oeprop( wfn, 'DIPOLE', 'QUADRUPOLE', 'MULLIKEN_CHARGES')
f=open( 'psi4out.xyz', 'w' )
f.write( "23  " )
f.write( str(ee) + "\n" )
f.write( MOL.save_string_xyz() )
f.close()
--------------------------------------------------------------------------

    Molecular point group: c1
  Charge       = 0
  Multiplicity = 1
  Basis Set: CC-PVTZ
  Basis Set:
  @DF-RHF Final Energy:  -423.10642997909366
    Total Energy =                       -423.1064299790942869
    Molecular point group: c1
  Basis Set: CC-PVTZ
  Basis Set:
  Basis Set: CC-PVTZ
  Basis Set:
  @DF-RHF Final Energy:  -422.90697194832103
    Total Energy =                       -422.9069719483208019
  Basis Set: CC-PVTZ
  Basis Set:
  Basis Set: CC-PVTZ
  Basis Set:
  @DF-RHF Final Energy:  -423.03682640758569
    Total Energy =                       -423.0368264075857496
  Basis Set: CC-PVTZ
  Basis Set:
  Basis Set: CC-PVTZ
  Basis Set:
  @DF-RHF Final Energy:  -423.10498662955212
    Total Energy =                       -423.1049866295525135
  Basis Set: CC-PVTZ
  Basis Set:
  @DF-RHF Final Energy:  -423.11121155840976
    Total Energy =                       -423.1112115584105595
  @DF-RHF Final Energy:  -423.11103637130361
    Total Energy =                       -423.1110363713036122
  @DF-RHF Final Energy:  -423.11226227370571
    Total Energy =                       -423.1122622737059373
  @DF-RHF Final Energy:  -423.11267569907693
    Total Energy =                       -423.1126756990771582
  @DF-RHF Final Energy:  -423.11269475846473
    Total Energy =                       -423.1126947584641584
  @DF-RHF Final Energy:  -423.11269771519500
    Total Energy =                       -423.1126977151952815
  @DF-RHF Final Energy:  -423.08116575494586
    Total Energy =                       -423.0811657549461415
  @DF-RHF Final Energy:  -423.11051341382392
    Total Energy =                       -423.1105134138234689
  @DF-RHF Final Energy:  -423.11252084276424
    Total Energy =                       -423.1125208427645248
  Basis Set: CC-PVTZ
  Basis Set:
  @DF-RHF Final Energy:  -423.11258919700811
    Total Energy =                       -423.1125891970078783
  Basis Set: CC-PVTZ
  Basis Set:
  Basis Set: CC-PVTZ
  Basis Set:
  @DF-RHF Final Energy:  -423.11269209966110
    Total Energy =                       -423.1126920996608760
  Basis Set: CC-PVTZ
  Basis Set:
  Basis Set: CC-PVTZ
  Basis Set:
  @DF-RHF Final Energy:  -423.11269787755600
    Total Energy =                       -423.1126978775563430
  Basis Set: CC-PVTZ
  Basis Set:
  Charge       = 0
  Multiplicity = 1
  Basis Set: CC-PVTZ
  Basis Set:

    Orbital Energies (a.u.)
    -----------------------

    Doubly Occupied:

       1A    -20.584696     2A    -20.538271     3A    -11.366839
       4A    -11.292069     5A    -11.241082     6A    -11.221266
       7A    -11.219444     8A    -11.217147     9A    -11.210065
      10A     -1.462590    11A     -1.369744    12A     -1.097192
      13A     -1.042577    14A     -0.982644    15A     -0.950719
      16A     -0.853898    17A     -0.799243    18A     -0.766703
      19A     -0.699764    20A     -0.685402    21A     -0.676455
      22A     -0.654709    23A     -0.618443    24A     -0.607415
      25A     -0.581229    26A     -0.570516    27A     -0.558368
      28A     -0.540549    29A     -0.512199    30A     -0.504386
      31A     -0.488122    32A     -0.477530    33A     -0.470944
      34A     -0.468965    35A     -0.452638    36A     -0.433851

  @DF-RHF Final Energy:  -423.11269853875871

   => Energetics <=

    Nuclear Repulsion Energy =            454.7412063243039597
    One-Electron Energy =               -1477.2724711981195469
    Two-Electron Energy =                 599.4185663350565392
    DFT Exchange-Correlation Energy =       0.0000000000000000
    Empirical Dispersion Energy =           0.0000000000000000
    PCM Polarization Energy =               0.0000000000000000
    EFP Energy =                            0.0000000000000000
    Total Energy =                       -423.1126985387591048
    Molecular point group: c1
  Basis Set: CC-PVTZ
  Basis Set:

  -Total Gradient:
     Atom            X                  Y                   Z
    ------   -----------------  -----------------  -----------------
       1        0.002275735975     0.002210049538    -0.002086063596
       2       -0.003223643847    -0.002728147471     0.001186431905
       3       -0.000062595130    -0.000093705196     0.000107187088
       4        0.000990380193    -0.000117331410     0.004055204063
       5        0.000008681198     0.000022619877     0.000002330897
       6        0.000008032924     0.000013999824    -0.000004959516
       7        0.000045600138     0.000010077851    -0.000019058126
       8        0.000000403955     0.000001314826    -0.000003279516
       9       -0.000011807282     0.000000572656     0.000003361530
      10       -0.000005889794    -0.000001612339    -0.000001880080
      11       -0.000002082937    -0.000021168897     0.000006216482
      12        0.000005427867    -0.000002970454     0.000003196967
      13        0.000004738101    -0.000012467766     0.000001555059
      14       -0.000010850581     0.000011167547    -0.000019012231
      15       -0.000004518091     0.000008086421     0.000001282435
      16       -0.000008117209     0.000005201928    -0.000002119072
      17        0.000004958937    -0.000005470594     0.000002160475
      18        0.000004529308    -0.000005597696    -0.000005937350
      19        0.000005620734    -0.000005708513     0.000003952276
      20       -0.000029483620     0.000713337831    -0.003296027918
      21        0.000033791900    -0.000010864771     0.000005580592
      22       -0.000013363955    -0.000008502919    -0.000003258749
      23       -0.000015548783     0.000017119731     0.000063136382

  **** Optimization is complete! (in 17 steps) ****
    Final optimized geometry and variables:
    Molecular point group: c1

    Geometry (in Angstrom), charge = 0, multiplicity = 1:

    O           -0.695901291232    -1.054067752784    -2.077762222945
    C            0.186099024076    -1.270952106020    -1.329841302677
    C            0.459942042858    -0.456819623253    -0.085369236360
    O            1.004755958688    -2.313332878497    -1.542687112001
    C           -0.644180875780     0.539549765566     0.242833393683
    H            0.619196246501    -1.149199516855     0.735059801409
    H            1.402563868408     0.064235900077    -0.225784476433
    C           -0.340818458873     1.349316843890     1.499909059186
    H           -1.579920571614     0.005879905502     0.365377849888
    H           -0.785411965503     1.204143280550    -0.600842417599
    C           -1.439267718985     2.350254521493     1.846382953162
    H           -0.194415875781     0.674859449579     2.340742276523
    H            0.599189393855     1.881667932125     1.370766824098
    C           -1.135915736095     3.161525033140     3.101380591370
    H           -2.378026433753     1.819799163053     1.977943203932
    H           -1.586377257169     3.024569537745     1.007543071593
    H           -1.017759034216     2.516513312170     3.965821747839
    H           -1.934564099038     3.861237498913     3.318423307738
    H           -0.219440204450     3.731136167938     2.987782904977
    C            2.399986901500    -2.134277829756    -1.514862017866
    H            2.701188292891    -1.330471777120    -2.175765645231
    H            2.829865460548    -3.057208572313    -1.868404198565
    H            2.764117850588    -1.937534157663    -0.514342761683

  Mulliken Charges: (a.u.)
   Center  Symbol    Alpha    Beta     Spin     Total
       1     O     4.17032  4.17032  0.00000 -0.34063
       2     C     2.79726  2.79726  0.00000  0.40548
       3     C     3.13320  3.13320  0.00000 -0.26639
       4     O     4.14720  4.14720  0.00000 -0.29439
       5     C     3.08400  3.08400  0.00000 -0.16799
       6     H     0.43657  0.43657  0.00000  0.12685
       7     H     0.44404  0.44404  0.00000  0.11192
       8     C     3.08777  3.08777  0.00000 -0.17555
       9     H     0.44517  0.44517  0.00000  0.10965
      10     H     0.44290  0.44290  0.00000  0.11420
      11     C     3.08504  3.08504  0.00000 -0.17008
      12     H     0.45579  0.45579  0.00000  0.08841
      13     H     0.45652  0.45652  0.00000  0.08697
      14     C     3.15023  3.15023  0.00000 -0.30046
      15     H     0.45254  0.45254  0.00000  0.09492
      16     H     0.45267  0.45267  0.00000  0.09467
      17     H     0.45528  0.45528  0.00000  0.08945
      18     H     0.44721  0.44721  0.00000  0.10557
      19     H     0.45549  0.45549  0.00000  0.08902
      20     C     3.04665  3.04665  0.00000 -0.09331
      21     H     0.45767  0.45767  0.00000  0.08466
      22     H     0.43553  0.43553  0.00000  0.12895
      23     H     0.46095  0.46095  0.00000  0.07810

   Total alpha = 36.00000, Total beta = 36.00000, Total charge = -0.00000

*** Psi4 exiting successfully. Buy a developer a beer!
