                              Psi4 1.0.54 Driver

  ==> Input File <==

--------------------------------------------------------------------------
set {
	reference rhf
	basis cc-pvtz
}

set_num_threads( 4 )
memory 2 gb

molecule MOL {
0 1

H	 2.769162	 1.908420	 -1.180579
N	 2.004182	 1.269541	 -1.228091
C	 1.860978	 0.530248	 0.016256
H	 2.183981	 0.651080	 -1.991324
C	 0.644130	 -0.381765	 -0.031064
H	 1.736776	 1.251043	 0.817465
H	 2.743670	 -0.061708	 0.262019
C	 -0.678115	 0.376691	 0.025731
H	 0.693998	 -0.977147	 -0.936845
H	 0.693309	 -1.082142	 0.800523
C	 -1.900706	 -0.535531	 -0.022488
H	 -0.725296	 1.079516	 -0.802982
H	 -0.715474	 0.974884	 0.933278
C	 -3.220513	 0.226854	 0.028039
H	 -1.865036	 -1.134397	 -0.928236
H	 -1.857948	 -1.236381	 0.806820
H	 -3.309098	 0.911849	 -0.808725
H	 -4.066838	 -0.449485	 -0.008086
H	 -3.301685	 0.809374	 0.939860

	symmetry c1
}
set optking {
	frozen_dihedral = ("
		6 3 5 9
	")
}

ee,wfn = optimize('scf', return_wfn=True)
oeprop( wfn, 'DIPOLE', 'QUADRUPOLE', 'MULLIKEN_CHARGES')
f=open( 'psi4out.xyz', 'w' )
f.write( "19  " )
f.write( str(ee) + "\n" )
f.write( MOL.save_string_xyz() )
f.close()
--------------------------------------------------------------------------

    Molecular point group: c1
  Charge       = 0
  Multiplicity = 1
  Basis Set: CC-PVTZ
  Basis Set:
  @DF-RHF Final Energy:  -251.44726882842045
    Total Energy =                       -251.4472688284205333
    Molecular point group: c1
  Basis Set: CC-PVTZ
  Basis Set:
  Basis Set: CC-PVTZ
  Basis Set:
  @DF-RHF Final Energy:  -251.44742596268722
    Total Energy =                       -251.4474259626872481
  Basis Set: CC-PVTZ
  Basis Set:
  Basis Set: CC-PVTZ
  Basis Set:
  @DF-RHF Final Energy:  -251.44744859114266
    Total Energy =                       -251.4474485911425745
  Basis Set: CC-PVTZ
  Basis Set:
  Basis Set: CC-PVTZ
  Basis Set:
  @DF-RHF Final Energy:  -251.44745000148055
    Total Energy =                       -251.4474500014803198
  Basis Set: CC-PVTZ
  Basis Set:
  Charge       = 0
  Multiplicity = 1
  Basis Set: CC-PVTZ
  Basis Set:

    Orbital Energies (a.u.)
    -----------------------

    Doubly Occupied:

       1A    -15.527227     2A    -11.238857     3A    -11.208400
       4A    -11.207403     5A    -11.201594     6A    -11.201470
       7A     -1.178908     8A     -1.068399     9A     -0.996431
      10A     -0.901741    11A     -0.811834    12A     -0.782563
      13A     -0.666847    14A     -0.638047    15A     -0.617945
      16A     -0.586587    17A     -0.561131    18A     -0.547054
      19A     -0.532546    20A     -0.490439    21A     -0.482450
      22A     -0.460640    23A     -0.457401    24A     -0.450514
      25A     -0.381996

  @DF-RHF Final Energy:  -251.44745021432971

   => Energetics <=

    Nuclear Repulsion Energy =            249.1749887160420371
    One-Electron Energy =                -832.8480303762704580
    Two-Electron Energy =                 332.2255914458987718
    DFT Exchange-Correlation Energy =       0.0000000000000000
    Empirical Dispersion Energy =           0.0000000000000000
    PCM Polarization Energy =               0.0000000000000000
    EFP Energy =                            0.0000000000000000
    Total Energy =                       -251.4474502143295922
    Molecular point group: c1
  Basis Set: CC-PVTZ
  Basis Set:

  -Total Gradient:
     Atom            X                  Y                   Z
    ------   -----------------  -----------------  -----------------
       1       -0.000004966051    -0.000010753668    -0.000003480360
       2        0.000010095716     0.000012794063    -0.000007567077
       3        0.000574445262    -0.000841032469     0.000938931109
       4        0.000000468974     0.000013997038     0.000026459050
       5        0.000696780752    -0.000972759938     0.000666020276
       6       -0.000590036271     0.000836774615    -0.000910226644
       7       -0.000011756303     0.000010889514    -0.000010702600
       8        0.000005615786     0.000003508532     0.000003769325
       9       -0.000668454219     0.000964418762    -0.000688236668
      10       -0.000004851896    -0.000020356493     0.000010640145
      11        0.000014067495     0.000003516104    -0.000011595637
      12       -0.000000034491     0.000001471286    -0.000015862023
      13        0.000002759895    -0.000003232793    -0.000006828595
      14       -0.000020440368    -0.000012982274     0.000012595824
      15       -0.000003099349     0.000005481738     0.000005189514
      16       -0.000001141494     0.000006714031    -0.000011269510
      17        0.000005081933    -0.000006879119    -0.000002710514
      18       -0.000005259957     0.000006019699     0.000005007849
      19        0.000000724584     0.000002411372    -0.000000133463

  **** Optimization is complete! (in 5 steps) ****
    Final optimized geometry and variables:
    Molecular point group: c1

    Geometry (in Angstrom), charge = 0, multiplicity = 1:

    H            2.961419958684     1.602071953130    -0.977856651358
    N            2.216983381680     0.939312387240    -1.020286556513
    C            2.060553787708     0.241849606821     0.248474577594
    H            2.433849419488     0.297732762947    -1.754184033318
    C            0.820814592711    -0.646101137118     0.239981478650
    H            1.956441054372     0.995596372863     1.021788831381
    H            2.930922049051    -0.360856278134     0.505414450956
    C           -0.493717088678     0.129748546392     0.253243094028
    H            0.851360844039    -1.279568700440    -0.644372312783
    H            0.859745188447    -1.311033387977     1.098389625514
    C           -1.724173311491    -0.769506492341     0.176452261398
    H           -0.501547833498     0.830216147784    -0.573980744516
    H           -0.543969475588     0.725744136072     1.162070782062
    C           -3.035972606967     0.007764561503     0.209033208662
    H           -1.680154455021    -1.360466538559    -0.734592959165
    H           -1.706569495766    -1.479228156307     0.999674923744
    H           -3.098393891448     0.702665749314    -0.621728930379
    H           -3.889983320251    -0.657467797547     0.149210995827
    H           -3.127776613339     0.581849091356     1.125190643116

  Mulliken Charges: (a.u.)
   Center  Symbol    Alpha    Beta     Spin     Total
       1     H     0.42874  0.42874  0.00000  0.14253
       2     N     3.69108  3.69108  0.00000 -0.38217
       3     C     3.03743  3.03743  0.00000 -0.07487
       4     H     0.43104  0.43104  0.00000  0.13792
       5     C     3.08969  3.08969  0.00000 -0.17938
       6     H     0.45735  0.45735  0.00000  0.08529
       7     H     0.45898  0.45898  0.00000  0.08204
       8     C     3.08209  3.08209  0.00000 -0.16417
       9     H     0.45935  0.45935  0.00000  0.08130
      10     H     0.45175  0.45175  0.00000  0.09651
      11     C     3.08419  3.08419  0.00000 -0.16837
      12     H     0.44669  0.44669  0.00000  0.10663
      13     H     0.45909  0.45909  0.00000  0.08183
      14     C     3.14975  3.14975  0.00000 -0.29951
      15     H     0.45566  0.45566  0.00000  0.08868
      16     H     0.45693  0.45693  0.00000  0.08615
      17     H     0.45462  0.45462  0.00000  0.09077
      18     H     0.44974  0.44974  0.00000  0.10053
      19     H     0.45585  0.45585  0.00000  0.08830

   Total alpha = 25.00000, Total beta = 25.00000, Total charge = -0.00000

*** Psi4 exiting successfully. Buy a developer a beer!
