  ==> Input File <==

--------------------------------------------------------------------------
set {
	reference rhf
	basis 6-31G*
}

set_num_threads( 4 )
memory 2 gb

molecule MOL {
0 1

H	 -4.242096	 0.416336	 0.301259
O	 -3.522654	 -0.145860	 0.051771
C	 -2.306886	 0.532354	 0.237577
C	 -1.177863	 -0.397191	 -0.171080
H	 -2.278782	 1.440057	 -0.363750
H	 -2.188157	 0.827560	 1.279257
C	 0.198102	 0.111031	 0.262842
H	 -1.208843	 -0.518759	 -1.250427
H	 -1.368741	 -1.376554	 0.258909
C	 1.331804	 -0.827780	 -0.158768
H	 0.361943	 1.100838	 -0.156218
H	 0.217265	 0.229072	 1.345532
C	 2.723619	 -0.410569	 0.329459
H	 1.342964	 -0.912588	 -1.244120
H	 1.116806	 -1.824343	 0.220779
C	 3.243875	 0.895854	 -0.272975
H	 3.424222	 -1.207124	 0.091250
H	 2.714788	 -0.329854	 1.414619
H	 3.251977	 0.848779	 -1.358681
H	 2.637085	 1.747371	 0.016682
H	 4.259473	 1.094070	 0.055697

	symmetry c1
}
set optking {
	frozen_dihedral = ("
		2 3 4 8
	")
}

ee = optimize('scf')
oeprop('DIPOLE', 'QUADRUPOLE', 'MULLIKEN_CHARGES')
f=open( 'psi4out.xyz', 'w' )
f.write( "21  " )
f.write( str(ee) + "\n" )
f.write( MOL.save_string_xyz() )
f.close()
--------------------------------------------------------------------------

    Molecular point group: c1
  Charge       = 0
  Multiplicity = 1
  Basis Set: 6-31G*
  Basis Set:
  @DF-RHF Final Energy:  -310.21222890256541
    Total Energy =                       -310.2122289025655277
    Molecular point group: c1
  Basis Set: 6-31G*
  Basis Set:
  Basis Set: 6-31G*
  Basis Set:
  @DF-RHF Final Energy:  -310.21228173017084
    Total Energy =                       -310.2122817301709006
  Basis Set: 6-31G*
  Basis Set:
  Basis Set: 6-31G*
  Basis Set:
  @DF-RHF Final Energy:  -310.21230711890587
    Total Energy =                       -310.2123071189056418
  Basis Set: 6-31G*
  Basis Set:
  Basis Set: 6-31G*
  Basis Set:
  @DF-RHF Final Energy:  -310.21231225129532
    Total Energy =                       -310.2123122512954296
  Basis Set: 6-31G*
  Basis Set:
  Charge       = 0
  Multiplicity = 1
  Basis Set: 6-31G*
  Basis Set:

    Orbital Energies (a.u.)
    -----------------------

    Doubly Occupied:

       1A    -20.551760     2A    -11.267081     3A    -11.215546
       4A    -11.215099     5A    -11.213496     6A    -11.210764
       7A    -11.208256     8A     -1.358492     9A     -1.086155
      10A     -1.033128    11A     -0.954261    12A     -0.875460
      13A     -0.807219    14A     -0.779016    15A     -0.693522
      16A     -0.659570    17A     -0.623873    18A     -0.605713
      19A     -0.585630    20A     -0.571255    21A     -0.535514
      22A     -0.520311    23A     -0.510807    24A     -0.485835
      25A     -0.480755    26A     -0.460879    27A     -0.455610
      28A     -0.442966    29A     -0.433444

  @DF-RHF Final Energy:  -310.21231184137008

   => Energetics <=

    Nuclear Repulsion Energy =            312.4108843843216050
    One-Electron Energy =               -1039.5635554733498793
    Two-Electron Energy =                 416.9403592476582503
    DFT Exchange-Correlation Energy =       0.0000000000000000
    Empirical Dispersion Energy =           0.0000000000000000
    PCM Polarization Energy =               0.0000000000000000
    EFP Energy =                            0.0000000000000000
    Total Energy =                       -310.2123118413699672
    Molecular point group: c1
  Basis Set: 6-31G*
  Basis Set:

  -Total Gradient:
     Atom            X                  Y                   Z
    ------   -----------------  -----------------  -----------------
       1        0.000004284415    -0.000001099432     0.000002314658
       2        0.000084598076    -0.000620076709     0.001696002382
       3        0.000271457059     0.001196269951    -0.002294992740
       4       -0.001892827048    -0.002470024143     0.000763652133
       5       -0.000049483490    -0.000032051932    -0.000042815332
       6        0.000094137823     0.000011622487    -0.000009821749
       7        0.000003796335    -0.000011611433     0.000140940080
       8        0.001405040610     0.001898241245    -0.000236702813
       9        0.000017011845     0.000006560174    -0.000029353747
      10        0.000002107129     0.000030872032    -0.000022246498
      11       -0.000086005183    -0.000084005711    -0.000013630230
      12        0.000090818593     0.000039530453     0.000051876376
      13       -0.000031106429     0.000022962638     0.000054464611
      14       -0.000001309725     0.000040237519    -0.000014369603
      15        0.000023402804    -0.000013242144    -0.000033825671
      16        0.000033826756    -0.000001417718    -0.000018661322
      17       -0.000016031379    -0.000020437694     0.000023136206
      18       -0.000010168084     0.000030605481     0.000003670686
      19       -0.000002853631     0.000010173903    -0.000014778528
      20        0.000058199839    -0.000021602266     0.000004457331
      21        0.000001103695    -0.000011506702    -0.000009316229

  **** Optimization is complete! (in 5 steps) ****
    Final optimized geometry and variables:
    Molecular point group: c1

    Geometry (in Angstrom), charge = 0, multiplicity = 1:

    H           -4.240826564564     0.472493022516     0.208485392256
    O           -3.525488286102    -0.114463415606     0.009141717588
    C           -2.302565505141     0.551473374464     0.194126712828
    C           -1.179301200882    -0.396457775337    -0.191719841164
    H           -2.256904992600     1.454201361234    -0.412870944332
    H           -2.191231707877     0.852880186627     1.235046506441
    C            0.198470609877     0.120633812003     0.229781201700
    H           -1.196696872616    -0.538462077952    -1.268975121802
    H           -1.374828274068    -1.361524862378     0.265408939840
    C            1.334703736375    -0.806729425679    -0.209682391580
    H            0.350271939003     1.114195112801    -0.185789998685
    H            0.228056199873     0.233283290696     1.312560519942
    C            2.726668636310    -0.390386919122     0.278909846964
    H            1.342181636341    -0.876545495558    -1.296172235307
    H            1.125482264612    -1.809477252792     0.156746822239
    C            3.242883657306     0.921850505402    -0.314331610803
    H            3.428448887701    -1.183535036318     0.032946459948
    H            2.719984448569    -0.318235114914     1.364662562404
    H            3.247621043933     0.883835986791    -1.400434210913
    H            2.635611476298     1.769883330887    -0.015624465981
    H            4.259197606203     1.119057895194     0.012713658152

  Mulliken Charges: (a.u.)
   Center  Symbol    Alpha    Beta     Spin     Total
       1     H     0.28131  0.28131  0.00000  0.43738
       2     O     4.37178  4.37178  0.00000 -0.74356
       3     C     2.98998  2.98998  0.00000  0.02004
       4     C     3.15912  3.15912  0.00000 -0.31824
       5     H     0.43235  0.43235  0.00000  0.13530
       6     H     0.43291  0.43291  0.00000  0.13419
       7     C     3.16217  3.16217  0.00000 -0.32433
       8     H     0.41683  0.41683  0.00000  0.16634
       9     H     0.41213  0.41213  0.00000  0.17573
      10     C     3.15190  3.15190  0.00000 -0.30379
      11     H     0.42239  0.42239  0.00000  0.15521
      12     H     0.42331  0.42331  0.00000  0.15338
      13     C     3.15253  3.15253  0.00000 -0.30506
      14     H     0.42334  0.42334  0.00000  0.15332
      15     H     0.42079  0.42079  0.00000  0.15842
      16     C     3.24112  3.24112  0.00000 -0.48224
      17     H     0.42065  0.42065  0.00000  0.15871
      18     H     0.42340  0.42340  0.00000  0.15320
      19     H     0.42211  0.42211  0.00000  0.15579
      20     H     0.42066  0.42066  0.00000  0.15867
      21     H     0.41922  0.41922  0.00000  0.16156

   Total alpha = 29.00000, Total beta = 29.00000, Total charge = -0.00000
