  ==> Input File <==

--------------------------------------------------------------------------
set {
	reference rhf
	basis 6-31G*
}

set_num_threads( 4 )
memory 2 gb

molecule MOL {
0 1

H	 -3.970404	 -0.412742	 -0.842138
C	 -2.918622	 -0.264501	 -0.673130
C	 -2.423919	 1.015918	 -0.475789
C	 -2.062251	 -1.354074	 -0.653332
H	 -3.089158	 1.860062	 -0.491387
C	 -1.071419	 1.205730	 -0.258539
H	 -2.447549	 -2.345885	 -0.806503
C	 -0.708012	 -1.166465	 -0.436042
H	 -0.671006	 2.189317	 -0.103947
C	 -0.209084	 0.115558	 -0.237923
H	 -0.041688	 -2.006746	 -0.419910
C	 1.239129	 0.373821	 0.000060
O	 1.970282	 -0.730723	 0.000018
O	 1.702205	 1.457476	 0.173591
C	 3.377318	 -0.566646	 -0.000065
H	 3.695437	 -0.028981	 -0.881264
H	 3.789299	 -1.563704	 0.000236
H	 3.695516	 -0.028316	 0.880770

	symmetry c1
}
set optking {
	frozen_dihedral = ("
		10 12 13 15
	")
}

ee = optimize('scf')
oeprop('DIPOLE', 'QUADRUPOLE', 'MULLIKEN_CHARGES')
f=open( 'psi4out.xyz', 'w' )
f.write( "18  " )
f.write( str(ee) + "\n" )
f.write( MOL.save_string_xyz() )
f.close()
--------------------------------------------------------------------------

    Molecular point group: c1
  Charge       = 0
  Multiplicity = 1
  Basis Set: 6-31G*
  Basis Set:
  @DF-RHF Final Energy:  -457.35004585877789
    Total Energy =                       -457.3500458587776620
    Molecular point group: c1
  Basis Set: 6-31G*
  Basis Set:
  Basis Set: 6-31G*
  Basis Set:
  @DF-RHF Final Energy:  -457.34893463957150
    Total Energy =                       -457.3489346395712118
  Basis Set: 6-31G*
  Basis Set:
  Basis Set: 6-31G*
  Basis Set:
  @DF-RHF Final Energy:  -457.35011281332180
    Total Energy =                       -457.3501128133215161
  Basis Set: 6-31G*
  Basis Set:
  Basis Set: 6-31G*
  Basis Set:
  @DF-RHF Final Energy:  -457.35011760936140
    Total Energy =                       -457.3501176093616323
  Basis Set: 6-31G*
  Basis Set:
  Charge       = 0
  Multiplicity = 1
  Basis Set: 6-31G*
  Basis Set:

    Orbital Energies (a.u.)
    -----------------------

    Doubly Occupied:

       1A    -20.607092     2A    -20.544648     3A    -11.377947
       4A    -11.283133     5A    -11.245640     6A    -11.245367
       7A    -11.244216     8A    -11.241789     9A    -11.237537
      10A    -11.236781    11A     -1.472461    12A     -1.363919
      13A     -1.165344    14A     -1.048022    15A     -1.024880
      16A     -0.978052    17A     -0.860392    18A     -0.834405
      19A     -0.777735    20A     -0.739860    21A     -0.683326
      22A     -0.677178    23A     -0.671803    24A     -0.631179
      25A     -0.624018    26A     -0.597892    27A     -0.585327
      28A     -0.561034    29A     -0.529350    30A     -0.516633
      31A     -0.503371    32A     -0.498997    33A     -0.459129
      34A     -0.444313    35A     -0.344932    36A     -0.341053

  @DF-RHF Final Energy:  -457.35011791913507

   => Energetics <=

    Nuclear Repulsion Energy =            493.0398852479738707
    One-Electron Energy =               -1600.3824950440434804
    Two-Electron Energy =                 649.9924918769339683
    DFT Exchange-Correlation Energy =       0.0000000000000000
    Empirical Dispersion Energy =           0.0000000000000000
    PCM Polarization Energy =               0.0000000000000000
    EFP Energy =                            0.0000000000000000
    Total Energy =                       -457.3501179191356414
    Molecular point group: c1
  Basis Set: 6-31G*
  Basis Set:

  -Total Gradient:
     Atom            X                  Y                   Z
    ------   -----------------  -----------------  -----------------
       1        0.000000103733     0.000000045861    -0.000001863744
       2       -0.000003397373     0.000010719422     0.000006744882
       3       -0.000008543897    -0.000008050322    -0.000004683048
       4        0.000009417589    -0.000003524422    -0.000001484061
       5        0.000000995102     0.000000883038    -0.000002755787
       6        0.000013209134    -0.000002669771     0.000011299634
       7       -0.000000021045     0.000000404423    -0.000000382646
       8       -0.000003557531    -0.000003688510     0.000011343610
       9       -0.000000208561     0.000001028557    -0.000002191542
      10        0.000352677588     0.000208649004    -0.002393115832
      11        0.000003032668    -0.000000569056    -0.000003008748
      12       -0.000488365687    -0.000313935132     0.002172726509
      13        0.000137661558     0.000144150645     0.002815611983
      14       -0.000007760795    -0.000002410262     0.000000958588
      15       -0.000005976896    -0.000029362022    -0.002619699727
      16       -0.000008768304    -0.000004237477     0.000007262712
      17        0.000003722431    -0.000002466552     0.000000006892
      18        0.000005780288     0.000005032578     0.000003230325

  **** Optimization is complete! (in 5 steps) ****
    Final optimized geometry and variables:
    Molecular point group: c1

    Geometry (in Angstrom), charge = 0, multiplicity = 1:

    H           -3.987584498270    -0.425397974959    -0.603260903464
    C           -2.936276909883    -0.277025186585    -0.431681369416
    C           -2.441846322329     1.003777910768    -0.235572821185
    C           -2.080262728525    -1.366722827364    -0.407546724262
    H           -3.106899292330     1.848043112017    -0.254531122879
    C           -1.089994505657     1.193794958458    -0.015170552461
    H           -2.465410305625    -2.358718961906    -0.559771969604
    C           -0.726486479252    -1.178829605661    -0.187378419563
    H           -0.689831805614     2.177675907019     0.138044521421
    C           -0.227682412705     0.103561023146     0.008595501102
    H           -0.060420147797    -2.019214726691    -0.168308395628
    C            1.221350235550     0.362697942853     0.241231196208
    O            1.952135557139    -0.742549277960     0.252533508247
    O            1.689081672692     1.449685758077     0.376887931743
    C            3.359221737513    -0.579147801416     0.248295657904
    H            3.668706003807    -0.006829040347    -0.614323633833
    H            3.770469698314    -1.575517278268     0.204598443729
    H            3.687352055493    -0.076837619676     1.146306772960

  Mulliken Charges: (a.u.)
   Center  Symbol    Alpha    Beta     Spin     Total
       1     H     0.39537  0.39537  0.00000  0.20926
       2     C     3.08997  3.08997  0.00000 -0.17994
       3     C     3.10712  3.10712  0.00000 -0.21424
       4     C     3.10716  3.10716  0.00000 -0.21431
       5     H     0.39535  0.39535  0.00000  0.20930
       6     C     3.08638  3.08638  0.00000 -0.17276
       7     H     0.39624  0.39624  0.00000  0.20751
       8     C     3.08719  3.08719  0.00000 -0.17438
       9     H     0.37596  0.37596  0.00000  0.24807
      10     C     3.07725  3.07725  0.00000 -0.15449
      11     H     0.38048  0.38048  0.00000  0.23905
      12     C     2.57977  2.57977  0.00000  0.84047
      13     O     4.31505  4.31505  0.00000 -0.63009
      14     O     4.29117  4.29117  0.00000 -0.58235
      15     C     3.09260  3.09260  0.00000 -0.18520
      16     H     0.40867  0.40867  0.00000  0.18266
      17     H     0.40795  0.40795  0.00000  0.18410
      18     H     0.40633  0.40633  0.00000  0.18734

   Total alpha = 36.00000, Total beta = 36.00000, Total charge = -0.00000
