  ==> Input File <==

--------------------------------------------------------------------------
set {
	reference rhf
	basis cc-pvtz
}

set_num_threads( 4 )
memory 2 gb

molecule MOL {
0 1

H	 -3.162190	 0.493205	 -0.000107
C	 -2.363908	 -0.234727	 0.000005
O	 -1.158738	 0.454634	 -0.000087
H	 -2.464314	 -0.863616	 -0.882153
H	 -2.464327	 -0.863359	 0.882345
C	 -0.028611	 -0.359694	 0.000037
C	 0.925807	 0.110794	 -1.078907
H	 -0.314904	 -1.396565	 -0.177655
H	 0.458550	 -0.322989	 0.974701
C	 2.193674	 -0.733427	 -1.143360
H	 0.409913	 0.083424	 -2.032338
H	 1.177252	 1.148438	 -0.889109
H	 1.966324	 -1.772593	 -1.356749
H	 2.856636	 -0.375917	 -1.921620
H	 2.738939	 -0.700224	 -0.205996

	symmetry c1
}
set optking {
	frozen_dihedral = ("
		8 6 3 2
	")
}

ee = optimize('scf')
oeprop('DIPOLE', 'QUADRUPOLE', 'MULLIKEN_CHARGES')
f=open( 'psi4out.xyz', 'w' )
f.write( "15  " )
f.write( str(ee) + "\n" )
f.write( MOL.save_string_xyz() )
f.close()
--------------------------------------------------------------------------

    Molecular point group: c1
  Charge       = 0
  Multiplicity = 1
  Basis Set: CC-PVTZ
  Basis Set:
  @DF-RHF Final Energy:  -232.22446472219522
    Total Energy =                       -232.2244647221953073
    Molecular point group: c1
  Basis Set: CC-PVTZ
  Basis Set:
  Basis Set: CC-PVTZ
  Basis Set:
  @DF-RHF Final Energy:  -232.22474810922802
    Total Energy =                       -232.2247481092280736
  Basis Set: CC-PVTZ
  Basis Set:
  Basis Set: CC-PVTZ
  Basis Set:
  @DF-RHF Final Energy:  -232.22483242976034
    Total Energy =                       -232.2248324297604540
  Basis Set: CC-PVTZ
  Basis Set:
  Charge       = 0
  Multiplicity = 1
  Basis Set: CC-PVTZ
  Basis Set:

    Orbital Energies (a.u.)
    -----------------------

    Doubly Occupied:

       1A    -20.544436     2A    -11.264027     3A    -11.262460
       4A    -11.212773     5A    -11.210823     6A     -1.377265
       7A     -1.057770     8A     -0.956877     9A     -0.878594
      10A     -0.809105    11A     -0.672214    12A     -0.654652
      13A     -0.635564    14A     -0.603110    15A     -0.568246
      16A     -0.539531    17A     -0.504850    18A     -0.493093
      19A     -0.481458    20A     -0.463601    21A     -0.408492

  @DF-RHF Final Energy:  -232.22483327619463

   => Energetics <=

    Nuclear Repulsion Energy =            190.0770872192905756
    One-Electron Energy =                -691.4059591518251864
    Two-Electron Energy =                 269.1040386563400375
    DFT Exchange-Correlation Energy =       0.0000000000000000
    Empirical Dispersion Energy =           0.0000000000000000
    PCM Polarization Energy =               0.0000000000000000
    EFP Energy =                            0.0000000000000000
    Total Energy =                       -232.2248332761946017
    Molecular point group: c1
  Basis Set: CC-PVTZ
  Basis Set:

  -Total Gradient:
     Atom            X                  Y                   Z
    ------   -----------------  -----------------  -----------------
       1       -0.000021800426    -0.000004296697    -0.000000332912
       2       -0.000151259893     0.000030881363    -0.001411775796
       3        0.000070346620    -0.000150675188     0.002535540143
       4        0.000048532454     0.000015982962     0.000009239506
       5        0.000030070898     0.000010121144    -0.000019709242
       6        0.000085422906     0.000405953587    -0.002873644258
       7        0.000031168040    -0.000000717514     0.000056905506
       8       -0.000127395818    -0.000297109477     0.001734745679
       9        0.000023563354     0.000005363468    -0.000020533591
      10        0.000001503488    -0.000016312731    -0.000028112443
      11       -0.000010286184    -0.000007816128     0.000019532639
      12       -0.000004275282     0.000005608479     0.000000158680
      13        0.000009368587     0.000007061823     0.000010176361
      14        0.000018093856    -0.000007505971    -0.000008110280
      15       -0.000003052598     0.000003460879    -0.000004079993

  **** Optimization is complete! (in 4 steps) ****
    Final optimized geometry and variables:
    Molecular point group: c1

    Geometry (in Angstrom), charge = 0, multiplicity = 1:

    H           -3.047768846294     0.701649993690     0.473062964974
    C           -2.274038452383    -0.052720657440     0.462657393644
    O           -1.047893339472     0.599904914338     0.443211875037
    H           -2.408939319533    -0.677214829649    -0.417408374286
    H           -2.386758293816    -0.675835162423     1.347237592724
    C            0.084811482393    -0.220078139123     0.405453000264
    C            1.049580157891     0.263811618455    -0.660919788764
    H           -0.197760244713    -1.253802549126     0.220790696390
    H            0.567941799015    -0.198934451235     1.379998911542
    C            2.337836253013    -0.550948701115    -0.696199259172
    H            0.553925828612     0.221877066818    -1.625358616162
    H            1.273312509631     1.307974829633    -0.471511124225
    H            2.138997292192    -1.597014393751    -0.905592354067
    H            3.007833181443    -0.184149737202    -1.464228870210
    H            2.863407424767    -0.498416509795     0.251457353909

  Mulliken Charges: (a.u.)
   Center  Symbol    Alpha    Beta     Spin     Total
       1     H     0.44949  0.44949  0.00000  0.10103
       2     C     3.03121  3.03121  0.00000 -0.06242
       3     O     4.17822  4.17822  0.00000 -0.35645
       4     H     0.47265  0.47265  0.00000  0.05471
       5     H     0.47041  0.47041  0.00000  0.05918
       6     C     2.96387  2.96387  0.00000  0.07226
       7     C     3.07879  3.07879  0.00000 -0.15757
       8     H     0.47534  0.47534  0.00000  0.04931
       9     H     0.46159  0.46159  0.00000  0.07683
      10     C     3.15541  3.15541  0.00000 -0.31083
      11     H     0.45493  0.45493  0.00000  0.09014
      12     H     0.45034  0.45034  0.00000  0.09931
      13     H     0.45610  0.45610  0.00000  0.08780
      14     H     0.44652  0.44652  0.00000  0.10696
      15     H     0.45514  0.45514  0.00000  0.08973

   Total alpha = 21.00000, Total beta = 21.00000, Total charge = -0.00000
