  ==> Input File <==

--------------------------------------------------------------------------
set {
	reference rhf
	basis 6-31G*
}

set_num_threads( 4 )
memory 2 gb

molecule MOL {
0 1

H	 -2.499100	 -0.730091	 -0.745082
O	 -2.347518	 -0.290803	 0.079804
C	 -1.184022	 0.487508	 -0.006784
C	 0.062599	 -0.378592	 0.031606
H	 -1.176523	 1.099369	 -0.904519
H	 -1.187323	 1.153111	 0.844927
O	 1.154009	 0.449216	 0.283282
H	 0.187027	 -0.898441	 -0.920368
H	 -0.042920	 -1.136642	 0.805434
C	 2.373371	 -0.216380	 0.379605
H	 2.617220	 -0.735907	 -0.545198
H	 3.135491	 0.524781	 0.576474
H	 2.367308	 -0.940933	 1.191256

	symmetry c1
}
set optking {
	frozen_dihedral = ("
		8 4 3 5
	")
}

ee = optimize('scf')
oeprop('DIPOLE', 'QUADRUPOLE', 'MULLIKEN_CHARGES')
f=open( 'psi4out.xyz', 'w' )
f.write( "13  " )
f.write( str(ee) + "\n" )
f.write( MOL.save_string_xyz() )
f.close()
--------------------------------------------------------------------------

    Molecular point group: c1
  Charge       = 0
  Multiplicity = 1
  Basis Set: 6-31G*
  Basis Set:
  @DF-RHF Final Energy:  -267.94962344150576
    Total Energy =                       -267.9496234415057643
    Molecular point group: c1
  Basis Set: 6-31G*
  Basis Set:
  Basis Set: 6-31G*
  Basis Set:
  @DF-RHF Final Energy:  -267.94976934222319
    Total Energy =                       -267.9497693422229077
  Basis Set: 6-31G*
  Basis Set:
  Basis Set: 6-31G*
  Basis Set:
  @DF-RHF Final Energy:  -267.94981010508928
    Total Energy =                       -267.9498101050892842
  Basis Set: 6-31G*
  Basis Set:
  Charge       = 0
  Multiplicity = 1
  Basis Set: 6-31G*
  Basis Set:

    Orbital Energies (a.u.)
    -----------------------

    Doubly Occupied:

       1A    -20.561413     2A    -20.559357     3A    -11.270464
       4A    -11.269673     5A    -11.269156     6A     -1.387567
       7A     -1.364029     8A     -1.018058     9A     -0.912562
      10A     -0.841493    11A     -0.709450    12A     -0.671856
      13A     -0.660797    14A     -0.639701    15A     -0.589129
      16A     -0.570937    17A     -0.546980    18A     -0.488595
      19A     -0.481690    20A     -0.438202    21A     -0.421735

  @DF-RHF Final Energy:  -267.94981095696011

   => Energetics <=

    Nuclear Repulsion Energy =            190.1664893255665447
    One-Electron Energy =                -742.8869140383642389
    Two-Electron Energy =                 284.7706137558374166
    DFT Exchange-Correlation Energy =       0.0000000000000000
    Empirical Dispersion Energy =           0.0000000000000000
    PCM Polarization Energy =               0.0000000000000000
    EFP Energy =                            0.0000000000000000
    Total Energy =                       -267.9498109569602775
    Molecular point group: c1
  Basis Set: 6-31G*
  Basis Set:

  -Total Gradient:
     Atom            X                  Y                   Z
    ------   -----------------  -----------------  -----------------
       1       -0.000033326855    -0.000035601645     0.000011691444
       2       -0.000011497613     0.000000855632    -0.000073463715
       3        0.002276919822     0.003523730908     0.001806586810
       4       -0.002491739139    -0.003549044237     0.000998358079
       5       -0.001533601605    -0.002341902644    -0.001607152757
       6        0.000051720112     0.000015439085     0.000000236325
       7       -0.000053546779    -0.000054063344    -0.000002295400
       8        0.001780946164     0.002433536017    -0.001113281016
       9       -0.000028922771     0.000005886740    -0.000008865055
      10        0.000046536945     0.000003733287    -0.000014888670
      11        0.000007571199    -0.000004730478     0.000003383591
      12       -0.000004082306    -0.000005159345     0.000002481542
      13       -0.000006977174     0.000007320021    -0.000002791178

  **** Optimization is complete! (in 4 steps) ****
    Final optimized geometry and variables:
    Molecular point group: c1

    Geometry (in Angstrom), charge = 0, multiplicity = 1:

    H           -2.485310838545    -0.699347177883    -0.936064890566
    O           -2.343798908513    -0.282839363862    -0.097833472396
    C           -1.173745346423     0.493319515794    -0.144545148627
    C            0.068598091053    -0.379786658938    -0.081030607321
    H           -1.156065533477     1.101500268963    -1.044334225765
    H           -1.192709350462     1.148870802927     0.713794068226
    O            1.162488697286     0.453515152640     0.154279128425
    H            0.210382347643    -0.910081775198    -1.024197204526
    H           -0.044890758727    -1.114389482607     0.712866990211
    C            2.386272105278    -0.207150810707     0.221866431044
    H            2.615427065988    -0.717098826847    -0.712088994001
    H            3.148695946630     0.535668397251     0.411499203095
    H            2.398587318550    -0.939177892656     1.026857826706

  Mulliken Charges: (a.u.)
   Center  Symbol    Alpha    Beta     Spin     Total
       1     H     0.28155  0.28155  0.00000  0.43690
       2     O     4.37134  4.37134  0.00000 -0.74267
       3     C     3.00488  3.00488  0.00000 -0.00976
       4     C     2.99786  2.99786  0.00000  0.00427
       5     H     0.42390  0.42390  0.00000  0.15220
       6     H     0.40596  0.40596  0.00000  0.18807
       7     O     4.30794  4.30794  0.00000 -0.61588
       8     H     0.43684  0.43684  0.00000  0.12633
       9     H     0.42147  0.42147  0.00000  0.15706
      10     C     3.07987  3.07987  0.00000 -0.15975
      11     H     0.42969  0.42969  0.00000  0.14061
      12     H     0.41080  0.41080  0.00000  0.17841
      13     H     0.42790  0.42790  0.00000  0.14420

   Total alpha = 21.00000, Total beta = 21.00000, Total charge = -0.00000
