  ==> Input File <==

--------------------------------------------------------------------------
set {
	reference rhf
	basis 6-31G*
}

set_num_threads( 4 )
memory 2 gb

molecule MOL {
0 1

H	 -2.088479	 -1.165625	 -0.451426
C	 -1.940821	 -0.124734	 -0.182941
N	 -0.528168	 0.128977	 -0.000000
H	 -2.466711	 0.053826	 0.747969
H	 -2.403158	 0.488195	 -0.961291
C	 0.248044	 -0.037491	 -1.209632
H	 -0.394511	 1.051551	 0.363348
H	 0.998722	 0.743888	 -1.266824
H	 -0.398417	 0.061950	 -2.074060
H	 0.763621	 -0.999315	 -1.275517

	symmetry c1
}
set optking {
	frozen_dihedral = ("
		2 3 6 8
	")
}

ee = optimize('scf')
oeprop('DIPOLE', 'QUADRUPOLE', 'MULLIKEN_CHARGES')
f=open( 'psi4out.xyz', 'w' )
f.write( "10  " )
f.write( str(ee) + "\n" )
f.write( MOL.save_string_xyz() )
f.close()
--------------------------------------------------------------------------

    Molecular point group: c1
  Charge       = 0
  Multiplicity = 1
  Basis Set: 6-31G*
  Basis Set:
  @DF-RHF Final Energy:  -134.23440394974057
    Total Energy =                       -134.2344039497405390
    Molecular point group: c1
  Basis Set: 6-31G*
  Basis Set:
  Basis Set: 6-31G*
  Basis Set:
  @DF-RHF Final Energy:  -134.23507392445896
    Total Energy =                       -134.2350739244588738
  Basis Set: 6-31G*
  Basis Set:
  Basis Set: 6-31G*
  Basis Set:
  @DF-RHF Final Energy:  -134.23517327819297
    Total Energy =                       -134.2351732781929741
  Basis Set: 6-31G*
  Basis Set:
  Charge       = 0
  Multiplicity = 1
  Basis Set: 6-31G*
  Basis Set:

    Orbital Energies (a.u.)
    -----------------------

    Doubly Occupied:

       1A    -15.536638     2A    -11.236053     3A    -11.235958
       4A     -1.196788     5A     -0.947879     6A     -0.854129
       7A     -0.660195     8A     -0.611952     9A     -0.588958
      10A     -0.545387    11A     -0.508530    12A     -0.503984
      13A     -0.359893

  @DF-RHF Final Energy:  -134.23517440988422

   => Energetics <=

    Nuclear Repulsion Energy =             84.4706491637387700
    One-Electron Energy =                -347.8389559123718300
    Two-Electron Energy =                 129.1331323387488510
    DFT Exchange-Correlation Energy =       0.0000000000000000
    Empirical Dispersion Energy =           0.0000000000000000
    PCM Polarization Energy =               0.0000000000000000
    EFP Energy =                            0.0000000000000000
    Total Energy =                       -134.2351744098842232
    Molecular point group: c1
  Basis Set: 6-31G*
  Basis Set:

  -Total Gradient:
     Atom            X                  Y                   Z
    ------   -----------------  -----------------  -----------------
       1        0.000017816944     0.000008698683    -0.000003234717
       2       -0.000355669639     0.002924031344    -0.000554390640
       3       -0.000106194265    -0.003474170041     0.000276758158
       4       -0.000044370719    -0.000000676884     0.000012359043
       5        0.000030427263    -0.000000424165    -0.000009647665
       6        0.002945523398    -0.001682490659     0.002195667690
       7       -0.000017960808    -0.000039232565     0.000019829779
       8       -0.002505861556     0.002275161576    -0.001912224972
       9        0.000011756797    -0.000008112847    -0.000013494591
      10        0.000024532585    -0.000002784444    -0.000011622083

  **** Optimization is complete! (in 4 steps) ****
    Final optimized geometry and variables:
    Molecular point group: c1

    Geometry (in Angstrom), charge = 0, multiplicity = 1:

    H           -1.352724793824    -1.166933614470     0.031277353770
    C           -1.196633606548    -0.129188103838     0.307329512881
    N            0.218204725787     0.122274252001     0.477996480633
    H           -1.711593781649     0.041074053467     1.246028891565
    H           -1.664250352838     0.492354163140    -0.460316487034
    C            1.003628645692    -0.031364116171    -0.736339970020
    H            0.344344026913     1.041728592057     0.847669432751
    H            1.757754336056     0.745342816386    -0.798315377778
    H            0.395524504200     0.056454892241    -1.637346736574
    H            1.497210174880    -0.997274410485    -0.762293588972

  Mulliken Charges: (a.u.)
   Center  Symbol    Alpha    Beta     Spin     Total
       1     H     0.41776  0.41776  0.00000  0.16448
       2     C     3.14495  3.14495  0.00000 -0.28989
       3     N     3.84157  3.84157  0.00000 -0.68313
       4     H     0.41751  0.41751  0.00000  0.16498
       5     H     0.43435  0.43435  0.00000  0.13130
       6     C     3.14443  3.14443  0.00000 -0.28886
       7     H     0.33139  0.33139  0.00000  0.33722
       8     H     0.42188  0.42188  0.00000  0.15625
       9     H     0.42985  0.42985  0.00000  0.14030
      10     H     0.41632  0.41632  0.00000  0.16736

   Total alpha = 13.00000, Total beta = 13.00000, Total charge =  0.00000
