                              Psi4 1.0.54 Driver

  ==> Input File <==

--------------------------------------------------------------------------
set {
	reference rhf
	basis cc-pvtz
}

set_num_threads( 4 )
memory 2 gb

molecule MOL {
0 1

O	 0.395927	 1.296676	 -0.000076
C	 0.503051	 0.114301	 -0.000074
C	 -0.701422	 -0.805636	 -0.000109
C	 1.858118	 -0.556123	 0.000212
C	 -1.947845	 -0.195026	 -0.621129
H	 -0.417044	 -1.717808	 -0.518286
H	 -0.886678	 -1.103025	 1.028813
H	 -1.772518	 0.079717	 -1.652635
H	 -2.768576	 -0.901606	 -0.589497
H	 -2.246332	 0.699949	 -0.091829
H	 1.961106	 -1.191101	 -0.872843
H	 2.636688	 0.191085	 -0.000109
H	 1.961070	 -1.190284	 0.873873

	symmetry c1
}
set optking {
	frozen_dihedral = ("
		6 3 2 1
	")
}

ee,wfn = optimize('scf', return_wfn=True)
oeprop( wfn, 'DIPOLE', 'QUADRUPOLE', 'MULLIKEN_CHARGES')
f=open( 'psi4out.xyz', 'w' )
f.write( "13  " )
f.write( str(ee) + "\n" )
f.write( MOL.save_string_xyz() )
f.close()
--------------------------------------------------------------------------

    Molecular point group: c1
  Charge       = 0
  Multiplicity = 1
  Basis Set: CC-PVTZ
  Basis Set:
  @DF-RHF Final Energy:  -231.08256042167338
    Total Energy =                       -231.0825604216734064
    Molecular point group: c1
  Basis Set: CC-PVTZ
  Basis Set:
  Basis Set: CC-PVTZ
  Basis Set:
  @DF-RHF Final Energy:  -231.01699680564303
    Total Energy =                       -231.0169968056432594
  Basis Set: CC-PVTZ
  Basis Set:
  Basis Set: CC-PVTZ
  Basis Set:
  @DF-RHF Final Energy:  -231.07831281697710
    Total Energy =                       -231.0783128169771317
  Basis Set: CC-PVTZ
  Basis Set:
  Basis Set: CC-PVTZ
  Basis Set:
  @DF-RHF Final Energy:  -231.08239968053326
    Total Energy =                       -231.0823996805333991
  Basis Set: CC-PVTZ
  Basis Set:
  @DF-RHF Final Energy:  -231.07974888300157
    Total Energy =                       -231.0797488830015141
  @DF-RHF Final Energy:  -231.08270863223728
    Total Energy =                       -231.0827086322371997
  Basis Set: CC-PVTZ
  Basis Set:
  @DF-RHF Final Energy:  -231.08298333329239
    Total Energy =                       -231.0829833332923045
  Basis Set: CC-PVTZ
  Basis Set:
  Basis Set: CC-PVTZ
  Basis Set:
  @DF-RHF Final Energy:  -231.08299541687811
    Total Energy =                       -231.0829954168780773
  Basis Set: CC-PVTZ
  Basis Set:
  Basis Set: CC-PVTZ
  Basis Set:
  @DF-RHF Final Energy:  -231.08300228486999
    Total Energy =                       -231.0830022848698491
  Basis Set: CC-PVTZ
  Basis Set:
  Charge       = 0
  Multiplicity = 1
  Basis Set: CC-PVTZ
  Basis Set:

    Orbital Energies (a.u.)
    -----------------------

    Doubly Occupied:

       1A    -20.538929     2A    -11.321427     3A    -11.233507
       4A    -11.227894     5A    -11.214155     6A     -1.399480
       7A     -1.062953     8A     -1.001581     9A     -0.879810
      10A     -0.731450    11A     -0.660515    12A     -0.642352
      13A     -0.621696    14A     -0.585554    15A     -0.572296
      16A     -0.525065    17A     -0.518236    18A     -0.507490
      19A     -0.486074    20A     -0.404128

  @DF-RHF Final Energy:  -231.08300291759673

   => Energetics <=

    Nuclear Repulsion Energy =            177.2300958965886934
    One-Electron Energy =                -664.3570192620732087
    Two-Electron Energy =                 256.0439204478877286
    DFT Exchange-Correlation Energy =       0.0000000000000000
    Empirical Dispersion Energy =           0.0000000000000000
    PCM Polarization Energy =               0.0000000000000000
    EFP Energy =                            0.0000000000000000
    Total Energy =                       -231.0830029175967866
    Molecular point group: c1
  Basis Set: CC-PVTZ
  Basis Set:

  -Total Gradient:
     Atom            X                  Y                   Z
    ------   -----------------  -----------------  -----------------
       1       -0.000476775533    -0.000434894907     0.001398011785
       2        0.000669984908     0.000337070244    -0.001717974733
       3        0.000024452985     0.001157285757    -0.000724989215
       4       -0.000007753945     0.000085029107     0.000013959777
       5       -0.000014563581    -0.000011630034    -0.000001605195
       6       -0.000183518486    -0.001082448899     0.001042932747
       7       -0.000004996160    -0.000003620835    -0.000003288333
       8       -0.000000566888    -0.000001029089     0.000003706410
       9       -0.000001442667     0.000004037129    -0.000000842381
      10       -0.000002352883     0.000000645703    -0.000004396634
      11       -0.000003311992    -0.000014462713     0.000006666275
      12        0.000003857349    -0.000025508251    -0.000007078009
      13       -0.000003013110    -0.000010473213    -0.000005102491

  **** Optimization is complete! (in 10 steps) ****
    Final optimized geometry and variables:
    Molecular point group: c1

    Geometry (in Angstrom), charge = 0, multiplicity = 1:

    O            0.667314706793     0.989412026034     0.677459641198
    C            0.444835945028    -0.095505196592     0.249361497258
    C           -0.899487644855    -0.460934500909    -0.349700773046
    C            1.476056893922    -1.197241852439     0.310434461507
    C           -1.685390203540     0.729040139116    -0.880143388411
    H           -0.758799896243    -1.220694044122    -1.111277664788
    H           -1.453445527594    -0.952001104980     0.448514301601
    H           -1.155429819111     1.214521613798    -1.690629744208
    H           -2.650896883061     0.408381141645    -1.252185116082
    H           -1.841312132831     1.463462787521    -0.103076305514
    H            1.812550184681    -1.429780345601    -0.694723493169
    H            2.318452620204    -0.883730426626     0.907575029484
    H            1.044068554796    -2.102616732512     0.722176025780

  Mulliken Charges: (a.u.)
   Center  Symbol    Alpha    Beta     Spin     Total
       1     O     4.17200  4.17200  0.00000 -0.34400
       2     C     2.86050  2.86050  0.00000  0.27899
       3     C     3.10097  3.10097  0.00000 -0.20195
       4     C     3.15116  3.15116  0.00000 -0.30233
       5     C     3.14252  3.14252  0.00000 -0.28503
       6     H     0.44642  0.44642  0.00000  0.10717
       7     H     0.44579  0.44579  0.00000  0.10843
       8     H     0.45245  0.45245  0.00000  0.09509
       9     H     0.45021  0.45021  0.00000  0.09958
      10     H     0.44218  0.44218  0.00000  0.11565
      11     H     0.44897  0.44897  0.00000  0.10207
      12     H     0.43607  0.43607  0.00000  0.12786
      13     H     0.45076  0.45076  0.00000  0.09848

   Total alpha = 20.00000, Total beta = 20.00000, Total charge =  0.00000

*** Psi4 exiting successfully. Buy a developer a beer!
