                              Psi4 1.0.54 Driver

  ==> Input File <==

--------------------------------------------------------------------------
set {
	reference rhf
	basis cc-pvtz
}

set_num_threads( 4 )
memory 2 gb

molecule MOL {
0 1

H	 1.342132	 1.154632	 6.475381
C	 0.879604	 0.270293	 6.052439
C	 0.105044	 0.606962	 4.782780
H	 1.665547	 -0.448751	 5.848759
H	 0.228674	 -0.156437	 6.808741
C	 -0.570244	 -0.614922	 4.163948
H	 0.779191	 1.052143	 4.060092
H	 -0.649709	 1.356083	 5.010794
C	 -1.358430	 -0.307108	 2.894735
H	 0.175996	 -1.367629	 3.941716
H	 -1.250759	 -1.049260	 4.890608
C	 -0.504394	 0.007582	 1.678151
H	 -1.967809	 -1.165054	 2.622060
H	 -2.056273	 0.508784	 3.058606
C	 -1.180025	 0.697761	 0.509157
O	 0.645160	 -0.291286	 1.628369
C	 -2.285431	 -0.137488	 -0.145671
H	 -0.408054	 0.926334	 -0.213100
H	 -1.598563	 1.637147	 0.860690
C	 -3.646545	 0.082747	 0.508954
H	 -2.348635	 0.118247	 -1.199806
H	 -2.034895	 -1.192387	 -0.096473
C	 -4.757412	 -0.737227	 -0.138149
H	 -3.900211	 1.137405	 0.459735
H	 -3.580878	 -0.166775	 1.564416
H	 -4.867876	 -0.486707	 -1.187777
H	 -4.549650	 -1.800049	 -0.072540
H	 -5.709585	 -0.556397	 0.346597

	symmetry c1
}
set optking {
	frozen_dihedral = ("
		12 15 17 21
	")
}

ee,wfn = optimize('scf', return_wfn=True)
oeprop( wfn, 'DIPOLE', 'QUADRUPOLE', 'MULLIKEN_CHARGES')
f=open( 'psi4out.xyz', 'w' )
f.write( "28  " )
f.write( str(ee) + "\n" )
f.write( MOL.save_string_xyz() )
f.close()
--------------------------------------------------------------------------

    Molecular point group: c1
  Charge       = 0
  Multiplicity = 1
  Basis Set: CC-PVTZ
  Basis Set:
  @DF-RHF Final Energy:  -426.31394608101368
    Total Energy =                       -426.3139460810139099
    Molecular point group: c1
  Basis Set: CC-PVTZ
  Basis Set:
  Basis Set: CC-PVTZ
  Basis Set:
  @DF-RHF Final Energy:  -426.31550412042554
    Total Energy =                       -426.3155041204256577
  Basis Set: CC-PVTZ
  Basis Set:
  Basis Set: CC-PVTZ
  Basis Set:
  @DF-RHF Final Energy:  -426.31524479379914
    Total Energy =                       -426.3152447937987972
  Basis Set: CC-PVTZ
  Basis Set:
  Basis Set: CC-PVTZ
  Basis Set:
  @DF-RHF Final Energy:  -426.31544657740517
    Total Energy =                       -426.3154465774050550
  Basis Set: CC-PVTZ
  Basis Set:
  @DF-RHF Final Energy:  -426.31566332672355
    Total Energy =                       -426.3156633267237794
  @DF-RHF Final Energy:  -426.31568429882384
    Total Energy =                       -426.3156842988241806
  @DF-RHF Final Energy:  -426.31571244812983
    Total Energy =                       -426.3157124481292612
  @DF-RHF Final Energy:  -426.31580213670202
    Total Energy =                       -426.3158021367013362
  @DF-RHF Final Energy:  -426.22418651421242
    Total Energy =                       -426.2241865142123061
  @DF-RHF Final Energy:  -426.30249539927127
    Total Energy =                       -426.3024953992709243
  @DF-RHF Final Energy:  -426.31537546200605
    Total Energy =                       -426.3153754620060454
  @DF-RHF Final Energy:  -426.31617149664351
    Total Energy =                       -426.3161714966435056
  @DF-RHF Final Energy:  -426.21832954984177
    Total Energy =                       -426.2183295498423377
  @DF-RHF Final Energy:  -426.30666582475260
    Total Energy =                       -426.3066658247521445
  @DF-RHF Final Energy:  -426.31684376094518
    Total Energy =                       -426.3168437609450621
  @DF-RHF Final Energy:  -426.31755092553885
    Total Energy =                       -426.3175509255383986
  @DF-RHF Final Energy:  -426.31381654718132
    Total Energy =                       -426.3138165471813181
  @DF-RHF Final Energy:  -426.31867555081521
    Total Energy =                       -426.3186755508154420
  @DF-RHF Final Energy:  -426.31580905513283
    Total Energy =                       -426.3158090551328314
  @DF-RHF Final Energy:  -426.31894672808357
    Total Energy =                       -426.3189467280834606
  @DF-RHF Final Energy:  -426.31784534332849
    Total Energy =                       -426.3178453433285995
  @DF-RHF Final Energy:  -426.32027306269276
    Total Energy =                       -426.3202730626928769
  @DF-RHF Final Energy:  -426.12125922987661
    Total Energy =                       -426.1212592298761592
  @DF-RHF Final Energy:  -426.26044055243921
    Total Energy =                       -426.2604405524400590
  @DF-RHF Final Energy:  -426.31030794133608
    Total Energy =                       -426.3103079413360774
  @DF-RHF Final Energy:  -426.31871140734143
    Total Energy =                       -426.3187114073414250
  @DF-RHF Final Energy:  -426.32044620979309
    Total Energy =                       -426.3204462097932037
  @DF-RHF Final Energy:  -426.32008908658713
    Total Energy =                       -426.3200890865862220
  @DF-RHF Final Energy:  -426.32064961475771
    Total Energy =                       -426.3206496147579401
  @DF-RHF Final Energy:  -426.32032686384218
    Total Energy =                       -426.3203268638420695
  Basis Set: CC-PVTZ
  Basis Set:
  @DF-RHF Final Energy:  -426.32068825989279
    Total Energy =                       -426.3206882598924494
  Basis Set: CC-PVTZ
  Basis Set:
  Basis Set: CC-PVTZ
  Basis Set:
  @DF-RHF Final Energy:  -426.32070124849884
    Total Energy =                       -426.3207012484989491
  Basis Set: CC-PVTZ
  Basis Set:
  Basis Set: CC-PVTZ
  Basis Set:
  @DF-RHF Final Energy:  -426.32070318107867
    Total Energy =                       -426.3207031810785566
  Basis Set: CC-PVTZ
  Basis Set:
  Charge       = 0
  Multiplicity = 1
  Basis Set: CC-PVTZ
  Basis Set:

    Orbital Energies (a.u.)
    -----------------------

    Doubly Occupied:

       1A    -20.538517     2A    -11.318971     3A    -11.229345
       4A    -11.229244     5A    -11.215463     6A    -11.214044
       7A    -11.213421     8A    -11.211736     9A    -11.205230
      10A    -11.204692    11A     -1.399410    12A     -1.089024
      13A     -1.077871    14A     -1.022721    15A     -0.990910
      16A     -0.911216    17A     -0.865957    18A     -0.808163
      19A     -0.790452    20A     -0.724597    21A     -0.678909
      22A     -0.638661    23A     -0.634550    24A     -0.614932
      25A     -0.607342    26A     -0.590037    27A     -0.578802
      28A     -0.574829    29A     -0.538225    30A     -0.528299
      31A     -0.518929    32A     -0.512454    33A     -0.500176
      34A     -0.480383    35A     -0.471667    36A     -0.468349
      37A     -0.467053    38A     -0.459354    39A     -0.459180
      40A     -0.397868

  @DF-RHF Final Energy:  -426.32070330595889

   => Energetics <=

    Nuclear Repulsion Energy =            536.5195514023664600
    One-Electron Energy =               -1641.7185461277765626
    Two-Electron Energy =                 678.8782914194509885
    DFT Exchange-Correlation Energy =       0.0000000000000000
    Empirical Dispersion Energy =           0.0000000000000000
    PCM Polarization Energy =               0.0000000000000000
    EFP Energy =                            0.0000000000000000
    Total Energy =                       -426.3207033059591140
    Molecular point group: c1
  Basis Set: CC-PVTZ
  Basis Set:

  -Total Gradient:
     Atom            X                  Y                   Z
    ------   -----------------  -----------------  -----------------
       1       -0.000001549170     0.000006786580     0.000003926951
       2        0.000003344557     0.000005793328     0.000011021017
       3       -0.000009572544     0.000001167186    -0.000007041935
       4        0.000012202007     0.000003956688    -0.000004642124
       5       -0.000002013810    -0.000005335941    -0.000005869528
       6       -0.000002191797    -0.000002023615     0.000000784597
       7       -0.000006039341    -0.000000327906     0.000005396937
       8       -0.000006969145    -0.000003563528    -0.000006494237
       9        0.000001870110    -0.000002515955    -0.000001467007
      10        0.000012642150     0.000002314685    -0.000004506719
      11       -0.000003170329    -0.000008361488    -0.000004322773
      12        0.001695174713    -0.001687858527     0.000022468823
      13        0.000005559100     0.000000867062     0.000003246170
      14       -0.000008597577    -0.000000969530    -0.000002870443
      15       -0.002194948457     0.001649139209     0.000129305536
      16        0.000027656777     0.000051175511    -0.000002967275
      17       -0.000464524012     0.002972543707    -0.000776216490
      18       -0.000008514113     0.000002834199    -0.000001209043
      19       -0.000000721080    -0.000007150033     0.000003460185
      20       -0.000005248780    -0.000010572363     0.000002250730
      21        0.000947573559    -0.002965266178     0.000644068324
      22       -0.000006689062     0.000000621528     0.000000583843
      23        0.000001476243     0.000005748487    -0.000006471201
      24        0.000002077773    -0.000009127103    -0.000001477859
      25        0.000011758486    -0.000000882907    -0.000005115730
      26       -0.000003620199    -0.000000591119     0.000002234166
      27       -0.000000280021     0.000005569693     0.000002781258
      28        0.000003313957    -0.000003971672    -0.000000856173

  **** Optimization is complete! (in 34 steps) ****
    Final optimized geometry and variables:
    Molecular point group: c1

    Geometry (in Angstrom), charge = 0, multiplicity = 1:

    H            1.175876957086    -2.955172915460     4.158323103074
    C            0.456847540649    -2.157587481053     4.011158371609
    C            0.861539573028    -1.258316382421     2.848112607749
    H           -0.510615691112    -2.613454723868     3.831229716222
    H            0.391014675476    -1.596389110847     4.937677675182
    C           -0.123278851463    -0.114042949105     2.618272274227
    H            0.940133411950    -1.853975322954     1.945898940802
    H            1.849852278667    -0.846879232112     3.039562914597
    C            0.260256628997     0.805445545113     1.463982994829
    H           -1.111357480576    -0.517830262126     2.434420412793
    H           -0.189457768540     0.483182520755     3.523016239817
    C            0.082024964874     0.207432276211     0.080149584889
    H           -0.357656586081     1.701027154831     1.476840360646
    H            1.283112558247     1.155733624984     1.567275822600
    C            0.798966630783     0.932029431557    -1.045130521961
    O           -0.581716508188    -0.759694815797    -0.107414360348
    C            0.395965235009     0.498300498331    -2.452570918257
    H            1.856984143378     0.740055161835    -0.879334949519
    H            0.676360359322     2.002194922125    -0.905746850991
    C           -0.819820617103     1.241988663333    -2.997294153470
    H            1.242997072310     0.626150156312    -3.119322168110
    H            0.186145220264    -0.563817030263    -2.435742977959
    C           -1.234261174298     0.764398086439    -4.384451356874
    H           -0.605757069900     2.307319980298    -3.031807005139
    H           -1.651602607175     1.115280705126    -2.310958960992
    H           -0.430330470015     0.898202661160    -5.100978525576
    H           -1.493817567158    -0.288426275615    -4.371608358083
    H           -2.095304968562     1.313618534268    -4.747496482637

  Mulliken Charges: (a.u.)
   Center  Symbol    Alpha    Beta     Spin     Total
       1     H     0.44864  0.44864  0.00000  0.10271
       2     C     3.15154  3.15154  0.00000 -0.30308
       3     C     3.08460  3.08460  0.00000 -0.16919
       4     H     0.45185  0.45185  0.00000  0.09630
       5     H     0.45674  0.45674  0.00000  0.08652
       6     C     3.08754  3.08754  0.00000 -0.17507
       7     H     0.44612  0.44612  0.00000  0.10776
       8     H     0.45837  0.45837  0.00000  0.08326
       9     C     3.11886  3.11886  0.00000 -0.23771
      10     H     0.44464  0.44464  0.00000  0.11073
      11     H     0.44747  0.44747  0.00000  0.10506
      12     C     2.86780  2.86780  0.00000  0.26440
      13     H     0.43614  0.43614  0.00000  0.12773
      14     H     0.44290  0.44290  0.00000  0.11420
      15     C     3.11857  3.11857  0.00000 -0.23714
      16     O     4.17914  4.17914  0.00000 -0.35829
      17     C     3.09279  3.09279  0.00000 -0.18558
      18     H     0.43697  0.43697  0.00000  0.12606
      19     H     0.44268  0.44268  0.00000  0.11464
      20     C     3.08123  3.08123  0.00000 -0.16246
      21     H     0.44701  0.44701  0.00000  0.10598
      22     H     0.44193  0.44193  0.00000  0.11614
      23     C     3.15160  3.15160  0.00000 -0.30320
      24     H     0.45769  0.45769  0.00000  0.08461
      25     H     0.45072  0.45072  0.00000  0.09856
      26     H     0.45637  0.45637  0.00000  0.08727
      27     H     0.45133  0.45133  0.00000  0.09735
      28     H     0.44878  0.44878  0.00000  0.10245

   Total alpha = 40.00000, Total beta = 40.00000, Total charge =  0.00000

*** Psi4 exiting successfully. Buy a developer a beer!
