  ==> Input File <==

--------------------------------------------------------------------------
set {
	reference rhf
	basis 6-31G*
}

set_num_threads( 4 )
memory 2 gb

molecule MOL {
0 1

H	 -2.365627	 -1.312883	 -0.379134
C	 -1.358347	 -1.274295	 0.019669
C	 -0.681945	 0.000119	 -0.470601
H	 -0.826096	 -2.155117	 -0.321105
H	 -1.409554	 -1.292283	 1.100109
C	 -1.357790	 1.274691	 0.020220
N	 0.739525	 -0.000142	 0.006128
H	 -0.594190	 0.000341	 -1.545128
H	 -2.364980	 1.313977	 -0.378631
H	 -0.825080	 2.155361	 -0.320114
H	 -1.409060	 1.292170	 1.100671
O	 0.929952	 -0.184019	 1.168241
O	 1.591262	 0.184014	 -0.809980

	symmetry c1
}
set optking {
	frozen_dihedral = ("
		12 7 3 8
	")
}

ee = optimize('scf')
oeprop('DIPOLE', 'QUADRUPOLE', 'MULLIKEN_CHARGES')
f=open( 'psi4out.xyz', 'w' )
f.write( "13  " )
f.write( str(ee) + "\n" )
f.write( MOL.save_string_xyz() )
f.close()
--------------------------------------------------------------------------

    Molecular point group: c1
  Charge       = 0
  Multiplicity = 1
  Basis Set: 6-31G*
  Basis Set:
  @DF-RHF Final Energy:  -321.73908158188243
    Total Energy =                       -321.7390815818826013
    Molecular point group: c1
  Basis Set: 6-31G*
  Basis Set:
  Basis Set: 6-31G*
  Basis Set:
  @DF-RHF Final Energy:  -321.73651883167008
    Total Energy =                       -321.7365188316698550
  Basis Set: 6-31G*
  Basis Set:
  Basis Set: 6-31G*
  Basis Set:
  @DF-RHF Final Energy:  -321.73911759168084
    Total Energy =                       -321.7391175916811790
  Basis Set: 6-31G*
  Basis Set:
  Basis Set: 6-31G*
  Basis Set:
  @DF-RHF Final Energy:  -321.73915930029528
    Total Energy =                       -321.7391593002954551
  Basis Set: 6-31G*
  Basis Set:
  Charge       = 0
  Multiplicity = 1
  Basis Set: 6-31G*
  Basis Set:

    Orbital Energies (a.u.)
    -----------------------

    Doubly Occupied:

       1A    -20.600948     2A    -20.598069     3A    -15.842818
       4A    -11.305895     5A    -11.247668     6A    -11.244498
       7A     -1.628591     8A     -1.413970     9A     -1.143976
      10A     -0.974616    11A     -0.957904    12A     -0.814009
      13A     -0.749928    14A     -0.728027    15A     -0.722045
      16A     -0.650270    17A     -0.594801    18A     -0.588656
      19A     -0.571585    20A     -0.530143    21A     -0.523068
      22A     -0.482380    23A     -0.468827    24A     -0.447119

  @DF-RHF Final Energy:  -321.73915973095524

   => Energetics <=

    Nuclear Repulsion Energy =            256.7787251393236261
    One-Electron Energy =                -947.3761427941030888
    Two-Electron Energy =                 368.8582579238240555
    DFT Exchange-Correlation Energy =       0.0000000000000000
    Empirical Dispersion Energy =           0.0000000000000000
    PCM Polarization Energy =               0.0000000000000000
    EFP Energy =                            0.0000000000000000
    Total Energy =                       -321.7391597309554641
    Molecular point group: c1
  Basis Set: 6-31G*
  Basis Set:

  -Total Gradient:
     Atom            X                  Y                   Z
    ------   -----------------  -----------------  -----------------
       1        0.000004519168     0.000000073588     0.000000505497
       2       -0.000013930559    -0.000011410183    -0.000005216315
       3        0.000017667366     0.000345675467     0.000004897521
       4        0.000001211625    -0.000000491075    -0.000003497165
       5       -0.000002256766     0.000002587181     0.000005273034
       6       -0.000062096434    -0.000013677589    -0.000040946814
       7       -0.000220957170     0.000312375185     0.000226400421
       8       -0.000026829168    -0.000363668089     0.000019270998
       9       -0.000026456210     0.000035219890     0.000008381506
      10        0.000004911127     0.000003594660     0.000004459956
      11        0.000000577765    -0.000018942190    -0.000024480520
      12        0.000160847418    -0.000299433522    -0.000277022973
      13        0.000162791840     0.000008096677     0.000081974857

  **** Optimization is complete! (in 5 steps) ****
    Final optimized geometry and variables:
    Molecular point group: c1

    Geometry (in Angstrom), charge = 0, multiplicity = 1:

    H           -2.369488544495    -1.319388558328    -0.389443842285
    C           -1.366236089534    -1.284163901995     0.020134764568
    C           -0.682430545943    -0.015244763150    -0.469209546487
    H           -0.835153050324    -2.168929796113    -0.311795402931
    H           -1.428481889865    -1.300301922837     1.099521719837
    C           -1.350807755042     1.265193148539     0.021176885652
    N            0.739825842919    -0.000452952546     0.005633133038
    H           -0.595502244212    -0.013202389450    -1.543846328848
    H           -2.361511645570     1.307931892142    -0.367972219344
    H           -0.815692246159     2.141112390874    -0.326995380613
    H           -1.393037272644     1.285287998729     1.102672621895
    O            0.934151980701    -0.183434448730     1.168950876902
    O            1.585986510619     0.213753299330    -0.806365247928

  Mulliken Charges: (a.u.)
   Center  Symbol    Alpha    Beta     Spin     Total
       1     H     0.40945  0.40945  0.00000  0.18110
       2     C     3.24881  3.24881  0.00000 -0.49762
       3     C     3.02366  3.02366  0.00000 -0.04732
       4     H     0.40397  0.40397  0.00000  0.19206
       5     H     0.39629  0.39629  0.00000  0.20742
       6     C     3.25049  3.25049  0.00000 -0.50099
       7     N     3.21595  3.21595  0.00000  0.56810
       8     H     0.38542  0.38542  0.00000  0.22917
       9     H     0.40690  0.40690  0.00000  0.18619
      10     H     0.40100  0.40100  0.00000  0.19800
      11     H     0.39799  0.39799  0.00000  0.20401
      12     O     4.23153  4.23153  0.00000 -0.46306
      13     O     4.22853  4.22853  0.00000 -0.45706

   Total alpha = 24.00000, Total beta = 24.00000, Total charge = -0.00000
