  ==> Input File <==

--------------------------------------------------------------------------
set {
	reference rhf
	basis cc-pvtz
}

set_num_threads( 4 )
memory 2 gb

molecule MOL {
0 1

H	 3.273419	 0.176595	 -0.102789
N	 2.433987	 -0.362316	 -0.080024
C	 1.263552	 0.494993	 0.021953
H	 2.497638	 -0.973615	 0.707122
C	 -0.016533	 -0.325589	 -0.026925
H	 1.280915	 1.180773	 -0.818522
H	 1.263064	 1.106893	 0.925038
C	 -1.280353	 0.525521	 0.047747
H	 -0.016686	 -0.912532	 -0.939714
H	 -0.014099	 -1.037598	 0.796369
C	 -2.326498	 0.132606	 -0.990130
H	 -1.017160	 1.571287	 -0.086671
H	 -1.713223	 0.446211	 1.041330
H	 -1.935184	 0.233432	 -1.996825
H	 -3.209365	 0.756884	 -0.914139
H	 -2.638372	 -0.898428	 -0.860191

	symmetry c1
}
set optking {
	frozen_dihedral = ("
		12 8 5 9
	")
}

ee = optimize('scf')
oeprop('DIPOLE', 'QUADRUPOLE', 'MULLIKEN_CHARGES')
f=open( 'psi4out.xyz', 'w' )
f.write( "16  " )
f.write( str(ee) + "\n" )
f.write( MOL.save_string_xyz() )
f.close()
--------------------------------------------------------------------------

    Molecular point group: c1
  Charge       = 0
  Multiplicity = 1
  Basis Set: CC-PVTZ
  Basis Set:
  @DF-RHF Final Energy:  -212.39555835818948
    Total Energy =                       -212.3955583581895894
    Molecular point group: c1
  Basis Set: CC-PVTZ
  Basis Set:
  Basis Set: CC-PVTZ
  Basis Set:
  @DF-RHF Final Energy:  -212.39580778558206
    Total Energy =                       -212.3958077855820648
  Basis Set: CC-PVTZ
  Basis Set:
  Basis Set: CC-PVTZ
  Basis Set:
  @DF-RHF Final Energy:  -212.39585699608034
    Total Energy =                       -212.3958569960805107
  Basis Set: CC-PVTZ
  Basis Set:
  Charge       = 0
  Multiplicity = 1
  Basis Set: CC-PVTZ
  Basis Set:

    Orbital Energies (a.u.)
    -----------------------

    Doubly Occupied:

       1A    -15.526663     2A    -11.238806     3A    -11.212806
       4A    -11.207680     5A    -11.205977     6A     -1.178598
       7A     -1.058253     8A     -0.959672     9A     -0.845766
      10A     -0.792481    11A     -0.664158    12A     -0.628071
      13A     -0.617696    14A     -0.578779    15A     -0.559899
      16A     -0.529126    17A     -0.499842    18A     -0.472818
      19A     -0.464009    20A     -0.455785    21A     -0.384130

  @DF-RHF Final Energy:  -212.39585785647751

   => Energetics <=

    Nuclear Repulsion Energy =            186.6320699418238291
    One-Electron Energy =                -655.8938129534413974
    Two-Electron Energy =                 256.8658851551401199
    DFT Exchange-Correlation Energy =       0.0000000000000000
    Empirical Dispersion Energy =           0.0000000000000000
    PCM Polarization Energy =               0.0000000000000000
    EFP Energy =                            0.0000000000000000
    Total Energy =                       -212.3958578564774484
    Molecular point group: c1
  Basis Set: CC-PVTZ
  Basis Set:

  -Total Gradient:
     Atom            X                  Y                   Z
    ------   -----------------  -----------------  -----------------
       1        0.000044618560    -0.000012412539     0.000003549283
       2        0.000052930603    -0.000022842371    -0.000022547460
       3       -0.000013110947     0.000029748197     0.000022771452
       4        0.000001403905     0.000001832256     0.000006772746
       5        0.001809549318     0.002860493190    -0.001080856088
       6       -0.000017308161    -0.000005632107     0.000003258489
       7       -0.000017385830    -0.000008250885    -0.000015109184
       8       -0.000827489412    -0.000889182043    -0.003320041701
       9       -0.001411068161    -0.002233002756     0.001457777600
      10        0.000007758497     0.000021895982    -0.000005309157
      11       -0.000041529651    -0.000016823808    -0.000023230142
      12        0.000386043690     0.000263455979     0.002958310439
      13       -0.000001854844    -0.000011439429    -0.000018822348
      14        0.000012962012     0.000009362539     0.000015575528
      15       -0.000002303477     0.000007471032     0.000016762856
      16        0.000016783897     0.000005326763     0.000001137686

  **** Optimization is complete! (in 4 steps) ****
    Final optimized geometry and variables:
    Molecular point group: c1

    Geometry (in Angstrom), charge = 0, multiplicity = 1:

    H            3.238651553597     0.080511067903     0.148080636787
    N            2.397118640684    -0.455684027897     0.151059396064
    C            1.227061622408     0.403747469499     0.222464649318
    H            2.439586262741    -1.066936849328     0.939663113342
    C           -0.054187436471    -0.412027582693     0.146279311024
    H            1.263394742709     1.087358102094    -0.619311825004
    H            1.204478315641     1.019104970307     1.123350942386
    C           -1.330803620331     0.443437079770     0.230109869853
    H           -0.048345733903    -0.999254423024    -0.765241119612
    H           -0.052477823527    -1.139254780989     0.954597601243
    C           -2.403396932516     0.041262056305    -0.775862411945
    H           -1.078891653469     1.491928116408     0.098992388377
    H           -1.744343846170     0.377617131605     1.231550292293
    H           -2.044588889366     0.153292631306    -1.793428146101
    H           -3.293760063214     0.650277463220    -0.667271824297
    H           -2.692834639634    -0.995849621301    -0.642243361204

  Mulliken Charges: (a.u.)
   Center  Symbol    Alpha    Beta     Spin     Total
       1     H     0.43021  0.43021  0.00000  0.13958
       2     N     3.68986  3.68986  0.00000 -0.37972
       3     C     3.02561  3.02561  0.00000 -0.05122
       4     H     0.43076  0.43076  0.00000  0.13849
       5     C     3.08431  3.08431  0.00000 -0.16861
       6     H     0.45686  0.45686  0.00000  0.08628
       7     H     0.46763  0.46763  0.00000  0.06473
       8     C     3.09239  3.09239  0.00000 -0.18478
       9     H     0.44950  0.44950  0.00000  0.10100
      10     H     0.45819  0.45819  0.00000  0.08361
      11     C     3.14649  3.14649  0.00000 -0.29298
      12     H     0.45590  0.45590  0.00000  0.08820
      13     H     0.45328  0.45328  0.00000  0.09343
      14     H     0.45461  0.45461  0.00000  0.09078
      15     H     0.45020  0.45020  0.00000  0.09960
      16     H     0.45419  0.45419  0.00000  0.09161

   Total alpha = 21.00000, Total beta = 21.00000, Total charge = -0.00000
