  ==> Input File <==

--------------------------------------------------------------------------
set {
	reference rhf
	basis 6-31G*
}

set_num_threads( 4 )
memory 2 gb

molecule MOL {
0 1

H	 -3.135461	 -1.215070	 0.001379
O	 -2.310168	 -0.871793	 -0.309793
C	 -2.026376	 0.340750	 0.341611
C	 -0.673256	 0.843270	 -0.132153
H	 -2.792215	 1.080697	 0.115987
H	 -2.013526	 0.200402	 1.421792
C	 0.486613	 -0.083066	 0.235839
H	 -0.715586	 0.970948	 -1.210718
H	 -0.508072	 1.829858	 0.297090
C	 1.840406	 0.433480	 -0.254303
H	 0.300215	 -1.068318	 -0.178947
H	 0.519509	 -0.203625	 1.318070
C	 1.719437	 1.383760	 -1.445104
H	 2.347755	 0.942710	 0.562397
H	 2.473109	 -0.408604	 -0.528211
H	 1.120665	 2.253891	 -1.191659
H	 2.694094	 1.735598	 -1.769448
H	 1.246345	 0.893540	 -2.291496

	symmetry c1
}
set optking {
	frozen_dihedral = ("
		14 10 7 11
	")
}

ee = optimize('scf')
oeprop('DIPOLE', 'QUADRUPOLE', 'MULLIKEN_CHARGES')
f=open( 'psi4out.xyz', 'w' )
f.write( "18  " )
f.write( str(ee) + "\n" )
f.write( MOL.save_string_xyz() )
f.close()
--------------------------------------------------------------------------

    Molecular point group: c1
  Charge       = 0
  Multiplicity = 1
  Basis Set: 6-31G*
  Basis Set:
  @DF-RHF Final Energy:  -271.16972612412013
    Total Energy =                       -271.1697261241201318
    Molecular point group: c1
  Basis Set: 6-31G*
  Basis Set:
  Basis Set: 6-31G*
  Basis Set:
  @DF-RHF Final Energy:  -271.17085486891972
    Total Energy =                       -271.1708548689195482
  Basis Set: 6-31G*
  Basis Set:
  Basis Set: 6-31G*
  Basis Set:
  @DF-RHF Final Energy:  -271.17311244866545
    Total Energy =                       -271.1731124486655062
  Basis Set: 6-31G*
  Basis Set:
  Basis Set: 6-31G*
  Basis Set:
  @DF-RHF Final Energy:  -271.17335467031114
    Total Energy =                       -271.1733546703111415
  Basis Set: 6-31G*
  Basis Set:
  Basis Set: 6-31G*
  Basis Set:
  @DF-RHF Final Energy:  -271.17338223467436
    Total Energy =                       -271.1733822346744773
  Basis Set: 6-31G*
  Basis Set:
  Basis Set: 6-31G*
  Basis Set:
  @DF-RHF Final Energy:  -271.17339159490558
    Total Energy =                       -271.1733915949058087
  Basis Set: 6-31G*
  Basis Set:
  Basis Set: 6-31G*
  Basis Set:
  @DF-RHF Final Energy:  -271.17339451774114
    Total Energy =                       -271.1733945177413148
  Basis Set: 6-31G*
  Basis Set:
  Charge       = 0
  Multiplicity = 1
  Basis Set: 6-31G*
  Basis Set:

    Orbital Energies (a.u.)
    -----------------------

    Doubly Occupied:

       1A    -20.552902     2A    -11.267934     3A    -11.211811
       4A    -11.211102     5A    -11.206595     6A    -11.204749
       7A     -1.359634     8A     -1.072232     9A     -1.005229
      10A     -0.915140    11A     -0.833427    12A     -0.765998
      13A     -0.704365    14A     -0.641246    15A     -0.615725
      16A     -0.601291    17A     -0.560456    18A     -0.550698
      19A     -0.528342    20A     -0.508884    21A     -0.488629
      22A     -0.463151    23A     -0.450117    24A     -0.446187
      25A     -0.427640

  @DF-RHF Final Energy:  -271.17339453537170

   => Energetics <=

    Nuclear Repulsion Energy =            252.0812627689547014
    One-Electron Energy =                -867.3223517349413214
    Two-Electron Energy =                 344.0676944306147789
    DFT Exchange-Correlation Energy =       0.0000000000000000
    Empirical Dispersion Energy =           0.0000000000000000
    PCM Polarization Energy =               0.0000000000000000
    EFP Energy =                            0.0000000000000000
    Total Energy =                       -271.1733945353718127
    Molecular point group: c1
  Basis Set: 6-31G*
  Basis Set:

  -Total Gradient:
     Atom            X                  Y                   Z
    ------   -----------------  -----------------  -----------------
       1        0.000004428968     0.000011753983     0.000004609267
       2        0.000002649184    -0.000000148315     0.000003810174
       3       -0.000016798624    -0.000001649110     0.000005019167
       4       -0.000012684197    -0.000021730569     0.000009435477
       5       -0.000012761308     0.000003574885     0.000007403037
       6       -0.000000298171    -0.000010177311    -0.000009291169
       7       -0.002553887299     0.001991655162    -0.005693274802
       8       -0.000011504660    -0.000022551761     0.000038794333
       9        0.000004186169     0.000008979975    -0.000005540174
      10       -0.002497718654     0.005906605601    -0.000878654705
      11        0.002492894786    -0.002626535344     0.004910220345
      12       -0.000029927320     0.000014904464    -0.000020725297
      13        0.000037230321    -0.000017658572    -0.000021690955
      14        0.002588727695    -0.005262237801     0.001642200326
      15       -0.000020630221     0.000025980374    -0.000009078958
      16       -0.000020614036    -0.000013697379     0.000010107849
      17        0.000014082681     0.000013777961     0.000010036910
      18        0.000032624696    -0.000000846240    -0.000003380827

  **** Optimization is complete! (in 8 steps) ****
    Final optimized geometry and variables:
    Molecular point group: c1

    Geometry (in Angstrom), charge = 0, multiplicity = 1:

    H           -2.920036507746    -1.595619735200     0.342004307372
    O           -2.121651635324    -1.220486024293    -0.000995478366
    C           -1.835232285463    -0.021053633962     0.673088662127
    C           -0.525051265735     0.536377022199     0.141986692759
    H           -2.632333797414     0.702954661973     0.513230098193
    H           -1.759160799166    -0.194293880383     1.745798651478
    C            0.668808322429    -0.376773040739     0.424021795256
    H           -0.638096052336     0.701457031619    -0.924490315715
    H           -0.364123393879     1.510945599943     0.599500370734
    C            2.054590299513     0.164145783746     0.006694047061
    H            0.505507203662    -1.353531876415    -0.016974268252
    H            0.700283750603    -0.565758789647     1.496233683106
    C            2.092090816111     1.066814508565    -1.226456270762
    H            2.522987721903     0.660354195115     0.853196629575
    H            2.695010750037    -0.693611048796    -0.186215996914
    H            1.544833200362     1.991096352026    -1.073975389828
    H            3.116844269651     1.330575395514    -1.469646307091
    H            1.666718873586     0.568902415957    -2.093080155335

  Mulliken Charges: (a.u.)
   Center  Symbol    Alpha    Beta     Spin     Total
       1     H     0.28062  0.28062  0.00000  0.43877
       2     O     4.36951  4.36951  0.00000 -0.73902
       3     C     2.99741  2.99741  0.00000  0.00518
       4     C     3.16272  3.16272  0.00000 -0.32545
       5     H     0.42922  0.42922  0.00000  0.14156
       6     H     0.43266  0.43266  0.00000  0.13468
       7     C     3.15668  3.15668  0.00000 -0.31336
       8     H     0.41253  0.41253  0.00000  0.17495
       9     H     0.42406  0.42406  0.00000  0.15189
      10     C     3.15385  3.15385  0.00000 -0.30771
      11     H     0.40664  0.40664  0.00000  0.18671
      12     H     0.42628  0.42628  0.00000  0.14744
      13     C     3.24231  3.24231  0.00000 -0.48463
      14     H     0.42338  0.42338  0.00000  0.15324
      15     H     0.42121  0.42121  0.00000  0.15758
      16     H     0.42115  0.42115  0.00000  0.15770
      17     H     0.41999  0.41999  0.00000  0.16001
      18     H     0.41978  0.41978  0.00000  0.16044

   Total alpha = 25.00000, Total beta = 25.00000, Total charge = -0.00000
