                              Psi4 1.0.54 Driver

  ==> Input File <==

--------------------------------------------------------------------------
set {
	reference rhf
	basis cc-pvtz
}

set_num_threads( 4 )
memory 2 gb

molecule MOL {
0 1

O	 -1.278239	 1.034789	 -0.784693
C	 -1.204115	 0.062668	 -0.112312
C	 -2.386398	 -0.667698	 0.460323
O	 -0.068058	 -0.518372	 0.226882
H	 -2.382952	 -1.693172	 0.114333
H	 -3.296656	 -0.175702	 0.158400
H	 -2.312537	 -0.685191	 1.540100
C	 -0.076761	 -1.555444	 1.213394
C	 1.298658	 -1.546736	 1.849994
C	 -0.421545	 -2.883030	 0.562821
H	 -0.827136	 -1.307283	 1.948542
H	 1.507439	 -0.583044	 2.296601
H	 1.353818	 -2.302308	 2.624449
H	 2.064573	 -1.755117	 1.112506
H	 -0.416593	 -3.671527	 1.306292
H	 -1.404831	 -2.847337	 0.115023
H	 0.304908	 -3.130927	 -0.202749

	symmetry c1
}
set optking {
	frozen_dihedral = ("
		8 4 2 1
	")
}

ee,wfn = optimize('scf', return_wfn=True)
oeprop( wfn, 'DIPOLE', 'QUADRUPOLE', 'MULLIKEN_CHARGES')
f=open( 'psi4out.xyz', 'w' )
f.write( "17  " )
f.write( str(ee) + "\n" )
f.write( MOL.save_string_xyz() )
f.close()
--------------------------------------------------------------------------

    Molecular point group: c1
  Charge       = 0
  Multiplicity = 1
  Basis Set: CC-PVTZ
  Basis Set:
  @DF-RHF Final Energy:  -345.00526469471544
    Total Energy =                       -345.0052646947153789
    Molecular point group: c1
  Basis Set: CC-PVTZ
  Basis Set:
  Basis Set: CC-PVTZ
  Basis Set:
  @DF-RHF Final Energy:  -345.02222336907647
    Total Energy =                       -345.0222233690764142
  Basis Set: CC-PVTZ
  Basis Set:
  Basis Set: CC-PVTZ
  Basis Set:
  @DF-RHF Final Energy:  -345.02636805167083
    Total Energy =                       -345.0263680516709428
  Basis Set: CC-PVTZ
  Basis Set:
  Basis Set: CC-PVTZ
  Basis Set:
  @DF-RHF Final Energy:  -345.01901043881332
    Total Energy =                       -345.0190104388132113
  Basis Set: CC-PVTZ
  Basis Set:
  @DF-RHF Final Energy:  -345.02718757167099
    Total Energy =                       -345.0271875716712771
  @DF-RHF Final Energy:  -345.02782681790501
    Total Energy =                       -345.0278268179047814
  @DF-RHF Final Energy:  -345.02829442348434
    Total Energy =                       -345.0282944234846241
  @DF-RHF Final Energy:  -345.02832064519481
    Total Energy =                       -345.0283206451950377
  Basis Set: CC-PVTZ
  Basis Set:
  @DF-RHF Final Energy:  -345.02854809180661
    Total Energy =                       -345.0285480918068401
  Basis Set: CC-PVTZ
  Basis Set:
  Basis Set: CC-PVTZ
  Basis Set:
  @DF-RHF Final Energy:  -345.02856708274260
    Total Energy =                       -345.0285670827425974
  Basis Set: CC-PVTZ
  Basis Set:
  Basis Set: CC-PVTZ
  Basis Set:
  @DF-RHF Final Energy:  -345.02856818860920
    Total Energy =                       -345.0285681886093698
  Basis Set: CC-PVTZ
  Basis Set:
  Charge       = 0
  Multiplicity = 1
  Basis Set: CC-PVTZ
  Basis Set:

    Orbital Energies (a.u.)
    -----------------------

    Doubly Occupied:

       1A    -20.589224     2A    -20.524032     3A    -11.367663
       4A    -11.302686     5A    -11.239917     6A    -11.226769
       7A    -11.223565     8A     -1.463023     9A     -1.364379
      10A     -1.079521    11A     -1.017178    12A     -0.957565
      13A     -0.862974    14A     -0.777422    15A     -0.700786
      16A     -0.667600    17A     -0.663430    18A     -0.620810
      19A     -0.598391    20A     -0.588479    21A     -0.562502
      22A     -0.557955    23A     -0.547758    24A     -0.531792
      25A     -0.510475    26A     -0.491145    27A     -0.441349
      28A     -0.434337

  @DF-RHF Final Energy:  -345.02856836992993

   => Energetics <=

    Nuclear Repulsion Energy =            322.3679913886857662
    One-Electron Energy =               -1108.9676639021797655
    Two-Electron Energy =                 441.5711041435638435
    DFT Exchange-Correlation Energy =       0.0000000000000000
    Empirical Dispersion Energy =           0.0000000000000000
    PCM Polarization Energy =               0.0000000000000000
    EFP Energy =                            0.0000000000000000
    Total Energy =                       -345.0285683699300989
    Molecular point group: c1
  Basis Set: CC-PVTZ
  Basis Set:

  -Total Gradient:
     Atom            X                  Y                   Z
    ------   -----------------  -----------------  -----------------
       1       -0.000192206093     0.000971152245     0.001298962413
       2        0.000223424272    -0.000727942895    -0.001219478370
       3       -0.000021013833    -0.000036259714     0.000013597424
       4        0.000006209880    -0.001273151620    -0.001123255687
       5        0.000013419276     0.000016909691     0.000012768279
       6        0.000000927158     0.000005900276     0.000002227430
       7        0.000013468250     0.000000179116    -0.000043383153
       8       -0.000068658322     0.001036607564     0.001024094511
       9        0.000026302896    -0.000013737234     0.000028215997
      10        0.000032517761     0.000017325789     0.000019961368
      11        0.000012130221    -0.000007352659     0.000000134542
      12       -0.000002463960    -0.000013888183    -0.000008841479
      13        0.000008142164     0.000002585826     0.000008876133
      14       -0.000007703956    -0.000002327227    -0.000000863030
      15       -0.000002935009     0.000014159686     0.000008508200
      16       -0.000035200088     0.000006743517    -0.000022431428
      17       -0.000006360618     0.000003095823     0.000000906846

  **** Optimization is complete! (in 12 steps) ****
    Final optimized geometry and variables:
    Molecular point group: c1

    Geometry (in Angstrom), charge = 0, multiplicity = 1:

    O           -0.706301928402     1.720684444782    -1.420020528228
    C           -0.725652050116     0.770701739678    -0.720305967071
    C           -2.014328994465     0.062066855509    -0.373564460154
    O            0.413503337611     0.312306884170    -0.218388766115
    H           -1.935882854834    -1.009078527332    -0.498335047878
    H           -2.783832617245     0.450193264891    -1.019676550998
    H           -2.288503087363     0.263573313145     0.654824654171
    C            0.531181258360    -0.685473059294     0.787791837444
    C            1.541702194852    -0.173866700542     1.797994106269
    C            0.959645423001    -1.993136829316     0.144507482797
    H           -0.419207217884    -0.819851935116     1.283608822680
    H            1.206178139527     0.758146479667     2.234028310651
    H            1.678012532776    -0.897847504737     2.592691427703
    H            2.497326230560    -0.000255068627     1.319675792398
    H            1.075907506825    -2.763738788289     0.897394480049
    H            0.228463124745    -2.333061340900    -0.578553334840
    H            1.905147444402    -1.864810513400    -0.367522394938

  Mulliken Charges: (a.u.)
   Center  Symbol    Alpha    Beta     Spin     Total
       1     O     4.18536  4.18536  0.00000 -0.37072
       2     C     2.82156  2.82156  0.00000  0.35687
       3     C     3.16780  3.16780  0.00000 -0.33560
       4     O     4.13875  4.13875  0.00000 -0.27751
       5     H     0.44720  0.44720  0.00000  0.10560
       6     H     0.42580  0.42580  0.00000  0.14839
       7     H     0.44579  0.44579  0.00000  0.10842
       8     C     2.94834  2.94834  0.00000  0.10333
       9     C     3.13457  3.13457  0.00000 -0.26914
      10     C     3.14033  3.14033  0.00000 -0.28066
      11     H     0.45125  0.45125  0.00000  0.09750
      12     H     0.44553  0.44553  0.00000  0.10893
      13     H     0.45526  0.45526  0.00000  0.08948
      14     H     0.44707  0.44707  0.00000  0.10586
      15     H     0.45108  0.45108  0.00000  0.09784
      16     H     0.44902  0.44902  0.00000  0.10195
      17     H     0.44528  0.44528  0.00000  0.10945

   Total alpha = 28.00000, Total beta = 28.00000, Total charge = -0.00000

*** Psi4 exiting successfully. Buy a developer a beer!
