  ==> Input File <==

--------------------------------------------------------------------------
set {
	reference rhf
	basis 6-31G*
}

set_num_threads( 1 )
memory 2 gb

molecule MOL {
0 1

O	 2.127462	 0.783874	 0.889831
C	 1.705091	 0.115954	 0.001797
C	 0.381791	 -0.609817	 0.001258
O	 2.360352	 -0.078441	 -1.135735
C	 -0.823008	 0.326187	 0.001381
H	 0.371250	 -1.265087	 -0.865474
H	 0.370908	 -1.265746	 0.867490
C	 -2.149452	 -0.435131	 -0.000098
H	 -0.770201	 0.977095	 -0.865636
H	 -0.771220	 0.975655	 0.869608
C	 -3.368779	 0.488503	 -0.000883
H	 -2.193746	 -1.087250	 -0.871175
H	 -2.195311	 -1.087803	 0.870418
C	 -4.693822	 -0.272754	 -0.001129
H	 -3.325798	 1.139422	 -0.871284
H	 -3.326423	 1.139959	 0.869145
H	 -4.781274	 -0.907928	 -0.878124
H	 -5.538651	 0.408946	 -0.001420
H	 -4.781694	 -0.907783	 0.875984
C	 3.621563	 0.551767	 -1.266659
H	 3.519667	 1.624920	 -1.192589
H	 3.988565	 0.277466	 -2.243360
H	 4.300643	 0.205853	 -0.500695

	symmetry c1
}
set optking {
	frozen_dihedral = ("
		15 11 8 12,
		9 5 8 12,
		9 5 3 6,
		1 2 4 20
	")
}

ee = energy('scf')
oeprop('DIPOLE', 'QUADRUPOLE', 'MULLIKEN_CHARGES')
f=open( 'psi4out.xyz', 'w' )
f.write( "23  " )
f.write( str(ee) + "\n" )
f.write( MOL.save_string_xyz() )
f.close()
--------------------------------------------------------------------------

    Molecular point group: c1

    Geometry (in Angstrom), charge = 0, multiplicity = 1:

       Center              X                  Y                   Z               Mass
    ------------   -----------------  -----------------  -----------------  -----------------
           O          2.184256226842     0.680189035893     1.067181034778    15.994914619560
           C          1.761885226842     0.012269035893     0.179147034778    12.000000000000
           C          0.438585226842    -0.713501964107     0.178608034778    12.000000000000
           O          2.417146226842    -0.182125964107    -0.958384965222    15.994914619560
           C         -0.766213773158     0.222502035893     0.178731034778    12.000000000000
           H          0.428044226842    -1.368771964107    -0.688123965222     1.007825032070
           H          0.427702226842    -1.369430964107     1.044840034778     1.007825032070
           C         -2.092657773158    -0.538815964107     0.177252034778    12.000000000000
           H         -0.713406773158     0.873410035893    -0.688285965222     1.007825032070
           H         -0.714425773158     0.871970035893     1.046958034778     1.007825032070
           C         -3.311984773158     0.384818035893     0.176467034778    12.000000000000
           H         -2.136951773158    -1.190934964107    -0.693824965222     1.007825032070
           H         -2.138516773158    -1.191487964107     1.047768034778     1.007825032070
           C         -4.637027773158    -0.376438964107     0.176221034778    12.000000000000
           H         -3.269003773158     1.035737035893    -0.693933965222     1.007825032070
           H         -3.269628773158     1.036274035893     1.046495034778     1.007825032070
           H         -4.724479773158    -1.011612964107    -0.700773965222     1.007825032070
           H         -5.481856773158     0.305261035893     0.175930034778     1.007825032070
           H         -4.724899773158    -1.011467964107     1.053334034778     1.007825032070
           C          3.678357226842     0.448082035893    -1.089308965222    12.000000000000
           H          3.576461226842     1.521235035893    -1.015238965222     1.007825032070
           H          4.045359226842     0.173781035893    -2.066009965222     1.007825032070
           H          4.357437226842     0.102168035893    -0.323344965222     1.007825032070

  Charge       = 0
  Multiplicity = 1
  Basis Set: 6-31G*
  Basis Set:

    Orbital Energies (a.u.)
    -----------------------

    Doubly Occupied:

       1A    -20.604800     2A    -20.543072     3A    -11.371212
       4A    -11.280168     5A    -11.233247     6A    -11.227692
       7A    -11.221440     8A    -11.219294     9A    -11.211664
      10A     -1.468887    11A     -1.361483    12A     -1.096654
      13A     -1.045150    14A     -0.986752    15A     -0.933455
      16A     -0.846847    17A     -0.798379    18A     -0.771419
      19A     -0.693943    20A     -0.680506    21A     -0.672159
      22A     -0.652889    23A     -0.605739    24A     -0.598236
      25A     -0.578005    26A     -0.571317    27A     -0.542880
      28A     -0.531460    29A     -0.523988    30A     -0.508375
      31A     -0.487380    32A     -0.475539    33A     -0.469040
      34A     -0.465828    35A     -0.453679    36A     -0.429790

  @DF-RHF Final Energy:  -422.97404596236623

   => Energetics <=

    Nuclear Repulsion Energy =            452.7899498483212142
    One-Electron Energy =               -1473.2034027170143418
    Two-Electron Energy =                 597.4394069063243933
    DFT Exchange-Correlation Energy =       0.0000000000000000
    Empirical Dispersion Energy =           0.0000000000000000
    PCM Polarization Energy =               0.0000000000000000
    EFP Energy =                            0.0000000000000000
    Total Energy =                       -422.9740459623687912

  Mulliken Charges: (a.u.)
   Center  Symbol    Alpha    Beta     Spin     Total
       1     O     4.28579  4.28579  0.00000 -0.57158
       2     C     2.61150  2.61150  0.00000  0.77699
       3     C     3.20266  3.20266  0.00000 -0.40532
       4     O     4.30285  4.30285  0.00000 -0.60569
       5     C     3.16155  3.16155  0.00000 -0.32310
       6     H     0.40115  0.40115  0.00000  0.19769
       7     H     0.40179  0.40179  0.00000  0.19642
       8     C     3.15283  3.15283  0.00000 -0.30566
       9     H     0.41541  0.41541  0.00000  0.16918
      10     H     0.40614  0.40614  0.00000  0.18773
      11     C     3.15245  3.15245  0.00000 -0.30491
      12     H     0.42199  0.42199  0.00000  0.15603
      13     H     0.42122  0.42122  0.00000  0.15756
      14     C     3.23986  3.23986  0.00000 -0.47973
      15     H     0.42190  0.42190  0.00000  0.15619
      16     H     0.42066  0.42066  0.00000  0.15867
      17     H     0.42144  0.42144  0.00000  0.15712
      18     H     0.41808  0.41808  0.00000  0.16384
      19     H     0.42106  0.42106  0.00000  0.15789
      20     C     3.09331  3.09331  0.00000 -0.18663
      21     H     0.40894  0.40894  0.00000  0.18212
      22     H     0.40863  0.40863  0.00000  0.18274
      23     H     0.40878  0.40878  0.00000  0.18245

   Total alpha = 36.00000, Total beta = 36.00000, Total charge =  0.00000
