  ==> Input File <==

--------------------------------------------------------------------------
set {
	reference rhf
	basis 6-31G*
}

set_num_threads( 1 )
memory 2 gb

molecule MOL {
0 1

H	 -1.836216	 1.387520	 -0.000064
C	 -1.301823	 0.443321	 -0.000031
O	 -0.003969	 0.658512	 0.000451
O	 -1.829879	 -0.616434	 -0.000857
C	 0.463454	 1.848408	 0.635155
C	 1.971176	 1.869515	 0.506128
H	 0.148809	 1.838304	 1.669667
H	 0.006853	 2.702766	 0.154653
H	 2.410664	 1.002563	 0.986000
H	 2.368479	 2.761951	 0.978296
H	 2.268188	 1.871210	 -0.536307

	symmetry c1
}
set optking {
	frozen_dihedral = ("
		7 5 3 2
	")
}

ee = energy('scf')
oeprop('DIPOLE', 'QUADRUPOLE', 'MULLIKEN_CHARGES')
f=open( 'psi4out.xyz', 'w' )
f.write( "11  " )
f.write( str(ee) + "\n" )
f.write( MOL.save_string_xyz() )
f.close()
--------------------------------------------------------------------------

    Molecular point group: c1

    Geometry (in Angstrom), charge = 0, multiplicity = 1:

       Center              X                  Y                   Z               Mass
    ------------   -----------------  -----------------  -----------------  -----------------
           H         -1.696693642836     0.546549233533    -0.229223400454     1.007825032070
           C         -1.162300642836    -0.397649766467    -0.229190400454    12.000000000000
           O          0.135553357164    -0.182458766467    -0.228708400454    15.994914619560
           O         -1.690356642836    -1.457404766467    -0.230016400454    15.994914619560
           C          0.602976357164     1.007437233533     0.405995599546    12.000000000000
           C          2.110698357164     1.028544233533     0.276968599546    12.000000000000
           H          0.288331357164     0.997333233533     1.440507599546     1.007825032070
           H          0.146375357164     1.861795233533    -0.074506400454     1.007825032070
           H          2.550186357164     0.161592233533     0.756840599546     1.007825032070
           H          2.508001357164     1.920980233533     0.749136599546     1.007825032070
           H          2.407710357164     1.030239233533    -0.765466400454     1.007825032070

  Charge       = 0
  Multiplicity = 1
  Basis Set: 6-31G*
  Basis Set:

    Orbital Energies (a.u.)
    -----------------------

    Doubly Occupied:

       1A    -20.609283     2A    -20.558586     3A    -11.379514
       4A    -11.309111     5A    -11.235524     6A     -1.472284
       7A     -1.379075     8A     -1.057634     9A     -0.890647
      10A     -0.848903    11A     -0.737797    12A     -0.694810
      13A     -0.666295    14A     -0.609440    15A     -0.570022
      16A     -0.561787    17A     -0.534479    18A     -0.519632
      19A     -0.459502    20A     -0.449815

  @DF-RHF Final Energy:  -266.81603026497430

   => Energetics <=

    Nuclear Repulsion Energy =            176.2464866532524184
    One-Electron Energy =                -713.0368142241469513
    Two-Electron Energy =                 269.9742973059206861
    DFT Exchange-Correlation Energy =       0.0000000000000000
    Empirical Dispersion Energy =           0.0000000000000000
    PCM Polarization Energy =               0.0000000000000000
    EFP Energy =                            0.0000000000000000
    Total Energy =                       -266.8160302649738469

  Mulliken Charges: (a.u.)
   Center  Symbol    Alpha    Beta     Spin     Total
       1     H     0.43674  0.43674  0.00000  0.12651
       2     C     2.71674  2.71674  0.00000  0.56652
       3     O     4.28668  4.28668  0.00000 -0.57337
       4     O     4.24848  4.24848  0.00000 -0.49697
       5     C     3.01084  3.01084  0.00000 -0.02167
       6     C     3.24745  3.24745  0.00000 -0.49490
       7     H     0.41157  0.41157  0.00000  0.17686
       8     H     0.41582  0.41582  0.00000  0.16836
       9     H     0.40407  0.40407  0.00000  0.19187
      10     H     0.41520  0.41520  0.00000  0.16960
      11     H     0.40640  0.40640  0.00000  0.18719

   Total alpha = 20.00000, Total beta = 20.00000, Total charge =  0.00000
