                              Psi4 1.0.54 Driver

  ==> Input File <==

--------------------------------------------------------------------------
set {
	reference rhf
	basis cc-pvtz
}

set_num_threads( 4 )
memory 2 gb

molecule MOL {
0 1

H	 -2.907052	 0.099472	 2.052054
O	 -2.065298	 0.381418	 1.745470
C	 -2.021813	 0.336996	 0.342658
C	 -0.669613	 0.837286	 -0.127252
H	 -2.174088	 -0.681058	 -0.006772
H	 -2.812582	 0.952713	 -0.081560
C	 0.490865	 -0.082543	 0.241244
H	 -0.708709	 0.967192	 -1.204587
H	 -0.507562	 1.822272	 0.303070
C	 1.839800	 0.429565	 -0.255472
H	 0.305636	 -1.070211	 -0.165276
H	 0.527397	 -0.195943	 1.322876
C	 3.001144	 -0.485193	 0.119072
H	 1.804373	 0.541073	 -1.335756
H	 2.020437	 1.423114	 0.146921
H	 2.866892	 -1.477297	 -0.298806
H	 3.943543	 -0.095749	 -0.249061
H	 3.085064	 -0.590459	 1.195790

	symmetry c1
}
set optking {
	frozen_dihedral = ("
		2 3 4 8
	")
}

ee,wfn = optimize('scf', return_wfn=True)
oeprop( wfn, 'DIPOLE', 'QUADRUPOLE', 'MULLIKEN_CHARGES')
f=open( 'psi4out.xyz', 'w' )
f.write( "18  " )
f.write( str(ee) + "\n" )
f.write( MOL.save_string_xyz() )
f.close()
--------------------------------------------------------------------------

    Molecular point group: c1
  Charge       = 0
  Multiplicity = 1
  Basis Set: CC-PVTZ
  Basis Set:
  @DF-RHF Final Energy:  -271.28677627069055
    Total Energy =                       -271.2867762706907229
    Molecular point group: c1
  Basis Set: CC-PVTZ
  Basis Set:
  Basis Set: CC-PVTZ
  Basis Set:
  @DF-RHF Final Energy:  -271.28686433021505
    Total Energy =                       -271.2868643302149962
  Basis Set: CC-PVTZ
  Basis Set:
  Basis Set: CC-PVTZ
  Basis Set:
  @DF-RHF Final Energy:  -271.28688021160025
    Total Energy =                       -271.2868802116005327
  Basis Set: CC-PVTZ
  Basis Set:
  Basis Set: CC-PVTZ
  Basis Set:
  @DF-RHF Final Energy:  -271.28688224791620
    Total Energy =                       -271.2868822479160826
  Basis Set: CC-PVTZ
  Basis Set:
  Charge       = 0
  Multiplicity = 1
  Basis Set: CC-PVTZ
  Basis Set:

    Orbital Energies (a.u.)
    -----------------------

    Doubly Occupied:

       1A    -20.546225     2A    -11.265900     3A    -11.210319
       4A    -11.209281     5A    -11.205365     6A    -11.202948
       7A     -1.364051     8A     -1.076784     9A     -1.010334
      10A     -0.914524    11A     -0.818574    12A     -0.785156
      13A     -0.708578    14A     -0.641858    15A     -0.628536
      16A     -0.582200    17A     -0.571951    18A     -0.559703
      19A     -0.524827    20A     -0.501581    21A     -0.488850
      22A     -0.469039    23A     -0.459608    24A     -0.450430
      25A     -0.430908

  @DF-RHF Final Energy:  -271.28688249676270

   => Energetics <=

    Nuclear Repulsion Energy =            249.1673536803798186
    One-Electron Energy =                -861.6534073152486144
    Two-Electron Energy =                 341.1991711381061805
    DFT Exchange-Correlation Energy =       0.0000000000000000
    Empirical Dispersion Energy =           0.0000000000000000
    PCM Polarization Energy =               0.0000000000000000
    EFP Energy =                            0.0000000000000000
    Total Energy =                       -271.2868824967625869
    Molecular point group: c1
  Basis Set: CC-PVTZ
  Basis Set:

  -Total Gradient:
     Atom            X                  Y                   Z
    ------   -----------------  -----------------  -----------------
       1        0.000055441111     0.000023402033    -0.000022975973
       2       -0.000282861205     0.000587273474    -0.000020529837
       3        0.000241125263    -0.000653419406     0.000057489249
       4        0.000241091671    -0.000781397128    -0.000127876049
       5       -0.000004342716     0.000012309017    -0.000006681062
       6        0.000002594265     0.000008581070     0.000015620984
       7       -0.000002634729    -0.000002019779     0.000000000241
       8       -0.000243542078     0.000769143489     0.000094340211
       9        0.000009272253     0.000007581966     0.000004928295
      10       -0.000001919626     0.000013531211    -0.000009219190
      11       -0.000010344884     0.000023126068     0.000006540248
      12        0.000000633904    -0.000003033178     0.000001174673
      13       -0.000001690654    -0.000007542167    -0.000004480277
      14        0.000004832996    -0.000001363851     0.000015042457
      15        0.000002737077    -0.000003620202    -0.000001697762
      16        0.000001164112     0.000005645828     0.000005361668
      17       -0.000010798649    -0.000002706093     0.000000141991
      18       -0.000000758115     0.000004507650    -0.000007179866

  **** Optimization is complete! (in 5 steps) ****
    Final optimized geometry and variables:
    Molecular point group: c1

    Geometry (in Angstrom), charge = 0, multiplicity = 1:

    H           -2.910074813481    -0.153189939943     1.698859672051
    O           -2.096333697477     0.182086521525     1.371375490721
    C           -2.071522532542     0.107904788321    -0.030797514250
    C           -0.722336694227     0.592092889462    -0.525878466882
    H           -2.245218405581    -0.913997990646    -0.361923322190
    H           -2.857721359768     0.728821100044    -0.452780078389
    C            0.438545593532    -0.323544806738    -0.149774082639
    H           -0.775887562499     0.699438992021    -1.606159903202
    H           -0.552435514412     1.586052353938    -0.122954988842
    C            1.791138922507     0.199088123381    -0.624803163237
    H            0.267256796838    -1.310554259593    -0.574475793972
    H            0.456674618308    -0.450576804178     0.926882779493
    C            2.950498961907    -0.720137107405    -0.255305144746
    H            1.768503352792     0.333713573905    -1.703200256961
    H            1.963633018271     1.183749411167    -0.199090955997
    H            2.825460436397    -1.704133270152    -0.695190281110
    H            3.896101414969    -0.320472322280    -0.603622828685
    H            3.020491026500    -0.847014932247     0.819810466552

  Mulliken Charges: (a.u.)
   Center  Symbol    Alpha    Beta     Spin     Total
       1     H     0.39565  0.39565  0.00000  0.20871
       2     O     4.19903  4.19903  0.00000 -0.39807
       3     C     2.97336  2.97336  0.00000  0.05329
       4     C     3.09106  3.09106  0.00000 -0.18212
       5     H     0.47392  0.47392  0.00000  0.05216
       6     H     0.46538  0.46538  0.00000  0.06924
       7     C     3.08701  3.08701  0.00000 -0.17402
       8     H     0.45397  0.45397  0.00000  0.09206
       9     H     0.45201  0.45201  0.00000  0.09598
      10     C     3.08364  3.08364  0.00000 -0.16728
      11     H     0.45945  0.45945  0.00000  0.08110
      12     H     0.44504  0.44504  0.00000  0.10993
      13     C     3.14984  3.14984  0.00000 -0.29969
      14     H     0.45677  0.45677  0.00000  0.08646
      15     H     0.45408  0.45408  0.00000  0.09184
      16     H     0.45606  0.45606  0.00000  0.08788
      17     H     0.44930  0.44930  0.00000  0.10140
      18     H     0.45444  0.45444  0.00000  0.09113

   Total alpha = 25.00000, Total beta = 25.00000, Total charge = -0.00000

*** Psi4 exiting successfully. Buy a developer a beer!
