  ==> Input File <==

--------------------------------------------------------------------------
set {
	reference rhf
	basis cc-pvtz
}

set_num_threads( 4 )
memory 2 gb

molecule MOL {
0 1

H	 -3.162190	 0.493205	 -0.000107
C	 -2.363908	 -0.234727	 0.000005
O	 -1.158738	 0.454634	 -0.000087
H	 -2.464314	 -0.863616	 -0.882153
H	 -2.464327	 -0.863359	 0.882345
C	 -0.028611	 -0.359694	 0.000037
C	 1.202683	 0.495175	 -0.222461
H	 -0.110127	 -1.112467	 -0.784391
H	 0.049282	 -0.890975	 0.948887
C	 2.487121	 -0.326042	 -0.235634
H	 1.089340	 1.026467	 -1.160975
H	 1.247504	 1.246153	 0.558548
H	 2.473503	 -1.068677	 -1.026452
H	 3.349822	 0.308761	 -0.396239
H	 2.632877	 -0.847277	 0.704652

	symmetry c1
}
set optking {
	frozen_dihedral = ("
		8 6 3 2
	")
}

ee = optimize('scf')
oeprop('DIPOLE', 'QUADRUPOLE', 'MULLIKEN_CHARGES')
f=open( 'psi4out.xyz', 'w' )
f.write( "15  " )
f.write( str(ee) + "\n" )
f.write( MOL.save_string_xyz() )
f.close()
--------------------------------------------------------------------------

    Molecular point group: c1
  Charge       = 0
  Multiplicity = 1
  Basis Set: CC-PVTZ
  Basis Set:
  @DF-RHF Final Energy:  -232.22801857614371
    Total Energy =                       -232.2280185761438815
    Molecular point group: c1
  Basis Set: CC-PVTZ
  Basis Set:
  Basis Set: CC-PVTZ
  Basis Set:
  @DF-RHF Final Energy:  -232.22802985146461
    Total Energy =                       -232.2280298514646688
  Basis Set: CC-PVTZ
  Basis Set:
  Charge       = 0
  Multiplicity = 1
  Basis Set: CC-PVTZ
  Basis Set:

    Orbital Energies (a.u.)
    -----------------------

    Doubly Occupied:

       1A    -20.547410     2A    -11.264399     3A    -11.261862
       4A    -11.212905     5A    -11.210793     6A     -1.381640
       7A     -1.058495     8A     -0.956198     9A     -0.877454
      10A     -0.809737    11A     -0.676762    12A     -0.655923
      13A     -0.632501    14A     -0.608339    15A     -0.565473
      16A     -0.540656    17A     -0.503847    18A     -0.490449
      19A     -0.478593    20A     -0.463387    21A     -0.416147

  @DF-RHF Final Energy:  -232.22803224076603

   => Energetics <=

    Nuclear Repulsion Energy =            189.9933739347364963
    One-Electron Energy =                -691.2168812167835767
    Two-Electron Energy =                 268.9954750412809972
    DFT Exchange-Correlation Energy =       0.0000000000000000
    Empirical Dispersion Energy =           0.0000000000000000
    PCM Polarization Energy =               0.0000000000000000
    EFP Energy =                            0.0000000000000000
    Total Energy =                       -232.2280322407660833
    Molecular point group: c1
  Basis Set: CC-PVTZ
  Basis Set:

  -Total Gradient:
     Atom            X                  Y                   Z
    ------   -----------------  -----------------  -----------------
       1        0.000016972712     0.000012432830     0.000002024754
       2       -0.000036576207    -0.000042403532    -0.001017252114
       3       -0.000152362960    -0.000180263537     0.001624179072
       4        0.000000632321     0.000005930434     0.000001627374
       5        0.000001444189     0.000004627126     0.000001863441
       6        0.000725012412     0.000950818154    -0.001419116772
       7        0.000043941434     0.000043694725    -0.000008523802
       8       -0.000561541199    -0.000755584718     0.000852950079
       9       -0.000001903672    -0.000029532012    -0.000029162284
      10       -0.000033051725    -0.000013751974    -0.000013248834
      11       -0.000001470613     0.000009171551    -0.000011145036
      12       -0.000001990335    -0.000004675732     0.000003175703
      13        0.000004907098    -0.000010050726     0.000000890369
      14       -0.000005437889     0.000009499016     0.000004413199
      15        0.000001424428     0.000000088395     0.000007324852

  **** Optimization is complete! (in 3 steps) ****
    Final optimized geometry and variables:
    Molecular point group: c1

    Geometry (in Angstrom), charge = 0, multiplicity = 1:

    H           -3.158576200512     0.500536977441     0.113626623158
    C           -2.361174167626    -0.228303538455     0.097069847215
    O           -1.155277328211     0.459417387703     0.089034315806
    H           -2.471930349151    -0.848315178458    -0.789934388123
    H           -2.453415295602    -0.865648338830     0.974374133201
    C           -0.024393090999    -0.354268554477     0.079128830203
    C            1.207495967194     0.500708681370    -0.138239000348
    H           -0.110111948930    -1.106039414075    -0.705465496384
    H            0.053977667280    -0.892726603474     1.024280044556
    C            2.492837425250    -0.319270599239    -0.137000317563
    H            1.101260983524     1.028133471343    -1.079860712076
    H            1.245235135301     1.254978746907     0.640051959312
    H            2.485827199532    -1.066884549842    -0.923322700991
    H            3.356179233236     0.315419252908    -0.295127109665
    H            2.631948023640    -0.834507751940     0.807598383638

  Mulliken Charges: (a.u.)
   Center  Symbol    Alpha    Beta     Spin     Total
       1     H     0.44706  0.44706  0.00000  0.10589
       2     C     3.03343  3.03343  0.00000 -0.06686
       3     O     4.17181  4.17181  0.00000 -0.34362
       4     H     0.47158  0.47158  0.00000  0.05685
       5     H     0.47255  0.47255  0.00000  0.05491
       6     C     2.95622  2.95622  0.00000  0.08755
       7     C     3.08014  3.08014  0.00000 -0.16028
       8     H     0.47719  0.47719  0.00000  0.04562
       9     H     0.47410  0.47410  0.00000  0.05179
      10     C     3.15579  3.15579  0.00000 -0.31158
      11     H     0.45156  0.45156  0.00000  0.09688
      12     H     0.45069  0.45069  0.00000  0.09862
      13     H     0.45593  0.45593  0.00000  0.08815
      14     H     0.44628  0.44628  0.00000  0.10744
      15     H     0.45568  0.45568  0.00000  0.08864

   Total alpha = 21.00000, Total beta = 21.00000, Total charge = -0.00000
