  ==> Input File <==

--------------------------------------------------------------------------
set {
	reference rhf
	basis 6-31G*
}

set_num_threads( 4 )
memory 2 gb

molecule MOL {
0 1

H	 -2.798360	 -0.862255	 -0.071053
N	 -1.863561	 -0.715187	 0.256814
C	 -1.344686	 0.554728	 -0.219830
H	 -1.300452	 -1.461917	 -0.101532
C	 0.081427	 0.741154	 0.254071
H	 -1.362155	 0.656231	 -1.305829
H	 -1.952773	 1.354456	 0.191809
O	 0.079146	 1.676470	 1.294392
H	 0.488971	 -0.207034	 0.604050
H	 0.697314	 1.094772	 -0.569866
C	 1.344184	 2.008646	 1.770741
H	 1.216238	 2.731002	 2.565429
H	 1.861321	 1.137092	 2.168164
H	 1.960239	 2.448911	 0.989427

	symmetry c1
}
set optking {
	frozen_dihedral = ("
		8 5 3 6
	")
}

ee = optimize('scf')
oeprop('DIPOLE', 'QUADRUPOLE', 'MULLIKEN_CHARGES')
f=open( 'psi4out.xyz', 'w' )
f.write( "14  " )
f.write( str(ee) + "\n" )
f.write( MOL.save_string_xyz() )
f.close()
--------------------------------------------------------------------------

    Molecular point group: c1
  Charge       = 0
  Multiplicity = 1
  Basis Set: 6-31G*
  Basis Set:
  @DF-RHF Final Energy:  -248.11539833594259
    Total Energy =                       -248.1153983359427002
    Molecular point group: c1
  Basis Set: 6-31G*
  Basis Set:
  Basis Set: 6-31G*
  Basis Set:
  @DF-RHF Final Energy:  -248.11630729434020
    Total Energy =                       -248.1163072943399470
  Basis Set: 6-31G*
  Basis Set:
  Basis Set: 6-31G*
  Basis Set:
  @DF-RHF Final Energy:  -248.11663328395935
    Total Energy =                       -248.1166332839594588
  Basis Set: 6-31G*
  Basis Set:
  Basis Set: 6-31G*
  Basis Set:
  @DF-RHF Final Energy:  -248.11666383043374
    Total Energy =                       -248.1166638304335947
  Basis Set: 6-31G*
  Basis Set:
  Charge       = 0
  Multiplicity = 1
  Basis Set: 6-31G*
  Basis Set:

    Orbital Energies (a.u.)
    -----------------------

    Doubly Occupied:

       1A    -20.551186     2A    -15.535790     3A    -11.264548
       4A    -11.261392     5A    -11.241541     6A     -1.376177
       7A     -1.177567     8A     -0.996323     9A     -0.899838
      10A     -0.822518    11A     -0.677169    12A     -0.669855
      13A     -0.642647    14A     -0.618034    15A     -0.606923
      16A     -0.530973    17A     -0.527434    18A     -0.501171
      19A     -0.466432    20A     -0.411166    21A     -0.384318

  @DF-RHF Final Energy:  -248.11666552229588

   => Energetics <=

    Nuclear Repulsion Energy =            191.6386891968296027
    One-Electron Energy =                -717.1847112863395068
    Two-Electron Energy =                 277.4293565672140858
    DFT Exchange-Correlation Energy =       0.0000000000000000
    Empirical Dispersion Energy =           0.0000000000000000
    PCM Polarization Energy =               0.0000000000000000
    EFP Energy =                            0.0000000000000000
    Total Energy =                       -248.1166655222958752
    Molecular point group: c1
  Basis Set: 6-31G*
  Basis Set:

  -Total Gradient:
     Atom            X                  Y                   Z
    ------   -----------------  -----------------  -----------------
       1       -0.000057903412    -0.000042442344    -0.000009969428
       2        0.000041257297    -0.000010193262     0.000014250624
       3        0.000732459176    -0.002588604287    -0.000611906208
       4       -0.000003991443    -0.000076780459    -0.000014765554
       5       -0.000350274541    -0.001185291085     0.001842163150
       6       -0.000520864387     0.002482719806     0.000235363603
       7        0.000020756082     0.000059454407    -0.000022583277
       8        0.000159115812     0.001451986254    -0.001333109891
       9       -0.000022830426    -0.000017356032    -0.000013333356
      10        0.000027597298    -0.000019987133    -0.000050754377
      11        0.000018056880    -0.000077775589    -0.000008814543
      12       -0.000046225515    -0.000000699681    -0.000032479477
      13        0.000012644312     0.000003370062     0.000014293769
      14       -0.000009797133     0.000021599341    -0.000008355037

  **** Optimization is complete! (in 5 steps) ****
    Final optimized geometry and variables:
    Molecular point group: c1

    Geometry (in Angstrom), charge = 0, multiplicity = 1:

    H           -2.492386585028    -1.675095900486    -0.535210668945
    N           -1.504186402917    -1.598997388241    -0.391743774867
    C           -1.006285562221    -0.331082181448    -0.904190790656
    H           -1.081345804863    -2.369772866156    -0.872939029273
    C            0.426262881382    -0.060240628391    -0.442467254922
    H           -1.063216236158    -0.246457660511    -1.990603689568
    H           -1.624417099373     0.460925053397    -0.501506854307
    O            0.406836311837     0.881309914149     0.589035563871
    H            0.886096709708    -0.985777877532    -0.101305812696
    H            1.028385071604     0.322342530365    -1.266887327063
    C            1.656954479209     1.149736538839     1.135752780315
    H            1.522167942391     1.892260400234     1.910362155917
    H            2.100216020475     0.258385145211     1.575881810745
    H            2.344562802340     1.542890734882     0.388025649399

  Mulliken Charges: (a.u.)
   Center  Symbol    Alpha    Beta     Spin     Total
       1     H     0.33100  0.33100  0.00000  0.33801
       2     N     3.92058  3.92058  0.00000 -0.84115
       3     C     3.07967  3.07967  0.00000 -0.15933
       4     H     0.33566  0.33566  0.00000  0.32867
       5     C     2.98332  2.98332  0.00000  0.03336
       6     H     0.43140  0.43140  0.00000  0.13720
       7     H     0.40178  0.40178  0.00000  0.19645
       8     O     4.30372  4.30372  0.00000 -0.60744
       9     H     0.42634  0.42634  0.00000  0.14731
      10     H     0.43375  0.43375  0.00000  0.13249
      11     C     3.07958  3.07958  0.00000 -0.15916
      12     H     0.41223  0.41223  0.00000  0.17553
      13     H     0.42888  0.42888  0.00000  0.14224
      14     H     0.43209  0.43209  0.00000  0.13583

   Total alpha = 21.00000, Total beta = 21.00000, Total charge = -0.00000
