  ==> Input File <==

--------------------------------------------------------------------------
set {
	reference rhf
	basis 6-31G*
}

set_num_threads( 1 )
memory 2 gb

molecule MOL {
0 1

H	 2.176868	 -0.646004	 -0.217325
O	 1.337496	 -0.537251	 0.205931
C	 0.702312	 0.627605	 -0.264544
C	 -0.714990	 0.596302	 0.266387
H	 0.682322	 0.642550	 -1.350929
H	 1.215941	 1.520383	 0.085680
O	 -1.405996	 -0.526611	 -0.195820
H	 -1.257453	 1.468809	 -0.075599
H	 -0.688972	 0.618407	 1.353696
H	 -1.400386	 -1.174544	 0.497120

	symmetry c1
}
set optking {
	frozen_dihedral = ("
		5 3 4 7
	")
}

ee = energy('scf')
oeprop('DIPOLE', 'QUADRUPOLE', 'MULLIKEN_CHARGES')
f=open( 'psi4out.xyz', 'w' )
f.write( "10  " )
f.write( str(ee) + "\n" )
f.write( MOL.save_string_xyz() )
f.close()
--------------------------------------------------------------------------

    Molecular point group: c1

    Geometry (in Angstrom), charge = 0, multiplicity = 1:

       Center              X                  Y                   Z               Mass
    ------------   -----------------  -----------------  -----------------  -----------------
           H          2.185149676270    -0.647924068221    -0.225042575396     1.007825032070
           O          1.345777676270    -0.539171068221     0.198213424604    15.994914619560
           C          0.710593676270     0.625684931779    -0.272261575396    12.000000000000
           C         -0.706708323730     0.594381931779     0.258669424604    12.000000000000
           H          0.690603676270     0.640629931779    -1.358646575396     1.007825032070
           H          1.224222676270     1.518462931779     0.077962424604     1.007825032070
           O         -1.397714323730    -0.528531068221    -0.203537575396    15.994914619560
           H         -1.249171323730     1.466888931779    -0.083316575396     1.007825032070
           H         -0.680690323730     0.616486931779     1.345978424604     1.007825032070
           H         -1.392104323730    -1.176464068221     0.489402424604     1.007825032070

  Charge       = 0
  Multiplicity = 1
  Basis Set: 6-31G*
  Basis Set:

    Orbital Energies (a.u.)
    -----------------------

    Doubly Occupied:

       1A    -20.557126     2A    -20.550267     3A    -11.269970
       4A    -11.268604     5A     -1.373338     6A     -1.348924
       7A     -0.999600     8A     -0.835384     9A     -0.720525
      10A     -0.695801    11A     -0.624542    12A     -0.598080
      13A     -0.581227    14A     -0.519910    15A     -0.488857
      16A     -0.444520    17A     -0.432840

  @DF-RHF Final Energy:  -228.92101552920352

   => Energetics <=

    Nuclear Repulsion Energy =            134.1420878086843516
    One-Electron Energy =                -579.5072866516420618
    Two-Electron Energy =                 216.4441833137539675
    DFT Exchange-Correlation Energy =       0.0000000000000000
    Empirical Dispersion Energy =           0.0000000000000000
    PCM Polarization Energy =               0.0000000000000000
    EFP Energy =                            0.0000000000000000
    Total Energy =                       -228.9210155292037712

  Mulliken Charges: (a.u.)
   Center  Symbol    Alpha    Beta     Spin     Total
       1     H     0.27883  0.27883  0.00000  0.44233
       2     O     4.37369  4.37369  0.00000 -0.74737
       3     C     3.00048  3.00048  0.00000 -0.00095
       4     C     3.00582  3.00582  0.00000 -0.01163
       5     H     0.42388  0.42388  0.00000  0.15224
       6     H     0.43193  0.43193  0.00000  0.13613
       7     O     4.36565  4.36565  0.00000 -0.73130
       8     H     0.41966  0.41966  0.00000  0.16068
       9     H     0.42434  0.42434  0.00000  0.15131
      10     H     0.27572  0.27572  0.00000  0.44856

   Total alpha = 17.00000, Total beta = 17.00000, Total charge =  0.00000
