  ==> Input File <==

--------------------------------------------------------------------------
set {
	reference rhf
	basis 6-31G*
}

set_num_threads( 4 )
memory 2 gb

molecule MOL {
0 1

H	 -2.172150	 0.880146	 0.502514
C	 -2.018062	 -0.000025	 -0.114509
O	 -0.774054	 0.001095	 -0.743181
H	 -2.760490	 0.003458	 -0.901350
H	 -2.173624	 -0.884374	 0.496163
C	 -0.164295	 -1.228511	 -1.093603
C	 1.148921	 -0.806512	 -1.748882
C	 0.121249	 -2.077659	 0.149217
C	 -1.022917	 -2.005277	 -2.096857
H	 1.747644	 -0.233517	 -1.049854
H	 0.951228	 -0.182427	 -2.613064
H	 1.721620	 -1.670941	 -2.068945
H	 0.667929	 -1.495903	 0.883879
H	 0.720643	 -2.942543	 -0.115930
H	 -0.788586	 -2.443920	 0.612474
H	 -1.279660	 -1.372894	 -2.940199
H	 -0.478581	 -2.866810	 -2.469676
H	 -1.942271	 -2.370713	 -1.652023

	symmetry c1
}
set optking {
	frozen_dihedral = ("
		6 3 2 5
	")
}

ee = optimize('scf')
oeprop('DIPOLE', 'QUADRUPOLE', 'MULLIKEN_CHARGES')
f=open( 'psi4out.xyz', 'w' )
f.write( "18  " )
f.write( str(ee) + "\n" )
f.write( MOL.save_string_xyz() )
f.close()
--------------------------------------------------------------------------

    Molecular point group: c1
  Charge       = 0
  Multiplicity = 1
  Basis Set: 6-31G*
  Basis Set:
  @DF-RHF Final Energy:  -271.17237880349029
    Total Energy =                       -271.1723788034903464
    Molecular point group: c1
  Basis Set: 6-31G*
  Basis Set:
  Basis Set: 6-31G*
  Basis Set:
  @DF-RHF Final Energy:  -271.17368945183887
    Total Energy =                       -271.1736894518389818
  Basis Set: 6-31G*
  Basis Set:
  Basis Set: 6-31G*
  Basis Set:
  @DF-RHF Final Energy:  -271.17432204384880
    Total Energy =                       -271.1743220438485764
  Basis Set: 6-31G*
  Basis Set:
  Basis Set: 6-31G*
  Basis Set:
  @DF-RHF Final Energy:  -271.17433840993175
    Total Energy =                       -271.1743384099318632
  Basis Set: 6-31G*
  Basis Set:
  @DF-RHF Final Energy:  -271.17447069787289
    Total Energy =                       -271.1744706978729482
  Basis Set: 6-31G*
  Basis Set:
  @DF-RHF Final Energy:  -271.17447280591125
    Total Energy =                       -271.1744728059110798
  Basis Set: 6-31G*
  Basis Set:
  Basis Set: 6-31G*
  Basis Set:
  @DF-RHF Final Energy:  -271.17447914587353
    Total Energy =                       -271.1744791458735335
  Basis Set: 6-31G*
  Basis Set:
  Basis Set: 6-31G*
  Basis Set:
  @DF-RHF Final Energy:  -271.17448109060689
    Total Energy =                       -271.1744810906068324
  Basis Set: 6-31G*
  Basis Set:
  Charge       = 0
  Multiplicity = 1
  Basis Set: 6-31G*
  Basis Set:

    Orbital Energies (a.u.)
    -----------------------

    Doubly Occupied:

       1A    -20.545502     2A    -11.281651     3A    -11.260993
       4A    -11.209531     5A    -11.207889     6A    -11.203290
       7A     -1.368981     8A     -1.072682     9A     -0.946084
      10A     -0.939640    11A     -0.912622    12A     -0.752621
      13A     -0.655322    14A     -0.643789    15A     -0.638278
      16A     -0.590614    17A     -0.572122    18A     -0.552809
      19A     -0.536587    20A     -0.524051    21A     -0.514919
      22A     -0.489574    23A     -0.486932    24A     -0.438549
      25A     -0.402089

  @DF-RHF Final Energy:  -271.17448149130058

   => Energetics <=

    Nuclear Repulsion Energy =            272.2935897561841898
    One-Electron Energy =                -907.4419026054501956
    Two-Electron Energy =                 363.9738313579654232
    DFT Exchange-Correlation Energy =       0.0000000000000000
    Empirical Dispersion Energy =           0.0000000000000000
    PCM Polarization Energy =               0.0000000000000000
    EFP Energy =                            0.0000000000000000
    Total Energy =                       -271.1744814913005257
    Molecular point group: c1
  Basis Set: 6-31G*
  Basis Set:

  -Total Gradient:
     Atom            X                  Y                   Z
    ------   -----------------  -----------------  -----------------
       1       -0.000000561891     0.000006370676    -0.000000758759
       2        0.001190538462     0.000966297171     0.002973028417
       3       -0.001117940798     0.000007922193    -0.002730800201
       4        0.000002453170    -0.000000505965    -0.000000632018
       5       -0.000691442601    -0.000806426916    -0.001693954057
       6        0.000610823014    -0.000162734620     0.001482175914
       7        0.000003461907    -0.000011494396    -0.000016437804
       8       -0.000011788622     0.000013847897    -0.000007119283
       9        0.000004317526    -0.000013078164    -0.000005875234
      10       -0.000008363633     0.000000318197     0.000003097532
      11        0.000006360740    -0.000003522888    -0.000001575894
      12        0.000009092431    -0.000000468601    -0.000001021601
      13        0.000005096511    -0.000001184233     0.000000979841
      14       -0.000007617195     0.000007893220    -0.000006144310
      15       -0.000004256992     0.000002228898     0.000008953944
      16       -0.000004762108     0.000001817920     0.000006228658
      17        0.000002009890    -0.000005694123    -0.000008192628
      18        0.000012580190    -0.000001586268    -0.000001952519

  **** Optimization is complete! (in 9 steps) ****
    Final optimized geometry and variables:
    Molecular point group: c1

    Geometry (in Angstrom), charge = 0, multiplicity = 1:

    H           -1.666592699622     1.835123994452     1.438506265737
    C           -1.586950667604     1.001161848495     0.753157896096
    O           -0.291804514096     1.004789952077     0.232495348711
    H           -2.324895329867     1.130346155040    -0.034321047332
    H           -1.827467502465     0.088914677216     1.287162795220
    C            0.314592372191    -0.216673281311    -0.149750365168
    C            1.613829493701     0.214602678885    -0.826078329523
    C            0.629125417384    -1.072318768879     1.081576776224
    C           -0.563885224738    -0.983396826433    -1.143020907877
    H            2.219856272622     0.790784612059    -0.136107578783
    H            1.398859306443     0.837842153086    -1.686693898834
    H            2.187169419717    -0.646113056249    -1.155209937023
    H            1.215217630700    -0.499681643634     1.792103646524
    H            1.198721716119    -1.951188478476     0.796787861500
    H           -0.268854443648    -1.416945604036     1.582698549253
    H           -0.814591617572    -0.351845755192    -1.988879511588
    H           -0.040832070261    -1.858453817096    -1.514819295679
    H           -1.488084141722    -1.324483825274    -0.688189949814

  Mulliken Charges: (a.u.)
   Center  Symbol    Alpha    Beta     Spin     Total
       1     H     0.41472  0.41472  0.00000  0.17056
       2     C     3.07792  3.07792  0.00000 -0.15584
       3     O     4.32029  4.32029  0.00000 -0.64057
       4     H     0.42644  0.42644  0.00000  0.14713
       5     H     0.43056  0.43056  0.00000  0.13888
       6     C     2.84407  2.84407  0.00000  0.31185
       7     C     3.23306  3.23306  0.00000 -0.46612
       8     C     3.24343  3.24343  0.00000 -0.48686
       9     C     3.24786  3.24786  0.00000 -0.49572
      10     H     0.41371  0.41371  0.00000  0.17258
      11     H     0.41459  0.41459  0.00000  0.17082
      12     H     0.42508  0.42508  0.00000  0.14984
      13     H     0.41331  0.41331  0.00000  0.17338
      14     H     0.42107  0.42107  0.00000  0.15787
      15     H     0.42085  0.42085  0.00000  0.15830
      16     H     0.41362  0.41362  0.00000  0.17275
      17     H     0.41902  0.41902  0.00000  0.16196
      18     H     0.42040  0.42040  0.00000  0.15920

   Total alpha = 25.00000, Total beta = 25.00000, Total charge =  0.00000
