  ==> Input File <==

--------------------------------------------------------------------------
set {
	reference rhf
	basis 6-31G*
}

set_num_threads( 4 )
memory 2 gb

molecule MOL {
0 1

H	 2.199819	 1.761697	 1.323182
N	 1.329454	 1.270294	 1.256080
C	 1.267428	 0.496480	 0.024474
H	 0.604343	 1.962281	 1.272889
C	 -0.016086	 -0.325158	 -0.029487
H	 2.122305	 -0.172900	 0.012212
H	 1.340355	 1.113842	 -0.874373
C	 -1.282277	 0.529072	 0.046735
H	 -0.012495	 -0.908639	 -0.945788
H	 -0.015903	 -1.041248	 0.791956
C	 -2.563920	 -0.301775	 -0.006060
H	 -1.284084	 1.244622	 -0.773004
H	 -1.271387	 1.115393	 0.963286
H	 -2.621848	 -0.873522	 -0.927727
H	 -3.445135	 0.329952	 0.047812
H	 -2.609542	 -1.004582	 0.821105

	symmetry c1
}
set optking {
	frozen_dihedral = ("
		6 3 5 9
	")
}

ee = optimize('scf')
oeprop('DIPOLE', 'QUADRUPOLE', 'MULLIKEN_CHARGES')
f=open( 'psi4out.xyz', 'w' )
f.write( "16  " )
f.write( str(ee) + "\n" )
f.write( MOL.save_string_xyz() )
f.close()
--------------------------------------------------------------------------

    Molecular point group: c1
  Charge       = 0
  Multiplicity = 1
  Basis Set: 6-31G*
  Basis Set:
  @DF-RHF Final Energy:  -212.31530294790323
    Total Energy =                       -212.3153029479033194
    Molecular point group: c1
  Basis Set: 6-31G*
  Basis Set:
  Basis Set: 6-31G*
  Basis Set:
  @DF-RHF Final Energy:  -212.31569125787530
    Total Energy =                       -212.3156912578753577
  Basis Set: 6-31G*
  Basis Set:
  Basis Set: 6-31G*
  Basis Set:
  @DF-RHF Final Energy:  -212.31602821891403
    Total Energy =                       -212.3160282189140275
  Basis Set: 6-31G*
  Basis Set:
  Basis Set: 6-31G*
  Basis Set:
  @DF-RHF Final Energy:  -212.31604445516237
    Total Energy =                       -212.3160444551625687
  Basis Set: 6-31G*
  Basis Set:
  Basis Set: 6-31G*
  Basis Set:
  @DF-RHF Final Energy:  -212.31604956497020
    Total Energy =                       -212.3160495649700579
  Basis Set: 6-31G*
  Basis Set:
  Charge       = 0
  Multiplicity = 1
  Basis Set: 6-31G*
  Basis Set:

    Orbital Energies (a.u.)
    -----------------------

    Doubly Occupied:

       1A    -15.532589     2A    -11.240324     3A    -11.213750
       4A    -11.208907     5A    -11.207212     6A     -1.176868
       7A     -1.056184     8A     -0.960183     9A     -0.850916
      10A     -0.779672    11A     -0.663808    12A     -0.648126
      13A     -0.595065    14A     -0.585134    15A     -0.547838
      16A     -0.524136    17A     -0.514445    18A     -0.470998
      19A     -0.466236    20A     -0.452247    21A     -0.381043

  @DF-RHF Final Energy:  -212.31605027227380

   => Energetics <=

    Nuclear Repulsion Energy =            189.0168084676718081
    One-Electron Energy =                -660.5143579413679618
    Two-Electron Energy =                 259.1814992014222980
    DFT Exchange-Correlation Energy =       0.0000000000000000
    Empirical Dispersion Energy =           0.0000000000000000
    PCM Polarization Energy =               0.0000000000000000
    EFP Energy =                            0.0000000000000000
    Total Energy =                       -212.3160502722738556
    Molecular point group: c1
  Basis Set: 6-31G*
  Basis Set:

  -Total Gradient:
     Atom            X                  Y                   Z
    ------   -----------------  -----------------  -----------------
       1       -0.000003050038     0.000007632562     0.000005874851
       2        0.000005239580     0.000000300997    -0.000008469103
       3       -0.000119323817     0.000205822011    -0.001469850140
       4       -0.000007400303     0.000001047336     0.000000841085
       5        0.000638205760    -0.001013604242     0.000901684233
       6        0.000012187307    -0.000031914921     0.001118690150
       7       -0.000007247212    -0.000009245153     0.000002220120
       8        0.000016279612     0.000001839422    -0.000046030409
       9       -0.000541679336     0.000833122056    -0.000528802433
      10        0.000022405004    -0.000001290653    -0.000000271103
      11       -0.000012162599    -0.000004557610     0.000019682067
      12       -0.000000257313     0.000014224197     0.000002779816
      13       -0.000002870554    -0.000004078541    -0.000000145761
      14        0.000004333258     0.000009046743     0.000000870560
      15       -0.000003668252    -0.000003450073     0.000002378699
      16       -0.000000991096    -0.000004894133    -0.000001452633

  **** Optimization is complete! (in 6 steps) ****
    Final optimized geometry and variables:
    Molecular point group: c1

    Geometry (in Angstrom), charge = 0, multiplicity = 1:

    H            2.539175724713     1.327019626364     1.047581625845
    N            1.619215095860     0.938041168738     0.973044645959
    C            1.497473847508     0.148474961118    -0.246030216751
    H            0.982383980386     1.710677550467     0.965686248663
    C            0.210766973734    -0.673583780686    -0.260690971879
    H            2.342360335716    -0.531938866839    -0.270331216310
    H            1.550562908623     0.753942974825    -1.154173135052
    C           -1.070619988943     0.161963886502    -0.202114041972
    H            0.196869534158    -1.267351635985    -1.173153734210
    H            0.229661031449    -1.365636150509     0.576446018931
    C           -2.334313526738    -0.690420436095    -0.316192871808
    H           -1.060428925362     0.899011100072    -1.004003474003
    H           -1.102917646381     0.716046390954     0.731801070286
    H           -2.358935059498    -1.231771925558    -1.257767894372
    H           -3.229090416009    -0.077825701719    -0.263034795093
    H           -2.385353927878    -1.421023568962     0.485960158994

  Mulliken Charges: (a.u.)
   Center  Symbol    Alpha    Beta     Spin     Total
       1     H     0.33202  0.33202  0.00000  0.33596
       2     N     3.92277  3.92277  0.00000 -0.84554
       3     C     3.06640  3.06640  0.00000 -0.13279
       4     H     0.33266  0.33266  0.00000  0.33468
       5     C     3.14575  3.14575  0.00000 -0.29149
       6     H     0.41918  0.41918  0.00000  0.16164
       7     H     0.43422  0.43422  0.00000  0.13155
       8     C     3.15934  3.15934  0.00000 -0.31868
       9     H     0.42596  0.42596  0.00000  0.14807
      10     H     0.41592  0.41592  0.00000  0.16817
      11     C     3.23847  3.23847  0.00000 -0.47693
      12     H     0.42624  0.42624  0.00000  0.14752
      13     H     0.41872  0.41872  0.00000  0.16257
      14     H     0.42234  0.42234  0.00000  0.15532
      15     H     0.41994  0.41994  0.00000  0.16012
      16     H     0.42008  0.42008  0.00000  0.15983

   Total alpha = 21.00000, Total beta = 21.00000, Total charge =  0.00000
