  ==> Input File <==

--------------------------------------------------------------------------
set {
	reference rhf
	basis cc-pvtz
}

set_num_threads( 4 )
memory 2 gb

molecule MOL {
0 1

O	 0.395927	 1.296676	 -0.000076
C	 0.503051	 0.114301	 -0.000074
C	 -0.701422	 -0.805636	 -0.000109
C	 1.858118	 -0.556123	 0.000212
C	 -0.352857	 -2.283363	 -0.083225
H	 -1.276388	 -0.592722	 0.897397
H	 -1.339240	 -0.510415	 -0.829249
H	 0.262257	 -2.584505	 0.754137
H	 -1.254965	 -2.883396	 -0.078983
H	 0.198845	 -2.501486	 -0.987812
H	 1.961106	 -1.191101	 -0.872843
H	 2.636688	 0.191085	 -0.000109
H	 1.961070	 -1.190284	 0.873873

	symmetry c1
}
set optking {
	frozen_dihedral = ("
		6 3 2 1
	")
}

ee = optimize('scf')
oeprop('DIPOLE', 'QUADRUPOLE', 'MULLIKEN_CHARGES')
f=open( 'psi4out.xyz', 'w' )
f.write( "13  " )
f.write( str(ee) + "\n" )
f.write( MOL.save_string_xyz() )
f.close()
--------------------------------------------------------------------------

    Molecular point group: c1
  Charge       = 0
  Multiplicity = 1
  Basis Set: CC-PVTZ
  Basis Set:
  @DF-RHF Final Energy:  -231.07636398625741
    Total Energy =                       -231.0763639862574905
    Molecular point group: c1
  Basis Set: CC-PVTZ
  Basis Set:
  Basis Set: CC-PVTZ
  Basis Set:
  @DF-RHF Final Energy:  -231.07800445572346
    Total Energy =                       -231.0780044557235442
  Basis Set: CC-PVTZ
  Basis Set:
  Basis Set: CC-PVTZ
  Basis Set:
  @DF-RHF Final Energy:  -231.07892344229870
    Total Energy =                       -231.0789234422989580
  Basis Set: CC-PVTZ
  Basis Set:
  Basis Set: CC-PVTZ
  Basis Set:
  @DF-RHF Final Energy:  -231.07894187094763
    Total Energy =                       -231.0789418709477729
  Basis Set: CC-PVTZ
  Basis Set:
  Basis Set: CC-PVTZ
  Basis Set:
  @DF-RHF Final Energy:  -231.07898481907117
    Total Energy =                       -231.0789848190712803
  Basis Set: CC-PVTZ
  Basis Set:
  Basis Set: CC-PVTZ
  Basis Set:
  @DF-RHF Final Energy:  -231.07900250036158
    Total Energy =                       -231.0790025003614687
  Basis Set: CC-PVTZ
  Basis Set:
  Charge       = 0
  Multiplicity = 1
  Basis Set: CC-PVTZ
  Basis Set:

    Orbital Energies (a.u.)
    -----------------------

    Doubly Occupied:

       1A    -20.535469     2A    -11.321917     3A    -11.232963
       4A    -11.227553     5A    -11.226349     6A     -1.397322
       7A     -1.067253     8A     -0.995225     9A     -0.891742
      10A     -0.732469    11A     -0.654705    12A     -0.644115
      13A     -0.629366    14A     -0.583911    15A     -0.557325
      16A     -0.546496    17A     -0.532637    18A     -0.515484
      19A     -0.475322    20A     -0.401660

  @DF-RHF Final Energy:  -231.07900370524615

   => Energetics <=

    Nuclear Repulsion Energy =            176.9996535029701192
    One-Electron Energy =                -663.8187496463168600
    Two-Electron Energy =                 255.7400924381005325
    DFT Exchange-Correlation Energy =       0.0000000000000000
    Empirical Dispersion Energy =           0.0000000000000000
    PCM Polarization Energy =               0.0000000000000000
    EFP Energy =                            0.0000000000000000
    Total Energy =                       -231.0790037052462367
    Molecular point group: c1
  Basis Set: CC-PVTZ
  Basis Set:

  -Total Gradient:
     Atom            X                  Y                   Z
    ------   -----------------  -----------------  -----------------
       1        0.000037129097    -0.000006309528     0.000466937819
       2       -0.000065707583     0.000053737580    -0.000712728880
       3        0.000262066446    -0.000344853795     0.000466250323
       4        0.000002922593     0.000016502580     0.000073266604
       5       -0.000013964504    -0.000032202651    -0.000009213507
       6       -0.000225202233     0.000300597579    -0.000242610611
       7        0.000013779326    -0.000013741413     0.000007894249
       8        0.000000320645     0.000007221312     0.000004269775
       9       -0.000008266657    -0.000004007964    -0.000001830812
      10        0.000002786602     0.000001235027     0.000004194265
      11       -0.000008994198     0.000000872751    -0.000022933648
      12        0.000006993201     0.000009921140    -0.000006588714
      13       -0.000003862735     0.000011027384    -0.000026906863

  **** Optimization is complete! (in 7 steps) ****
    Final optimized geometry and variables:
    Molecular point group: c1

    Geometry (in Angstrom), charge = 0, multiplicity = 1:

    O            0.013901819271     1.737553937430     0.008495843986
    C            0.183524605332     0.561805709243     0.013096524129
    C           -1.025910626662    -0.365065089703     0.019551263852
    C            1.576721238861    -0.020700726757     0.029608659332
    C           -0.780631949217    -1.867229972443    -0.069432592945
    H           -1.574586953214    -0.125308916342     0.924151533256
    H           -1.655139455966    -0.036388603100    -0.799467708506
    H           -0.191131051180    -2.233736517904     0.762165746315
    H           -1.726460828471    -2.394267404904    -0.054098636369
    H           -0.271644867216    -2.140420571203    -0.986070354802
    H            1.735202084248    -0.653958409938    -0.835590460286
    H            2.296797518024     0.782592284921     0.029964205994
    H            1.717578846446    -0.638043210290     0.909555601700

  Mulliken Charges: (a.u.)
   Center  Symbol    Alpha    Beta     Spin     Total
       1     O     4.17686  4.17686  0.00000 -0.35372
       2     C     2.85960  2.85960  0.00000  0.28079
       3     C     3.09631  3.09631  0.00000 -0.19262
       4     C     3.15879  3.15879  0.00000 -0.31758
       5     C     3.15699  3.15699  0.00000 -0.31398
       6     H     0.43929  0.43929  0.00000  0.12142
       7     H     0.43812  0.43812  0.00000  0.12376
       8     H     0.45208  0.45208  0.00000  0.09583
       9     H     0.44111  0.44111  0.00000  0.11777
      10     H     0.45123  0.45123  0.00000  0.09753
      11     H     0.44908  0.44908  0.00000  0.10184
      12     H     0.43191  0.43191  0.00000  0.13619
      13     H     0.44862  0.44862  0.00000  0.10277

   Total alpha = 20.00000, Total beta = 20.00000, Total charge = -0.00000
