                              Psi4 1.0.54 Driver

  ==> Input File <==

--------------------------------------------------------------------------
set {
	reference rhf
	basis cc-pvtz
}

set_num_threads( 4 )
memory 2 gb

molecule MOL {
0 1

H	 3.088370	 -0.804314	 -1.326152
C	 2.373543	 -1.003230	 -0.538284
C	 1.322304	 0.099773	 -0.484271
H	 1.921949	 -1.968790	 -0.736090
H	 2.919901	 -1.073166	 0.395495
C	 0.308557	 -0.162619	 0.622645
H	 0.799961	 0.163794	 -1.430734
H	 1.795623	 1.057606	 -0.306896
N	 -1.069352	 -0.004081	 0.085342
H	 0.371632	 -1.172932	 0.991288
H	 0.400391	 0.548875	 1.426218
O	 -1.584901	 -0.965470	 -0.377818
O	 -1.548033	 1.079343	 0.130056

	symmetry c1
}
set optking {
	frozen_dihedral = ("
		7 3 6 9
	")
}

ee,wfn = optimize('scf', return_wfn=True)
oeprop( wfn, 'DIPOLE', 'QUADRUPOLE', 'MULLIKEN_CHARGES')
f=open( 'psi4out.xyz', 'w' )
f.write( "13  " )
f.write( str(ee) + "\n" )
f.write( MOL.save_string_xyz() )
f.close()
--------------------------------------------------------------------------

    Molecular point group: c1
  Charge       = 0
  Multiplicity = 1
  Basis Set: CC-PVTZ
  Basis Set:
  @DF-RHF Final Energy:  -321.85611806190366
    Total Energy =                       -321.8561180619036577
    Molecular point group: c1
  Basis Set: CC-PVTZ
  Basis Set:
  Basis Set: CC-PVTZ
  Basis Set:
  @DF-RHF Final Energy:  -321.85365901440059
    Total Energy =                       -321.8536590144004776
  Basis Set: CC-PVTZ
  Basis Set:
  Basis Set: CC-PVTZ
  Basis Set:
  @DF-RHF Final Energy:  -321.84664818376609
    Total Energy =                       -321.8466481837662059
  Basis Set: CC-PVTZ
  Basis Set:
  Basis Set: CC-PVTZ
  Basis Set:
  @DF-RHF Final Energy:  -321.85589703013790
    Total Energy =                       -321.8558970301378395
  Basis Set: CC-PVTZ
  Basis Set:
  Basis Set: CC-PVTZ
  Basis Set:
  @DF-RHF Final Energy:  -321.85536906864803
    Total Energy =                       -321.8553690686476898
  Basis Set: CC-PVTZ
  Basis Set:
  Basis Set: CC-PVTZ
  Basis Set:
  @DF-RHF Final Energy:  -321.85656250050084
    Total Energy =                       -321.8565625005008428
  Basis Set: CC-PVTZ
  Basis Set:
  Basis Set: CC-PVTZ
  Basis Set:
  @DF-RHF Final Energy:  -321.85656688608594
    Total Energy =                       -321.8565668860858295
  Basis Set: CC-PVTZ
  Basis Set:
  Charge       = 0
  Multiplicity = 1
  Basis Set: CC-PVTZ
  Basis Set:

    Orbital Energies (a.u.)
    -----------------------

    Doubly Occupied:

       1A    -20.590706     2A    -20.589962     3A    -15.836886
       4A    -11.297286     5A    -11.255285     6A    -11.234834
       7A     -1.636046     8A     -1.420269     9A     -1.131662
      10A     -1.027362    11A     -0.884662    12A     -0.834619
      13A     -0.762536    14A     -0.737956    15A     -0.727552
      16A     -0.661854    17A     -0.612711    18A     -0.592483
      19A     -0.541786    20A     -0.521084    21A     -0.513914
      22A     -0.484684    23A     -0.474685    24A     -0.453947

  @DF-RHF Final Energy:  -321.85656785267850

   => Energetics <=

    Nuclear Repulsion Energy =            248.6033924663981622
    One-Electron Energy =                -931.2703776277904808
    Two-Electron Energy =                 360.8104173087136815
    DFT Exchange-Correlation Energy =       0.0000000000000000
    Empirical Dispersion Energy =           0.0000000000000000
    PCM Polarization Energy =               0.0000000000000000
    EFP Energy =                            0.0000000000000000
    Total Energy =                       -321.8565678526786087
    Molecular point group: c1
  Basis Set: CC-PVTZ
  Basis Set:

  -Total Gradient:
     Atom            X                  Y                   Z
    ------   -----------------  -----------------  -----------------
       1       -0.000002055511     0.000004159486    -0.000012863009
       2       -0.000027514081    -0.000001627873     0.000015226210
       3       -0.000367235413    -0.003692929985    -0.000254548538
       4       -0.000003183282    -0.000012785227     0.000014307466
       5        0.000014930676    -0.000006215528     0.000009194621
       6        0.000575429516     0.002992455536     0.000427385773
       7        0.000199811624     0.002580893396     0.000168870555
       8       -0.000045276839    -0.000032820630    -0.000012359613
       9       -0.000480752685    -0.001899629942    -0.000308378639
      10        0.000001222640     0.000052799548    -0.000046248419
      11        0.000014951744    -0.000007286630     0.000007023770
      12        0.000052395220     0.000078198842     0.000015523609
      13        0.000067276389    -0.000055210994    -0.000023133786

  **** Optimization is complete! (in 8 steps) ****
    Final optimized geometry and variables:
    Molecular point group: c1

    Geometry (in Angstrom), charge = 0, multiplicity = 1:

    H            2.999358918074    -1.250986719675    -1.221764141977
    C            2.267197737161    -1.289639066780    -0.425179017296
    C            1.400436111663    -0.036560564863    -0.434909990750
    H            1.664831151488    -2.179436422945    -0.564348784158
    H            2.803274458251    -1.389600323164     0.512444014235
    C            0.375583318064    -0.022810766492     0.713401729473
    H            0.881195409807     0.053715554104    -1.380112856852
    H            2.023228526163     0.844703797317    -0.353617097844
    N           -0.965003162002     0.349353793420     0.190629628181
    H            0.249880541319    -1.000432391883     1.146582577534
    H            0.614574277767     0.701033061782     1.472644241236
    O           -1.651413188011    -0.528724588920    -0.213362380757
    O           -1.245123895283     1.500916754753     0.180980592306

  Mulliken Charges: (a.u.)
   Center  Symbol    Alpha    Beta     Spin     Total
       1     H     0.44408  0.44408  0.00000  0.11185
       2     C     3.14975  3.14975  0.00000 -0.29950
       3     C     3.08952  3.08952  0.00000 -0.17904
       4     H     0.44743  0.44743  0.00000  0.10513
       5     H     0.45262  0.45262  0.00000  0.09476
       6     C     3.04009  3.04009  0.00000 -0.08018
       7     H     0.43974  0.43974  0.00000  0.12052
       8     H     0.44286  0.44286  0.00000  0.11429
       9     N     3.27930  3.27930  0.00000  0.44141
      10     H     0.43655  0.43655  0.00000  0.12690
      11     H     0.43216  0.43216  0.00000  0.13569
      12     O     4.17389  4.17389  0.00000 -0.34778
      13     O     4.17202  4.17202  0.00000 -0.34404

   Total alpha = 24.00000, Total beta = 24.00000, Total charge =  0.00000

*** Psi4 exiting successfully. Buy a developer a beer!
