  ==> Input File <==

--------------------------------------------------------------------------
set {
	reference rhf
	basis 6-31G*
}

set_num_threads( 1 )
memory 2 gb

molecule MOL {
0 1

H	 -3.327225	 -2.569525	 0.796214
O	 -2.972866	 -1.885292	 0.246524
C	 -1.715077	 -1.492721	 0.732780
C	 -1.177863	 -0.397191	 -0.171080
H	 -1.796975	 -1.126012	 1.755093
H	 -1.027730	 -2.337576	 0.743553
C	 0.198102	 0.111031	 0.262842
H	 -1.893443	 0.420489	 -0.179637
H	 -1.132435	 -0.782808	 -1.185827
C	 1.331804	 -0.827780	 -0.158768
H	 0.361943	 1.100838	 -0.156218
H	 0.217265	 0.229072	 1.345532
C	 2.723619	 -0.410569	 0.329459
H	 1.342964	 -0.912588	 -1.244120
H	 1.116806	 -1.824343	 0.220779
C	 3.243875	 0.895854	 -0.272975
H	 3.424222	 -1.207124	 0.091250
H	 2.714788	 -0.329854	 1.414619
H	 3.251977	 0.848779	 -1.358681
H	 2.637085	 1.747371	 0.016682
H	 4.259473	 1.094070	 0.055697

	symmetry c1
}
set optking {
	frozen_dihedral = ("
		2 3 4 8,
		4 7 10 14,
		16 13 10 14,
		1 2 3 5
	")
}

ee = energy('scf')
oeprop('DIPOLE', 'QUADRUPOLE', 'MULLIKEN_CHARGES')
f=open( 'psi4out.xyz', 'w' )
f.write( "21  " )
f.write( str(ee) + "\n" )
f.write( MOL.save_string_xyz() )
f.close()
--------------------------------------------------------------------------

    Molecular point group: c1

    Geometry (in Angstrom), charge = 0, multiplicity = 1:

       Center              X                  Y                   Z               Mass
    ------------   -----------------  -----------------  -----------------  -----------------
           H         -3.502838389316    -1.969110387485     0.649861176251     1.007825032070
           O         -3.148479389316    -1.284877387485     0.100171176251    15.994914619560
           C         -1.890690389316    -0.892306387485     0.586427176251    12.000000000000
           C         -1.353476389316     0.203223612515    -0.317432823749    12.000000000000
           H         -1.972588389316    -0.525597387485     1.608740176251     1.007825032070
           H         -1.203343389316    -1.737161387485     0.597200176251     1.007825032070
           C          0.022488610684     0.711445612515     0.116489176251    12.000000000000
           H         -2.069056389316     1.020903612515    -0.325989823749     1.007825032070
           H         -1.308048389316    -0.182393387485    -1.332179823749     1.007825032070
           C          1.156190610684    -0.227365387485    -0.305120823749    12.000000000000
           H          0.186329610684     1.701252612515    -0.302570823749     1.007825032070
           H          0.041651610684     0.829486612515     1.199179176251     1.007825032070
           C          2.548005610684     0.189845612515     0.183106176251    12.000000000000
           H          1.167350610684    -0.312173387485    -1.390472823749     1.007825032070
           H          0.941192610684    -1.223928387485     0.074426176251     1.007825032070
           C          3.068261610684     1.496268612515    -0.419327823749    12.000000000000
           H          3.248608610684    -0.606709387485    -0.055102823749     1.007825032070
           H          2.539174610684     0.270560612515     1.268266176251     1.007825032070
           H          3.076363610684     1.449193612515    -1.505033823749     1.007825032070
           H          2.461471610684     2.347785612515    -0.129670823749     1.007825032070
           H          4.083859610684     1.694484612515    -0.090655823749     1.007825032070

  Charge       = 0
  Multiplicity = 1
  Basis Set: 6-31G*
  Basis Set:

    Orbital Energies (a.u.)
    -----------------------

    Doubly Occupied:

       1A    -20.551761     2A    -11.266714     3A    -11.215833
       4A    -11.215354     5A    -11.214080     6A    -11.210286
       7A    -11.208425     8A     -1.358548     9A     -1.087775
      10A     -1.032761    11A     -0.951457    12A     -0.881262
      13A     -0.810019    14A     -0.775045    15A     -0.694903
      16A     -0.648541    17A     -0.632969    18A     -0.609226
      19A     -0.585331    20A     -0.566153    21A     -0.540549
      22A     -0.519747    23A     -0.513433    24A     -0.492386
      25A     -0.477230    26A     -0.461099    27A     -0.452291
      28A     -0.446659    29A     -0.429390

  @DF-RHF Final Energy:  -310.21033783807366

   => Energetics <=

    Nuclear Repulsion Energy =            315.9506711333565363
    One-Electron Energy =               -1046.6238984071060258
    Two-Electron Energy =                 420.4628894356766295
    DFT Exchange-Correlation Energy =       0.0000000000000000
    Empirical Dispersion Energy =           0.0000000000000000
    PCM Polarization Energy =               0.0000000000000000
    EFP Energy =                            0.0000000000000000
    Total Energy =                       -310.2103378380728600

  Mulliken Charges: (a.u.)
   Center  Symbol    Alpha    Beta     Spin     Total
       1     H     0.28128  0.28128  0.00000  0.43744
       2     O     4.37179  4.37179  0.00000 -0.74357
       3     C     2.99111  2.99111  0.00000  0.01779
       4     C     3.16107  3.16107  0.00000 -0.32215
       5     H     0.43270  0.43270  0.00000  0.13459
       6     H     0.43185  0.43185  0.00000  0.13631
       7     C     3.16465  3.16465  0.00000 -0.32929
       8     H     0.41262  0.41262  0.00000  0.17477
       9     H     0.41432  0.41432  0.00000  0.17137
      10     C     3.15418  3.15418  0.00000 -0.30836
      11     H     0.41602  0.41602  0.00000  0.16796
      12     H     0.42449  0.42449  0.00000  0.15102
      13     C     3.15186  3.15186  0.00000 -0.30373
      14     H     0.42216  0.42216  0.00000  0.15568
      15     H     0.42267  0.42267  0.00000  0.15467
      16     C     3.24133  3.24133  0.00000 -0.48267
      17     H     0.42104  0.42104  0.00000  0.15793
      18     H     0.42394  0.42394  0.00000  0.15213
      19     H     0.42181  0.42181  0.00000  0.15638
      20     H     0.41997  0.41997  0.00000  0.16005
      21     H     0.41915  0.41915  0.00000  0.16169

   Total alpha = 29.00000, Total beta = 29.00000, Total charge =  0.00000
