  ==> Input File <==

--------------------------------------------------------------------------
set {
	reference rhf
	basis cc-pvtz
}

set_num_threads( 4 )
memory 2 gb

molecule MOL {
0 1

H	 -2.816458	 -0.841657	 -0.064679
N	 -1.878861	 -0.711874	 0.250184
C	 -1.341419	 0.551458	 -0.220231
H	 -1.333674	 -1.468530	 -0.105118
C	 0.082190	 0.731516	 0.254705
H	 -1.357065	 0.652078	 -1.304747
H	 -1.939897	 1.357530	 0.189797
O	 0.899627	 0.966022	 -0.851871
H	 0.137832	 1.571626	 0.945568
H	 0.408363	 -0.163571	 0.779450
C	 2.251649	 1.081297	 -0.555279
H	 2.780498	 1.262893	 -1.479794
H	 2.440601	 1.910214	 0.123609
H	 2.638726	 0.171302	 -0.102902

	symmetry c1
}
set optking {
	frozen_dihedral = ("
		8 5 3 6
	")
}

ee = optimize('scf')
oeprop('DIPOLE', 'QUADRUPOLE', 'MULLIKEN_CHARGES')
f=open( 'psi4out.xyz', 'w' )
f.write( "14  " )
f.write( str(ee) + "\n" )
f.write( MOL.save_string_xyz() )
f.close()
--------------------------------------------------------------------------

    Molecular point group: c1
  Charge       = 0
  Multiplicity = 1
  Basis Set: CC-PVTZ
  Basis Set:
  @DF-RHF Final Energy:  -248.21841448870441
    Total Energy =                       -248.2184144887042976
    Molecular point group: c1
  Basis Set: CC-PVTZ
  Basis Set:
  Basis Set: CC-PVTZ
  Basis Set:
  @DF-RHF Final Energy:  -248.21905226778566
    Total Energy =                       -248.2190522677856279
  Basis Set: CC-PVTZ
  Basis Set:
  Basis Set: CC-PVTZ
  Basis Set:
  @DF-RHF Final Energy:  -248.21922148296966
    Total Energy =                       -248.2192214829698287
  Basis Set: CC-PVTZ
  Basis Set:
  Basis Set: CC-PVTZ
  Basis Set:
  @DF-RHF Final Energy:  -248.21923362208230
    Total Energy =                       -248.2192336220823563
  Basis Set: CC-PVTZ
  Basis Set:
  Charge       = 0
  Multiplicity = 1
  Basis Set: CC-PVTZ
  Basis Set:

    Orbital Energies (a.u.)
    -----------------------

    Doubly Occupied:

       1A    -20.548805     2A    -15.530515     3A    -11.263083
       4A    -11.262243     5A    -11.240060     6A     -1.382413
       7A     -1.179853     8A     -0.997723     9A     -0.901524
      10A     -0.823790    11A     -0.686671    12A     -0.666498
      13A     -0.653696    14A     -0.619675    15A     -0.591319
      16A     -0.560638    17A     -0.518685    18A     -0.498862
      19A     -0.471924    20A     -0.418200    21A     -0.386566

  @DF-RHF Final Energy:  -248.21923432462356

   => Energetics <=

    Nuclear Repulsion Energy =            191.2663725001903288
    One-Electron Energy =                -716.5657237297059510
    Two-Electron Energy =                 277.0801169048922930
    DFT Exchange-Correlation Energy =       0.0000000000000000
    Empirical Dispersion Energy =           0.0000000000000000
    PCM Polarization Energy =               0.0000000000000000
    EFP Energy =                            0.0000000000000000
    Total Energy =                       -248.2192343246233577
    Molecular point group: c1
  Basis Set: CC-PVTZ
  Basis Set:

  -Total Gradient:
     Atom            X                  Y                   Z
    ------   -----------------  -----------------  -----------------
       1       -0.000036966640    -0.000005971656    -0.000017697291
       2        0.000034928378    -0.000012998183     0.000031620857
       3        0.000126895370    -0.000848878179    -0.000095675173
       4        0.000002702936    -0.000042699509    -0.000019620593
       5       -0.000098508127     0.000784641666     0.000037165852
       6       -0.000096288442     0.000613537098     0.000079859569
       7        0.000008274496     0.000018657756    -0.000000497027
       8        0.000069913052    -0.000509209640    -0.000026888982
       9       -0.000004676359     0.000007775843    -0.000015858365
      10        0.000010039307    -0.000011835069     0.000000948108
      11        0.000000187206     0.000023205540     0.000044276265
      12       -0.000030162434    -0.000012430137    -0.000005835555
      13        0.000013685481     0.000006309870    -0.000001539652
      14       -0.000000024227    -0.000010105399    -0.000010258013

  **** Optimization is complete! (in 5 steps) ****
    Final optimized geometry and variables:
    Molecular point group: c1

    Geometry (in Angstrom), charge = 0, multiplicity = 1:

    H           -2.896259353719    -1.278059525797     0.271145390476
    N           -1.923454904770    -1.221602472608     0.486325597706
    C           -1.360732233671     0.033260708551     0.010560072524
    H           -1.479248017495    -1.998918481051     0.042956624361
    C            0.086642365522     0.204151731815     0.478288286293
    H           -1.366788099370     0.132472301644    -1.070826569370
    H           -1.971337263320     0.835263036297     0.405696387724
    O            0.908774224367     0.428193060312    -0.627733458132
    H            0.173998023890     1.034562040824     1.175426473582
    H            0.403854456587    -0.692552393992     1.004707604958
    C            2.247986497412     0.614637244421    -0.313029448381
    H            2.786792588411     0.772865879737    -1.236098972620
    H            2.390556896234     1.481948033135     0.328236034238
    H            2.664660198821    -0.255152473670     0.190718697255

  Mulliken Charges: (a.u.)
   Center  Symbol    Alpha    Beta     Spin     Total
       1     H     0.42866  0.42866  0.00000  0.14267
       2     N     3.69242  3.69242  0.00000 -0.38484
       3     C     3.03367  3.03367  0.00000 -0.06733
       4     H     0.42796  0.42796  0.00000  0.14408
       5     C     2.96728  2.96728  0.00000  0.06543
       6     H     0.45733  0.45733  0.00000  0.08535
       7     H     0.45669  0.45669  0.00000  0.08662
       8     O     4.17327  4.17327  0.00000 -0.34653
       9     H     0.47326  0.47326  0.00000  0.05348
      10     H     0.46934  0.46934  0.00000  0.06132
      11     C     3.02852  3.02852  0.00000 -0.05705
      12     H     0.44734  0.44734  0.00000  0.10531
      13     H     0.47179  0.47179  0.00000  0.05642
      14     H     0.47247  0.47247  0.00000  0.05506

   Total alpha = 21.00000, Total beta = 21.00000, Total charge = -0.00000
