                              Psi4 1.0.54 Driver

  ==> Input File <==

--------------------------------------------------------------------------
set {
	reference rhf
	basis cc-pvtz
}

set_num_threads( 4 )
memory 2 gb

molecule MOL {
0 1

O	 3.219313	 0.959291	 -0.614106
C	 2.698710	 0.058177	 -0.050237
C	 1.246364	 -0.005813	 0.348416
O	 3.344101	 -1.038700	 0.312317
C	 0.453207	 1.232821	 -0.049003
H	 0.839270	 -0.907818	 -0.092281
H	 1.216683	 -0.160521	 1.422434
C	 -0.998367	 1.217982	 0.432195
H	 0.481498	 1.345443	 -1.127236
H	 0.951413	 2.105557	 0.354893
C	 -1.882951	 0.151251	 -0.211235
H	 -1.429490	 2.193659	 0.228843
H	 -1.019755	 1.099323	 1.513279
C	 -3.342450	 0.243269	 0.226009
H	 -1.826223	 0.246578	 -1.293162
H	 -1.508033	 -0.839650	 0.027695
C	 -4.313460	 0.439314	 -0.934801
H	 -3.455266	 1.064910	 0.929228
H	 -3.612276	 -0.659600	 0.769045
C	 -5.769207	 0.532126	 -0.489870
H	 -4.045236	 1.341223	 -1.478249
H	 -4.203937	 -0.382565	 -1.637209
H	 -6.431141	 0.670677	 -1.337000
H	 -5.919102	 1.366935	 0.186691
H	 -6.078676	 -0.370059	 0.027333
C	 4.720529	 -1.114346	 0.001449
H	 4.874321	 -1.055557	 -1.065852
H	 5.057824	 -2.067950	 0.373977
H	 5.264321	 -0.313596	 0.480350

	symmetry c1
}
set optking {
	frozen_dihedral = ("
		17 14 11 15
	")
}

ee,wfn = optimize('scf', return_wfn=True)
oeprop( wfn, 'DIPOLE', 'QUADRUPOLE', 'MULLIKEN_CHARGES')
f=open( 'psi4out.xyz', 'w' )
f.write( "29  " )
f.write( str(ee) + "\n" )
f.write( MOL.save_string_xyz() )
f.close()
--------------------------------------------------------------------------

    Molecular point group: c1
  Charge       = 0
  Multiplicity = 1
  Basis Set: CC-PVTZ
  Basis Set:
  @DF-RHF Final Energy:  -501.21932615445587
    Total Energy =                       -501.2193261544557572
    Molecular point group: c1
  Basis Set: CC-PVTZ
  Basis Set:
  Basis Set: CC-PVTZ
  Basis Set:
  @DF-RHF Final Energy:  -501.21955037976250
    Total Energy =                       -501.2195503797629499
  Basis Set: CC-PVTZ
  Basis Set:
  Basis Set: CC-PVTZ
  Basis Set:
  @DF-RHF Final Energy:  -501.21959621841688
    Total Energy =                       -501.2195962184166547
  Basis Set: CC-PVTZ
  Basis Set:
  Basis Set: CC-PVTZ
  Basis Set:
  @DF-RHF Final Energy:  -501.21943964737477
    Total Energy =                       -501.2194396473739744
  Basis Set: CC-PVTZ
  Basis Set:
  Basis Set: CC-PVTZ
  Basis Set:
  @DF-RHF Final Energy:  -501.21961060305114
    Total Energy =                       -501.2196106030512510
  Basis Set: CC-PVTZ
  Basis Set:
  Basis Set: CC-PVTZ
  Basis Set:
  @DF-RHF Final Energy:  -501.21960873538103
    Total Energy =                       -501.2196087353813709
  Basis Set: CC-PVTZ
  Basis Set:
  Basis Set: CC-PVTZ
  Basis Set:
  @DF-RHF Final Energy:  -501.21961119715297
    Total Energy =                       -501.2196111971529717
  Basis Set: CC-PVTZ
  Basis Set:
  Charge       = 0
  Multiplicity = 1
  Basis Set: CC-PVTZ
  Basis Set:

    Orbital Energies (a.u.)
    -----------------------

    Doubly Occupied:

       1A    -20.595999     2A    -20.533849     3A    -11.364268
       4A    -11.278254     5A    -11.232992     6A    -11.216939
       7A    -11.216040     8A    -11.214152     9A    -11.213402
      10A    -11.211995    11A    -11.206729    12A     -1.471896
      13A     -1.365484    14A     -1.098242    15A     -1.067038
      16A     -1.020065    17A     -0.977288    18A     -0.928740
      19A     -0.862930    20A     -0.803078    21A     -0.789371
      22A     -0.765873    23A     -0.703274    24A     -0.685420
      25A     -0.675819    26A     -0.643117    27A     -0.627596
      28A     -0.610951    29A     -0.598474    30A     -0.580583
      31A     -0.563386    32A     -0.556076    33A     -0.534089
      34A     -0.530547    35A     -0.521749    36A     -0.507050
      37A     -0.497895    38A     -0.477116    39A     -0.473965
      40A     -0.462940    41A     -0.459221    42A     -0.449642
      43A     -0.444381    44A     -0.438010

  @DF-RHF Final Energy:  -501.21961122689834

   => Energetics <=

    Nuclear Repulsion Energy =            610.9773118617939645
    One-Electron Energy =               -1893.4420010220310360
    Two-Electron Energy =                 781.2450779333381661
    DFT Exchange-Correlation Energy =       0.0000000000000000
    Empirical Dispersion Energy =           0.0000000000000000
    PCM Polarization Energy =               0.0000000000000000
    EFP Energy =                            0.0000000000000000
    Total Energy =                       -501.2196112268987918
    Molecular point group: c1
  Basis Set: CC-PVTZ
  Basis Set:

  -Total Gradient:
     Atom            X                  Y                   Z
    ------   -----------------  -----------------  -----------------
       1       -0.000002321211    -0.000000305915     0.000002120538
       2        0.000004954185     0.000004964409    -0.000004531090
       3       -0.000000628316    -0.000000629487    -0.000001330892
       4       -0.000002686926    -0.000002926349     0.000002513430
       5        0.000001017979    -0.000001405130     0.000004628513
       6       -0.000002842512     0.000000679652     0.000000931297
       7       -0.000000275223    -0.000000042240    -0.000000324830
       8       -0.000006599598     0.000000448703    -0.000004852054
       9       -0.000002636398    -0.000000343762     0.000004897181
      10        0.000005244657    -0.000001269087    -0.000000437922
      11        0.000074553599     0.000779336532     0.000070903140
      12        0.000004543244    -0.000004249462    -0.000004351683
      13       -0.000005237515     0.000002215902    -0.000001246310
      14       -0.000059524266    -0.000646055921    -0.000053138188
      15       -0.000051297732    -0.000508398308    -0.000053636234
      16       -0.000002473245     0.000001478619     0.000005545103
      17        0.000038102157     0.000379852051     0.000040678829
      18        0.000002994675     0.000000844939    -0.000003998964
      19        0.000005046145     0.000000797415    -0.000007423224
      20       -0.000002075056    -0.000004534515    -0.000000765677
      21        0.000002001894    -0.000001190811     0.000004983479
      22        0.000003140682     0.000001817533     0.000000616733
      23       -0.000004573450    -0.000001142380     0.000000748244
      24        0.000001480153    -0.000001692106    -0.000002341756
      25       -0.000000568798     0.000001459573     0.000000417918
      26        0.000000068516    -0.000000120539    -0.000000588843
      27        0.000000842641     0.000000898914     0.000001002878
      28       -0.000000109281    -0.000000214847     0.000000302507
      29       -0.000000140998    -0.000000273378    -0.000001322123

  **** Optimization is complete! (in 8 steps) ****
    Final optimized geometry and variables:
    Molecular point group: c1

    Geometry (in Angstrom), charge = 0, multiplicity = 1:

    O            3.242480107670     0.724971665245    -0.516284555703
    C            2.720115918547    -0.174098203924     0.049217701345
    C            1.266440852808    -0.236934932485     0.443348019324
    O            3.364482532427    -1.269650492089     0.417561847185
    C            0.474715178610     1.000789545786     0.039874189487
    H            0.860969027750    -1.140257855570     0.003913603276
    H            1.233232898128    -0.388601491030     1.517682419797
    C           -0.977484286823     0.989091785088     0.517951000993
    H            0.505348315295     1.109764665236    -1.038729714862
    H            0.972811413057     1.874513075278     0.441897995508
    C           -1.865938797283    -0.072730785685    -0.130353077286
    H           -1.406943304105     1.966111013554     0.316078567321
    H           -1.002868514345     0.867710389313     1.598709520170
    C           -3.339942450396     0.008136422945     0.316979858377
    H           -1.807194081874     0.034701022851    -1.209833262426
    H           -1.477204768635    -1.060619521628     0.089403680209
    C           -4.320108226472     0.213098514530    -0.836054584262
    H           -3.461346558825     0.823882997203     1.023992708249
    H           -3.614132706716    -0.893458825158     0.855666600972
    C           -5.772692485645     0.299291434579    -0.381437570578
    H           -4.054407224241     1.120530350703    -1.372007618886
    H           -4.212106990976    -0.601590680168    -1.547046572734
    H           -6.440092708610     0.445513619271    -1.223001945752
    H           -5.919598586201     1.126830510546     0.304769788851
    H           -6.077627951940    -0.608652285333     0.128433003376
    C            4.741865978858    -1.346240190910     0.111145303507
    H            4.898897553219    -1.291047545290    -0.955878345869
    H            5.078174086257    -2.298529821421     0.487923888771
    H            5.284134904682    -0.543800353645     0.588951392887

  Mulliken Charges: (a.u.)
   Center  Symbol    Alpha    Beta     Spin     Total
       1     O     4.19698  4.19698  0.00000 -0.39397
       2     C     2.80501  2.80501  0.00000  0.38998
       3     C     3.10168  3.10168  0.00000 -0.20337
       4     O     4.14721  4.14721  0.00000 -0.29443
       5     C     3.09303  3.09303  0.00000 -0.18607
       6     H     0.43913  0.43913  0.00000  0.12174
       7     H     0.43987  0.43987  0.00000  0.12026
       8     C     3.10314  3.10314  0.00000 -0.20627
       9     H     0.44598  0.44598  0.00000  0.10803
      10     H     0.43959  0.43959  0.00000  0.12082
      11     C     3.10200  3.10200  0.00000 -0.20400
      12     H     0.44475  0.44475  0.00000  0.11049
      13     H     0.45252  0.45252  0.00000  0.09496
      14     C     3.09253  3.09253  0.00000 -0.18507
      15     H     0.45238  0.45238  0.00000  0.09524
      16     H     0.44818  0.44818  0.00000  0.10365
      17     C     3.08212  3.08212  0.00000 -0.16424
      18     H     0.45469  0.45469  0.00000  0.09063
      19     H     0.45005  0.45005  0.00000  0.09991
      20     C     3.15077  3.15077  0.00000 -0.30154
      21     H     0.45415  0.45415  0.00000  0.09171
      22     H     0.45369  0.45369  0.00000  0.09263
      23     H     0.44844  0.44844  0.00000  0.10312
      24     H     0.45490  0.45490  0.00000  0.09019
      25     H     0.45526  0.45526  0.00000  0.08948
      26     C     3.03809  3.03809  0.00000 -0.07618
      27     H     0.45435  0.45435  0.00000  0.09130
      28     H     0.44527  0.44527  0.00000  0.10945
      29     H     0.45423  0.45423  0.00000  0.09153

   Total alpha = 44.00000, Total beta = 44.00000, Total charge = -0.00000

*** Psi4 exiting successfully. Buy a developer a beer!
