  ==> Input File <==

--------------------------------------------------------------------------
set {
	reference rhf
	basis cc-pvtz
}

set_num_threads( 4 )
memory 2 gb

molecule MOL {
0 1

H	 -2.498963	 -0.741158	 -0.729149
O	 -2.346257	 -0.289210	 0.080372
C	 -1.183935	 0.486039	 -0.009831
C	 0.062853	 -0.375310	 0.027457
H	 -1.178881	 1.094526	 -0.908634
H	 -1.184406	 1.155156	 0.838676
O	 -0.242786	 -1.557805	 0.690586
H	 0.866265	 0.154920	 0.541539
H	 0.399368	 -0.571857	 -0.988270
C	 0.807705	 -2.463807	 0.773354
H	 1.652759	 -2.044127	 1.314673
H	 0.452548	 -3.334944	 1.304080
H	 1.148141	 -2.768589	 -0.213425

	symmetry c1
}
set optking {
	frozen_dihedral = ("
		8 4 3 5
	")
}

ee = optimize('scf')
oeprop('DIPOLE', 'QUADRUPOLE', 'MULLIKEN_CHARGES')
f=open( 'psi4out.xyz', 'w' )
f.write( "13  " )
f.write( str(ee) + "\n" )
f.write( MOL.save_string_xyz() )
f.close()
--------------------------------------------------------------------------

    Molecular point group: c1
  Charge       = 0
  Multiplicity = 1
  Basis Set: CC-PVTZ
  Basis Set:
  @DF-RHF Final Energy:  -268.05192521564629
    Total Energy =                       -268.0519252156464631
    Molecular point group: c1
  Basis Set: CC-PVTZ
  Basis Set:
  Basis Set: CC-PVTZ
  Basis Set:
  @DF-RHF Final Energy:  -268.05333938301419
    Total Energy =                       -268.0533393830143609
  Basis Set: CC-PVTZ
  Basis Set:
  Basis Set: CC-PVTZ
  Basis Set:
  @DF-RHF Final Energy:  -268.05447158241424
    Total Energy =                       -268.0544715824141804
  Basis Set: CC-PVTZ
  Basis Set:
  Basis Set: CC-PVTZ
  Basis Set:
  @DF-RHF Final Energy:  -268.05509016983308
    Total Energy =                       -268.0550901698329653
  Basis Set: CC-PVTZ
  Basis Set:
  @DF-RHF Final Energy:  -268.05628924465537
    Total Energy =                       -268.0562892446555452
  @DF-RHF Final Energy:  -268.05932676975351
    Total Energy =                       -268.0593267697535111
  @DF-RHF Final Energy:  -268.06058776327086
    Total Energy =                       -268.0605877632709735
  @DF-RHF Final Energy:  -268.05694983321860
    Total Energy =                       -268.0569498332187095
  @DF-RHF Final Energy:  -268.06064683660532
    Total Energy =                       -268.0606468366053718
  @DF-RHF Final Energy:  -268.05668298139034
    Total Energy =                       -268.0566829813902814
  @DF-RHF Final Energy:  -268.05997812923567
    Total Energy =                       -268.0599781292355601
  @DF-RHF Final Energy:  -268.06048223581274
    Total Energy =                       -268.0604822358126285
  Basis Set: CC-PVTZ
  Basis Set:
  @DF-RHF Final Energy:  -268.06082715403323
    Total Energy =                       -268.0608271540331771
  Basis Set: CC-PVTZ
  Basis Set:
  Basis Set: CC-PVTZ
  Basis Set:
  @DF-RHF Final Energy:  -268.06089150966096
    Total Energy =                       -268.0608915096611895
  Basis Set: CC-PVTZ
  Basis Set:
  Basis Set: CC-PVTZ
  Basis Set:
  @DF-RHF Final Energy:  -268.06090061496587
    Total Energy =                       -268.0609006149659308
  Basis Set: CC-PVTZ
  Basis Set:
  Charge       = 0
  Multiplicity = 1
  Basis Set: CC-PVTZ
  Basis Set:

    Orbital Energies (a.u.)
    -----------------------

    Doubly Occupied:

       1A    -20.563070     2A    -20.536282     3A    -11.275382
       4A    -11.273187     5A    -11.267129     6A     -1.400429
       7A     -1.353401     8A     -1.018611     9A     -0.924624
      10A     -0.836097    11A     -0.704626    12A     -0.686877
      13A     -0.666894    14A     -0.635383    15A     -0.590809
      16A     -0.574339    17A     -0.549167    18A     -0.494716
      19A     -0.480959    20A     -0.443327    21A     -0.423757

  @DF-RHF Final Energy:  -268.06090118759226

   => Energetics <=

    Nuclear Repulsion Energy =            195.4479559547980330
    One-Electron Energy =                -753.6195806744168522
    Two-Electron Energy =                 290.1107235320266682
    DFT Exchange-Correlation Energy =       0.0000000000000000
    Empirical Dispersion Energy =           0.0000000000000000
    PCM Polarization Energy =               0.0000000000000000
    EFP Energy =                            0.0000000000000000
    Total Energy =                       -268.0609011875922079
    Molecular point group: c1
  Basis Set: CC-PVTZ
  Basis Set:

  -Total Gradient:
     Atom            X                  Y                   Z
    ------   -----------------  -----------------  -----------------
       1       -0.000038727129     0.000006836697    -0.000007156796
       2        0.000066408031     0.000061222529     0.000064991700
       3        0.003424124262     0.005685089873     0.007226086912
       4        0.002874744413     0.003224483885    -0.008842192661
       5       -0.003442414870    -0.005269764283    -0.004742124912
       6       -0.000018953065    -0.000049035054     0.000012424187
       7        0.000076681558     0.000004216860     0.000001479414
       8       -0.002955215723    -0.003702926984     0.006301866184
       9        0.000019893619     0.000010742824    -0.000028329517
      10       -0.000009056165     0.000030583429     0.000027788164
      11        0.000008470189    -0.000006826494    -0.000001865109
      12       -0.000005286180     0.000001929589    -0.000004321288
      13       -0.000000668941     0.000003447131    -0.000008646279

  **** Optimization is complete! (in 16 steps) ****
    Final optimized geometry and variables:
    Molecular point group: c1

    Geometry (in Angstrom), charge = 0, multiplicity = 1:

    H           -1.689520118648    -0.180912139494    -0.031031519131
    O           -1.719953806344     0.615932598121    -0.530784274544
    C           -0.570602281860     1.359765092078    -0.256493775068
    C            0.678005702135     0.481766458800    -0.188181206985
    H           -0.476252745717     2.043542703436    -1.089746428003
    H           -0.686209223317     1.920221575968     0.665719888472
    O            0.323737520603    -0.729907255445     0.414193645048
    H            1.423281155850     0.961023083189     0.442815336998
    H            1.090750515357     0.300433585244    -1.176344026150
    C            1.368267021199    -1.637235318867     0.550663836622
    H            2.162511914056    -1.236480035109     1.175768746486
    H            0.974298565273    -2.528414673497     1.016752970733
    H            1.789550460826    -1.903073813912    -0.415548205292

  Mulliken Charges: (a.u.)
   Center  Symbol    Alpha    Beta     Spin     Total
       1     H     0.38320  0.38320  0.00000  0.23361
       2     O     4.20929  4.20929  0.00000 -0.41857
       3     C     2.95933  2.95933  0.00000  0.08135
       4     C     2.97258  2.97258  0.00000  0.05483
       5     H     0.46309  0.46309  0.00000  0.07382
       6     H     0.47229  0.47229  0.00000  0.05542
       7     O     4.18495  4.18495  0.00000 -0.36991
       8     H     0.47159  0.47159  0.00000  0.05681
       9     H     0.46979  0.46979  0.00000  0.06041
      10     C     3.02948  3.02948  0.00000 -0.05895
      11     H     0.46919  0.46919  0.00000  0.06161
      12     H     0.44635  0.44635  0.00000  0.10730
      13     H     0.46887  0.46887  0.00000  0.06227

   Total alpha = 21.00000, Total beta = 21.00000, Total charge = -0.00000
