  ==> Input File <==

--------------------------------------------------------------------------
set {
	reference rhf
	basis 6-31G*
}

set_num_threads( 4 )
memory 2 gb

molecule MOL {
0 1

H	 -3.412045	 -0.994966	 0.274338
O	 -3.119349	 -0.144243	 -0.022670
C	 -1.777506	 -0.059777	 -0.002908
C	 -0.973957	 -1.118286	 0.410452
C	 -1.207069	 1.138023	 -0.415149
H	 -1.424120	 -2.043248	 0.728429
C	 0.397602	 -0.974596	 0.409887
H	 -1.847952	 1.939746	 -0.729442
C	 0.166222	 1.266410	 -0.410109
H	 1.029643	 -1.783005	 0.726268
C	 0.984182	 0.218375	 0.000000
H	 0.608781	 2.194423	 -0.729475
C	 2.452467	 0.370529	 0.000000
O	 3.228994	 -0.533774	 0.000000
H	 2.809473	 1.405765	 0.000000

	symmetry c1
}
set optking {
	frozen_dihedral = ("
		7 11 13 14
	")
}

ee = optimize('scf')
oeprop('DIPOLE', 'QUADRUPOLE', 'MULLIKEN_CHARGES')
f=open( 'psi4out.xyz', 'w' )
f.write( "15  " )
f.write( str(ee) + "\n" )
f.write( MOL.save_string_xyz() )
f.close()
--------------------------------------------------------------------------

    Molecular point group: c1
  Charge       = 0
  Multiplicity = 1
  Basis Set: 6-31G*
  Basis Set:
  @DF-RHF Final Energy:  -418.28821491269167
    Total Energy =                       -418.2882149126921831
    Molecular point group: c1
  Basis Set: 6-31G*
  Basis Set:
  Basis Set: 6-31G*
  Basis Set:
  @DF-RHF Final Energy:  -418.28713205844792
    Total Energy =                       -418.2871320584480372
  Basis Set: 6-31G*
  Basis Set:
  Basis Set: 6-31G*
  Basis Set:
  @DF-RHF Final Energy:  -418.28840603976710
    Total Energy =                       -418.2884060397674375
  Basis Set: 6-31G*
  Basis Set:
  Basis Set: 6-31G*
  Basis Set:
  @DF-RHF Final Energy:  -418.28846887434941
    Total Energy =                       -418.2884688743494053
  Basis Set: 6-31G*
  Basis Set:
  Basis Set: 6-31G*
  Basis Set:
  @DF-RHF Final Energy:  -418.28846998135924
    Total Energy =                       -418.2884699813595262
  Basis Set: 6-31G*
  Basis Set:
  Charge       = 0
  Multiplicity = 1
  Basis Set: 6-31G*
  Basis Set:

    Orbital Energies (a.u.)
    -----------------------

    Doubly Occupied:

       1A    -20.610504     2A    -20.556975     3A    -11.328387
       4A    -11.323098     5A    -11.260131     6A    -11.256947
       7A    -11.244281     8A    -11.239121     9A    -11.238741
      10A     -1.431528    11A     -1.397876    12A     -1.170494
      13A     -1.041203    14A     -1.038650    15A     -0.888665
      16A     -0.867058    17A     -0.794716    18A     -0.757056
      19A     -0.713443    20A     -0.666826    21A     -0.641822
      22A     -0.628406    23A     -0.608069    24A     -0.607708
      25A     -0.583779    26A     -0.559379    27A     -0.545665
      28A     -0.506307    29A     -0.484391    30A     -0.418920
      31A     -0.357655    32A     -0.326116

  @DF-RHF Final Energy:  -418.28847093614758

   => Energetics <=

    Nuclear Repulsion Energy =            401.2500006899293226
    One-Electron Energy =               -1364.8891073803829386
    Two-Electron Energy =                 545.3506357543060403
    DFT Exchange-Correlation Energy =       0.0000000000000000
    Empirical Dispersion Energy =           0.0000000000000000
    PCM Polarization Energy =               0.0000000000000000
    EFP Energy =                            0.0000000000000000
    Total Energy =                       -418.2884709361476325
    Molecular point group: c1
  Basis Set: 6-31G*
  Basis Set:

  -Total Gradient:
     Atom            X                  Y                   Z
    ------   -----------------  -----------------  -----------------
       1        0.000000326060     0.000003290052     0.000005203907
       2        0.000000701813    -0.000014093946    -0.000017218096
       3       -0.000008418308     0.000050922494     0.000033303308
       4        0.000029230954    -0.000007243483     0.000011867788
       5       -0.000020703092    -0.000043418886    -0.000055832600
       6       -0.000004977900    -0.000002381285    -0.000010758161
       7       -0.000261261973     0.001363519329     0.003570342929
       8        0.000002689525    -0.000001369381    -0.000004477712
       9        0.000027322309     0.000000059939     0.000068273605
      10        0.000002327139     0.000002836311     0.000000447553
      11        0.000385424312    -0.002045436028    -0.007419058027
      12       -0.000000299226    -0.000001974556    -0.000005264244
      13       -0.000291051124     0.000805472428     0.008514194883
      14        0.000131072208    -0.000106185323    -0.004694895683
      15        0.000007617293    -0.000003997663     0.000003870551

  **** Optimization is complete! (in 6 steps) ****
    Final optimized geometry and variables:
    Molecular point group: c1

    Geometry (in Angstrom), charge = 0, multiplicity = 1:

    H           -3.413188704509    -0.993803134302     0.272047746255
    O           -3.120866653915    -0.141837978190    -0.021524692324
    C           -1.778351024381    -0.060274912762    -0.007112608438
    C           -0.975215774689    -1.118050050220     0.406748223533
    C           -1.207302312970     1.137719764281    -0.418166272257
    H           -1.425223458599    -2.039063542136     0.736148900435
    C            0.397284994444    -0.978217752655     0.395298733397
    H           -1.847741509963     1.942263406452    -0.726353137709
    C            0.165737185719     1.267728211229    -0.408788305774
    H            1.028006762807    -1.789060952590     0.708688034456
    C            0.984424845025     0.209698519242    -0.026345872675
    H            0.607464748477     2.201543539421    -0.712012265438
    C            2.452739950298     0.372524761059     0.006539329531
    O            3.232807525752    -0.527673265593     0.045638017633
    H            2.805948227980     1.407644832350    -0.044122745697

  Mulliken Charges: (a.u.)
   Center  Symbol    Alpha    Beta     Spin     Total
       1     H     0.26860  0.26860  0.00000  0.46279
       2     O     4.37316  4.37316  0.00000 -0.74632
       3     C     2.78568  2.78568  0.00000  0.42864
       4     C     3.14717  3.14717  0.00000 -0.29434
       5     C     3.12787  3.12787  0.00000 -0.25573
       6     H     0.39805  0.39805  0.00000  0.20390
       7     C     3.07951  3.07951  0.00000 -0.15901
       8     H     0.38648  0.38648  0.00000  0.22704
       9     C     3.09237  3.09237  0.00000 -0.18475
      10     H     0.37596  0.37596  0.00000  0.24809
      11     C     3.06452  3.06452  0.00000 -0.12904
      12     H     0.39007  0.39007  0.00000  0.21986
      13     C     2.83436  2.83436  0.00000  0.33128
      14     O     4.25142  4.25142  0.00000 -0.50285
      15     H     0.42478  0.42478  0.00000  0.15044

   Total alpha = 32.00000, Total beta = 32.00000, Total charge = -0.00000
