                              Psi4 1.0.54 Driver

  ==> Input File <==

--------------------------------------------------------------------------
set {
	reference rhf
	basis cc-pvtz
}

set_num_threads( 4 )
memory 2 gb

molecule MOL {
0 1

O	 1.771219	 3.072763	 -1.835019
C	 1.160604	 2.799847	 -2.816230
C	 -0.113367	 1.980554	 -2.776360
C	 1.619475	 3.256958	 -4.182507
C	 -0.536603	 1.540244	 -1.382148
H	 -0.896260	 2.569565	 -3.248813
H	 0.030583	 1.119670	 -3.425332
C	 -1.822892	 0.718975	 -1.391528
H	 -0.663142	 2.415984	 -0.755903
H	 0.264627	 0.964901	 -0.932543
C	 -2.258482	 0.271340	 0.000669
H	 -2.621383	 1.301341	 -1.845993
H	 -1.689256	 -0.156547	 -2.023085
C	 -3.544441	 -0.550271	 -0.000253
H	 -2.392556	 1.145836	 0.632645
H	 -1.461274	 -0.311536	 0.455468
C	 -4.804551	 0.308747	 0.000556
H	 -3.553737	 -1.201524	 -0.870151
H	 -3.553831	 -1.203282	 0.868313
H	 -4.842050	 0.949078	 -0.874436
H	 -5.698404	 -0.304480	 -0.000254
H	 -4.842277	 0.947103	 0.876982
H	 0.852408	 3.863602	 -4.651161
H	 2.529653	 3.829245	 -4.090557
H	 1.790172	 2.400467	 -4.825412

	symmetry c1
}
set optking {
	frozen_dihedral = ("
		15 11 14 18
	")
}

ee,wfn = optimize('scf', return_wfn=True)
oeprop( wfn, 'DIPOLE', 'QUADRUPOLE', 'MULLIKEN_CHARGES')
f=open( 'psi4out.xyz', 'w' )
f.write( "25  " )
f.write( str(ee) + "\n" )
f.write( MOL.save_string_xyz() )
f.close()
--------------------------------------------------------------------------

    Molecular point group: c1
  Charge       = 0
  Multiplicity = 1
  Basis Set: CC-PVTZ
  Basis Set:
  @DF-RHF Final Energy:  -387.27181776159983
    Total Energy =                       -387.2718177615997774
    Molecular point group: c1
  Basis Set: CC-PVTZ
  Basis Set:
  Basis Set: CC-PVTZ
  Basis Set:
  @DF-RHF Final Energy:  -387.27197706542756
    Total Energy =                       -387.2719770654275635
  Basis Set: CC-PVTZ
  Basis Set:
  Basis Set: CC-PVTZ
  Basis Set:
  @DF-RHF Final Energy:  -387.27201231394150
    Total Energy =                       -387.2720123139413317
  Basis Set: CC-PVTZ
  Basis Set:
  Basis Set: CC-PVTZ
  Basis Set:
  @DF-RHF Final Energy:  -387.27195783491754
    Total Energy =                       -387.2719578349177709
  Basis Set: CC-PVTZ
  Basis Set:
  Charge       = 0
  Multiplicity = 1
  Basis Set: CC-PVTZ
  Basis Set:

    Orbital Energies (a.u.)
    -----------------------

    Doubly Occupied:

       1A    -20.538880     2A    -11.320515     3A    -11.230204
       4A    -11.226591     5A    -11.215134     6A    -11.214518
       7A    -11.213820     8A    -11.211730     9A    -11.207048
      10A     -1.398926    11A     -1.095043    12A     -1.056915
      13A     -1.014768    14A     -0.968579    15A     -0.894353
      16A     -0.821304    17A     -0.784274    18A     -0.730762
      19A     -0.659573    20A     -0.655412    21A     -0.627293
      22A     -0.621019    23A     -0.612426    24A     -0.589439
      25A     -0.569483    26A     -0.557644    27A     -0.538296
      28A     -0.523044    29A     -0.516947    30A     -0.495273
      31A     -0.488274    32A     -0.478237    33A     -0.463586
      34A     -0.456383    35A     -0.452251    36A     -0.401410

  @DF-RHF Final Energy:  -387.27201378627467

   => Energetics <=

    Nuclear Repulsion Energy =            442.5844902264257144
    One-Electron Energy =               -1402.0143008548047874
    Two-Electron Energy =                 572.1577968421048581
    DFT Exchange-Correlation Energy =       0.0000000000000000
    Empirical Dispersion Energy =           0.0000000000000000
    PCM Polarization Energy =               0.0000000000000000
    EFP Energy =                            0.0000000000000000
    Total Energy =                       -387.2720137862742149
    Molecular point group: c1
  Basis Set: CC-PVTZ
  Basis Set:

  -Total Gradient:
     Atom            X                  Y                   Z
    ------   -----------------  -----------------  -----------------
       1        0.000022533459     0.000001838159    -0.000011768757
       2       -0.000055740899     0.000006484304     0.000000555913
       3       -0.000011845901    -0.000010920366     0.000003965697
       4        0.000024092805     0.000002307678     0.000007881272
       5       -0.000018762825    -0.000021575821    -0.000008981663
       6        0.000000002576    -0.000000862354    -0.000001574867
       7       -0.000001166887    -0.000001676618     0.000002452239
       8        0.000016955127     0.000008889872     0.000036874063
       9        0.000007098236     0.000005004215     0.000001451142
      10        0.000005167139    -0.000000800754     0.000004576003
      11        0.000844338617    -0.001184857795     0.002073254652
      12        0.000009927468    -0.000002536046    -0.000018977066
      13        0.000007154665     0.000002949438    -0.000009734404
      14        0.001128531038    -0.001961463067     0.001186320737
      15       -0.000847201030     0.001345034417    -0.001928428449
      16       -0.000000468755     0.000010388110    -0.000003609772
      17        0.000024670957    -0.000015384929     0.000002497467
      18       -0.001138323063     0.001788427709    -0.001329439732
      19        0.000000395536     0.000003415665    -0.000015059686
      20       -0.000022778696     0.000000181532     0.000005947674
      21        0.000013546219     0.000018302969    -0.000005148418
      22       -0.000010104066     0.000006473948     0.000003333834
      23       -0.000000090948     0.000001397342     0.000006333942
      24        0.000000328478     0.000000584822    -0.000004967663
      25        0.000001740752    -0.000001602428     0.000002245838

  **** Optimization is complete! (in 5 steps) ****
    Final optimized geometry and variables:
    Molecular point group: c1

    Geometry (in Angstrom), charge = 0, multiplicity = 1:

    O            2.699263082922     1.613655680832    -0.256043199813
    C            2.091483187598     1.325721433056    -1.234648102933
    C            0.831660500918     0.484984481999    -1.188500921810
    C            2.540089239745     1.783793438398    -2.604088619214
    C            0.418350572228     0.044515778323     0.208629644493
    H            0.038196765311     1.058449776304    -1.662462440839
    H            0.989204276781    -0.376456291467    -1.833554976155
    C           -0.854692128928    -0.797158430856     0.206042669482
    H            0.279499433159     0.921123981609     0.831054212577
    H            1.229631731359    -0.515920305438     0.659315184065
    C           -1.267103412142    -1.258569784584     1.603698354365
    H           -1.661831602362    -0.225792164149    -0.245075963436
    H           -0.710370922336    -1.670141388189    -0.426530164115
    C           -2.572367103891    -2.062704066799     1.629062788051
    H           -1.373879262091    -0.382534364212     2.238267066473
    H           -0.462812715114    -1.853804363197     2.024181402744
    C           -3.828104480717    -1.192675007740     1.641104327973
    H           -2.610090445689    -2.713173628335     0.759558629682
    H           -2.585294908610    -2.706107602562     2.502137936210
    H           -3.871978224714    -0.539017500257     0.777068054820
    H           -4.724424664389    -1.802488962426     1.634389126609
    H           -3.859593567305    -0.568717961606     2.527994928509
    H            1.761805276669     2.374749270674    -3.074266542891
    H            3.440434508906     2.372208578388    -2.516852628325
    H            2.724407920444     0.927051140064    -3.242888445766

  Mulliken Charges: (a.u.)
   Center  Symbol    Alpha    Beta     Spin     Total
       1     O     4.17080  4.17080  0.00000 -0.34160
       2     C     2.86218  2.86218  0.00000  0.27565
       3     C     3.11320  3.11320  0.00000 -0.22640
       4     C     3.15126  3.15126  0.00000 -0.30252
       5     C     3.08304  3.08304  0.00000 -0.16609
       6     H     0.44576  0.44576  0.00000  0.10848
       7     H     0.44561  0.44561  0.00000  0.10879
       8     C     3.09175  3.09175  0.00000 -0.18351
       9     H     0.44575  0.44575  0.00000  0.10850
      10     H     0.44585  0.44585  0.00000  0.10829
      11     C     3.09402  3.09402  0.00000 -0.18804
      12     H     0.45523  0.45523  0.00000  0.08954
      13     H     0.45583  0.45583  0.00000  0.08834
      14     C     3.09083  3.09083  0.00000 -0.18166
      15     H     0.45465  0.45465  0.00000  0.09071
      16     H     0.44724  0.44724  0.00000  0.10552
      17     C     3.14873  3.14873  0.00000 -0.29745
      18     H     0.45654  0.45654  0.00000  0.08691
      19     H     0.44710  0.44710  0.00000  0.10581
      20     H     0.45602  0.45602  0.00000  0.08796
      21     H     0.44791  0.44791  0.00000  0.10419
      22     H     0.45457  0.45457  0.00000  0.09086
      23     H     0.45040  0.45040  0.00000  0.09920
      24     H     0.43535  0.43535  0.00000  0.12931
      25     H     0.45039  0.45039  0.00000  0.09922

   Total alpha = 36.00000, Total beta = 36.00000, Total charge =  0.00000

*** Psi4 exiting successfully. Buy a developer a beer!
