  ==> Input File <==

--------------------------------------------------------------------------
set {
	reference rhf
	basis 6-31G*
}

set_num_threads( 4 )
memory 2 gb

molecule MOL {
0 1

H	 2.568595	 2.259408	 -2.589527
N	 1.806403	 1.609583	 -2.607868
C	 1.221363	 1.462915	 -1.282824
H	 2.179278	 0.735088	 -2.925755
C	 0.001569	 0.548933	 -1.332765
H	 0.916828	 2.449157	 -0.946012
H	 1.928566	 1.083372	 -0.541063
C	 -0.679275	 0.379305	 0.025956
H	 -0.700309	 0.952958	 -2.056620
H	 0.304129	 -0.428040	 -1.708686
C	 -1.903357	 -0.536963	 -0.023547
H	 -0.979244	 1.355665	 0.403566
H	 0.035624	 -0.018269	 0.744775
C	 -3.225172	 0.228290	 0.028445
H	 -1.867824	 -1.134999	 -0.931459
H	 -1.860449	 -1.239604	 0.805977
H	 -3.313397	 0.915643	 -0.808262
H	 -4.073500	 -0.448134	 -0.008893
H	 -3.306061	 0.809945	 0.942516

	symmetry c1
}
set optking {
	frozen_dihedral = ("
		12 8 11 15
	")
}

ee = optimize('scf')
oeprop('DIPOLE', 'QUADRUPOLE', 'MULLIKEN_CHARGES')
f=open( 'psi4out.xyz', 'w' )
f.write( "19  " )
f.write( str(ee) + "\n" )
f.write( MOL.save_string_xyz() )
f.close()
--------------------------------------------------------------------------

    Molecular point group: c1
  Charge       = 0
  Multiplicity = 1
  Basis Set: 6-31G*
  Basis Set:
  @DF-RHF Final Energy:  -251.34662742441634
    Total Energy =                       -251.3466274244163969
    Molecular point group: c1
  Basis Set: 6-31G*
  Basis Set:
  Basis Set: 6-31G*
  Basis Set:
  @DF-RHF Final Energy:  -251.34693715124280
    Total Energy =                       -251.3469371512426846
  Basis Set: 6-31G*
  Basis Set:
  Basis Set: 6-31G*
  Basis Set:
  @DF-RHF Final Energy:  -251.34703230265140
    Total Energy =                       -251.3470323026514848
  Basis Set: 6-31G*
  Basis Set:
  Charge       = 0
  Multiplicity = 1
  Basis Set: 6-31G*
  Basis Set:

    Orbital Energies (a.u.)
    -----------------------

    Doubly Occupied:

       1A    -15.532516     2A    -11.239555     3A    -11.213678
       4A    -11.212528     5A    -11.209703     6A    -11.206835
       7A     -1.176556     8A     -1.071013     9A     -0.996412
      10A     -0.899956    11A     -0.816723    12A     -0.785899
      13A     -0.664376    14A     -0.635632    15A     -0.611934
      16A     -0.592629    17A     -0.582661    18A     -0.535317
      19A     -0.523459    20A     -0.503448    21A     -0.486573
      22A     -0.462805    23A     -0.454725    24A     -0.448263
      25A     -0.380990

  @DF-RHF Final Energy:  -251.34703172938833

   => Energetics <=

    Nuclear Repulsion Energy =            247.3522380791182513
    One-Electron Energy =                -828.9101610055745368
    Two-Electron Energy =                 330.2108911970677241
    DFT Exchange-Correlation Energy =       0.0000000000000000
    Empirical Dispersion Energy =           0.0000000000000000
    PCM Polarization Energy =               0.0000000000000000
    EFP Energy =                            0.0000000000000000
    Total Energy =                       -251.3470317293885614
    Molecular point group: c1
  Basis Set: 6-31G*
  Basis Set:

  -Total Gradient:
     Atom            X                  Y                   Z
    ------   -----------------  -----------------  -----------------
       1        0.000004847963     0.000015471263    -0.000026402631
       2       -0.000013951707     0.000058037725     0.000005610941
       3        0.000010952802    -0.000015234679     0.000011890033
       4       -0.000011461481    -0.000000572409     0.000019301147
       5       -0.000020935424    -0.000115279157     0.000048069186
       6        0.000022927492     0.000011212854     0.000008641583
       7        0.000005329333     0.000001063532    -0.000011915209
       8        0.000293731717    -0.000614141178     0.003145326349
       9       -0.000011376127    -0.000073962167    -0.000014818646
      10        0.000056166381     0.000016982215    -0.000014564765
      11        0.001673347434    -0.002462008106     0.001124344732
      12       -0.000562221962     0.000960921066    -0.002797933146
      13       -0.000029508224    -0.000054816612    -0.000040759192
      14        0.000036667603     0.000018962130     0.000046259205
      15       -0.001460250880     0.002199987057    -0.001512460632
      16        0.000033024487     0.000044414407     0.000003544048
      17       -0.000000867870    -0.000008174030     0.000008575884
      18       -0.000002373019    -0.000009801781     0.000001721142
      19       -0.000024048515     0.000026937869    -0.000004430032

  **** Optimization is complete! (in 4 steps) ****
    Final optimized geometry and variables:
    Molecular point group: c1

    Geometry (in Angstrom), charge = 0, multiplicity = 1:

    H            2.953802984838     1.669899890638    -1.727256957359
    N            2.212113600260     0.996533852089    -1.733162518161
    C            1.640717282659     0.846124724356    -0.402481809601
    H            2.609910362288     0.130625347009    -2.044271626662
    C            0.449751823190    -0.105317137940    -0.433736296766
    H            1.308477451572     1.826222397851    -0.073782246357
    H            2.364298413063     0.496570590412     0.338395390860
    C           -0.214309475457    -0.285950792582     0.934493575406
    H           -0.271049433762     0.270724698620    -1.154583184574
    H            0.778009783686    -1.075742292990    -0.804570120122
    C           -1.473188314700    -1.176503148496     0.880582034032
    H           -0.485932169327     0.698226811873     1.310776708528
    H            0.510271110980    -0.698474422632     1.631455075677
    C           -2.775148447449    -0.372098291883     0.889206707923
    H           -1.453160258391    -1.775869246493    -0.026076044809
    H           -1.480139218636    -1.870931583651     1.715245055907
    H           -2.807035096955     0.330667482688     0.061117178919
    H           -3.640551113719    -1.022385756071     0.803413976514
    H           -2.877677295784     0.197305817668     1.808583362295

  Mulliken Charges: (a.u.)
   Center  Symbol    Alpha    Beta     Spin     Total
       1     H     0.33250  0.33250  0.00000  0.33501
       2     N     3.92183  3.92183  0.00000 -0.84366
       3     C     3.06063  3.06063  0.00000 -0.12126
       4     H     0.33535  0.33535  0.00000  0.32929
       5     C     3.15348  3.15348  0.00000 -0.30697
       6     H     0.42087  0.42087  0.00000  0.15825
       7     H     0.43486  0.43486  0.00000  0.13029
       8     C     3.15870  3.15870  0.00000 -0.31740
       9     H     0.41327  0.41327  0.00000  0.17347
      10     H     0.42717  0.42717  0.00000  0.14566
      11     C     3.15418  3.15418  0.00000 -0.30836
      12     H     0.42161  0.42161  0.00000  0.15679
      13     H     0.42151  0.42151  0.00000  0.15697
      14     C     3.24025  3.24025  0.00000 -0.48050
      15     H     0.42024  0.42024  0.00000  0.15952
      16     H     0.42035  0.42035  0.00000  0.15930
      17     H     0.42081  0.42081  0.00000  0.15838
      18     H     0.42049  0.42049  0.00000  0.15901
      19     H     0.42189  0.42189  0.00000  0.15621

   Total alpha = 25.00000, Total beta = 25.00000, Total charge = -0.00000
