  ==> Input File <==

--------------------------------------------------------------------------
set {
	reference rhf
	basis 6-31G*
}

set_num_threads( 1 )
memory 2 gb

molecule MOL {
0 1

H	 2.591676	 2.013956	 0.335017
O	 3.341076	 1.666752	 -0.126416
C	 3.569581	 0.339145	 0.272707
C	 2.539767	 -0.640285	 -0.279495
H	 4.553106	 0.084646	 -0.100901
H	 3.608576	 0.269204	 1.359154
C	 2.150128	 -1.751057	 0.698890
H	 1.653512	 -0.081817	 -0.569375
H	 2.946205	 -1.083806	 -1.186944
C	 1.156464	 -2.748175	 0.096225
H	 1.720732	 -1.305783	 1.592039
H	 3.045879	 -2.286088	 1.014660
C	 0.798141	 -3.929453	 1.005361
H	 0.246346	 -2.221235	 -0.184605
H	 1.576674	 -3.139974	 -0.827689
C	 0.017276	 -3.556748	 2.268619
H	 0.206709	 -4.637466	 0.428524
H	 1.709033	 -4.455851	 1.286462
C	 -0.408043	 -4.776901	 3.088233
H	 -0.867695	 -2.987055	 1.988646
H	 0.614638	 -2.901788	 2.898292
C	 -1.182128	 -4.407358	 4.353102
H	 -1.019110	 -5.430731	 2.469692
H	 0.474122	 -5.352630	 3.360641
H	 -2.088011	 -3.858296	 4.111995
H	 -1.470983	 -5.292891	 4.910801
H	 -0.583957	 -3.783092	 5.011013

	symmetry c1
}
set optking {
	frozen_dihedral = ("
		14 10 7 4,
		14 10 13 16,
		10 7 4 8,
		10 13 16 20,
		20 16 19 22,
		4 3 2 1
	")
}

ee = energy('scf')
oeprop('DIPOLE', 'QUADRUPOLE', 'MULLIKEN_CHARGES')
f=open( 'psi4out.xyz', 'w' )
f.write( "27  " )
f.write( str(ee) + "\n" )
f.write( MOL.save_string_xyz() )
f.close()
--------------------------------------------------------------------------

    Molecular point group: c1

    Geometry (in Angstrom), charge = 0, multiplicity = 1:

       Center              X                  Y                   Z               Mass
    ------------   -----------------  -----------------  -----------------  -----------------
           H          1.237705869194     4.148685087285    -0.926261256957     1.007825032070
           O          1.987105869194     3.801481087285    -1.387694256957    15.994914619560
           C          2.215610869194     2.473874087285    -0.988571256957    12.000000000000
           C          1.185796869194     1.494444087285    -1.540773256957    12.000000000000
           H          3.199135869194     2.219375087285    -1.362179256957     1.007825032070
           H          2.254605869194     2.403933087285     0.097875743043     1.007825032070
           C          0.796157869194     0.383672087285    -0.562388256957    12.000000000000
           H          0.299541869194     2.052912087285    -1.830653256957     1.007825032070
           H          1.592234869194     1.050923087285    -2.448222256957     1.007825032070
           C         -0.197506130806    -0.613445912715    -1.165053256957    12.000000000000
           H          0.366761869194     0.828946087285     0.330760743043     1.007825032070
           H          1.691908869194    -0.151358912715    -0.246618256957     1.007825032070
           C         -0.555829130806    -1.794723912715    -0.255917256957    12.000000000000
           H         -1.107624130806    -0.086505912715    -1.445883256957     1.007825032070
           H          0.222703869194    -1.005244912715    -2.088967256957     1.007825032070
           C         -1.336694130806    -1.422018912715     1.007340743043    12.000000000000
           H         -1.147261130806    -2.502736912715    -0.832754256957     1.007825032070
           H          0.355062869194    -2.321121912715     0.025183743043     1.007825032070
           C         -1.762013130806    -2.642171912715     1.826954743043    12.000000000000
           H         -2.221665130806    -0.852325912715     0.727367743043     1.007825032070
           H         -0.739332130806    -0.767058912715     1.637013743043     1.007825032070
           C         -2.536098130806    -2.272628912715     3.091823743043    12.000000000000
           H         -2.373080130806    -3.296001912715     1.208413743043     1.007825032070
           H         -0.879848130806    -3.217900912715     2.099362743043     1.007825032070
           H         -3.441981130806    -1.723566912715     2.850716743043     1.007825032070
           H         -2.824953130806    -3.158161912715     3.649522743043     1.007825032070
           H         -1.937927130806    -1.648362912715     3.749734743043     1.007825032070

  Charge       = 0
  Multiplicity = 1
  Basis Set: 6-31G*
  Basis Set:

    Orbital Energies (a.u.)
    -----------------------

    Doubly Occupied:

       1A    -20.551207     2A    -11.266035     3A    -11.218951
       4A    -11.216395     5A    -11.216044     6A    -11.215204
       7A    -11.214161     8A    -11.213785     9A    -11.209599
      10A     -1.358066    11A     -1.095195    12A     -1.062122
      13A     -1.011488    14A     -0.946033    15A     -0.884313
      16A     -0.821734    17A     -0.804220    18A     -0.778358
      19A     -0.690051    20A     -0.652479    21A     -0.643830
      22A     -0.607887    23A     -0.602084    24A     -0.585622
      25A     -0.573111    26A     -0.551588    27A     -0.545441
      28A     -0.522428    29A     -0.510124    30A     -0.499908
      31A     -0.482630    32A     -0.474551    33A     -0.463377
      34A     -0.460090    35A     -0.452446    36A     -0.442680
      37A     -0.420903

  @DF-RHF Final Energy:  -388.27693996241220

   => Energetics <=

    Nuclear Repulsion Energy =            453.9356798422347197
    One-Electron Energy =               -1425.8967474533699260
    Two-Electron Energy =                 583.6841276487202776
    DFT Exchange-Correlation Energy =       0.0000000000000000
    Empirical Dispersion Energy =           0.0000000000000000
    PCM Polarization Energy =               0.0000000000000000
    EFP Energy =                            0.0000000000000000
    Total Energy =                       -388.2769399624148718

  Mulliken Charges: (a.u.)
   Center  Symbol    Alpha    Beta     Spin     Total
       1     H     0.28327  0.28327  0.00000  0.43346
       2     O     4.37117  4.37117  0.00000 -0.74233
       3     C     2.99365  2.99365  0.00000  0.01270
       4     C     3.16795  3.16795  0.00000 -0.33589
       5     H     0.41494  0.41494  0.00000  0.17013
       6     H     0.43012  0.43012  0.00000  0.13977
       7     C     3.16163  3.16163  0.00000 -0.32327
       8     H     0.41922  0.41922  0.00000  0.16156
       9     H     0.41716  0.41716  0.00000  0.16568
      10     C     3.15294  3.15294  0.00000 -0.30587
      11     H     0.42218  0.42218  0.00000  0.15564
      12     H     0.42315  0.42315  0.00000  0.15370
      13     C     3.15327  3.15327  0.00000 -0.30653
      14     H     0.42347  0.42347  0.00000  0.15306
      15     H     0.42089  0.42089  0.00000  0.15822
      16     C     3.15273  3.15273  0.00000 -0.30546
      17     H     0.42137  0.42137  0.00000  0.15726
      18     H     0.42380  0.42380  0.00000  0.15240
      19     C     3.15117  3.15117  0.00000 -0.30234
      20     H     0.42478  0.42478  0.00000  0.15044
      21     H     0.42283  0.42283  0.00000  0.15435
      22     C     3.23919  3.23919  0.00000 -0.47838
      23     H     0.42290  0.42290  0.00000  0.15419
      24     H     0.42296  0.42296  0.00000  0.15409
      25     H     0.42192  0.42192  0.00000  0.15615
      26     H     0.41917  0.41917  0.00000  0.16167
      27     H     0.42220  0.42220  0.00000  0.15561

   Total alpha = 37.00000, Total beta = 37.00000, Total charge = -0.00000
