  ==> Input File <==

--------------------------------------------------------------------------
set {
	reference rhf
	basis cc-pvtz
}

set_num_threads( 4 )
memory 2 gb

molecule MOL {
0 1

H	 1.870644	 -0.250218	 2.933264
O	 2.329335	 0.158520	 2.221044
C	 1.530910	 0.324705	 1.151707
C	 2.083659	 0.918811	 0.026262
C	 0.210162	 -0.070185	 1.145001
H	 3.112605	 1.218348	 0.052815
C	 1.314398	 1.114533	 -1.097696
H	 -0.241926	 -0.530717	 1.998714
C	 -0.532034	 0.141680	 0.000000
H	 1.750086	 1.574457	 -1.962793
C	 -0.014625	 0.726349	 -1.128597
N	 -1.937041	 -0.281114	 0.000000
H	 -0.623759	 0.871889	 -1.993754
O	 -2.159542	 -1.446261	 0.000000
O	 -2.764978	 0.565773	 0.000000

	symmetry c1
}
set optking {
	frozen_dihedral = ("
		11 9 12 14
	")
}

ee = optimize('scf')
oeprop('DIPOLE', 'QUADRUPOLE', 'MULLIKEN_CHARGES')
f=open( 'psi4out.xyz', 'w' )
f.write( "15  " )
f.write( str(ee) + "\n" )
f.write( MOL.save_string_xyz() )
f.close()
--------------------------------------------------------------------------

    Molecular point group: c1
  Charge       = 0
  Multiplicity = 1
  Basis Set: CC-PVTZ
  Basis Set:
  @DF-RHF Final Energy:  -509.21075293335394
    Total Energy =                       -509.2107529333541152
    Molecular point group: c1
  Basis Set: CC-PVTZ
  Basis Set:
  Basis Set: CC-PVTZ
  Basis Set:
  @DF-RHF Final Energy:  -509.20450364134194
    Total Energy =                       -509.2045036413421712
  Basis Set: CC-PVTZ
  Basis Set:
  Basis Set: CC-PVTZ
  Basis Set:
  @DF-RHF Final Energy:  -509.21076368557715
    Total Energy =                       -509.2107636855774899
  Basis Set: CC-PVTZ
  Basis Set:
  Basis Set: CC-PVTZ
  Basis Set:
  @DF-RHF Final Energy:  -509.21116119767623
    Total Energy =                       -509.2111611976765744
  Basis Set: CC-PVTZ
  Basis Set:
  Basis Set: CC-PVTZ
  Basis Set:
  @DF-RHF Final Energy:  -509.21116244815153
    Total Energy =                       -509.2111624481514127
  Basis Set: CC-PVTZ
  Basis Set:
  Charge       = 0
  Multiplicity = 1
  Basis Set: CC-PVTZ
  Basis Set:

    Orbital Energies (a.u.)
    -----------------------

    Doubly Occupied:

       1A    -20.610480     2A    -20.600321     3A    -20.599922
       4A    -15.850758     5A    -11.330545     6A    -11.314129
       7A    -11.265108     8A    -11.263988     9A    -11.258064
      10A    -11.250953    11A     -1.647766    12A     -1.443428
      13A     -1.430984    14A     -1.204568    15A     -1.096671
      16A     -1.049947    17A     -0.966862    18A     -0.886743
      19A     -0.833759    20A     -0.793882    21A     -0.767668
      22A     -0.741006    23A     -0.725037    24A     -0.712662
      25A     -0.672938    26A     -0.636163    27A     -0.623747
      28A     -0.596621    29A     -0.565587    30A     -0.550043
      31A     -0.536712    32A     -0.495444    33A     -0.488352
      34A     -0.461062    35A     -0.376816    36A     -0.346433

  @DF-RHF Final Energy:  -509.21116267554532

   => Energetics <=

    Nuclear Repulsion Energy =            503.9861496734306456
    One-Electron Energy =               -1694.4042783841755409
    Two-Electron Energy =                 681.2069660351995708
    DFT Exchange-Correlation Energy =       0.0000000000000000
    Empirical Dispersion Energy =           0.0000000000000000
    PCM Polarization Energy =               0.0000000000000000
    EFP Energy =                            0.0000000000000000
    Total Energy =                       -509.2111626755453244
    Molecular point group: c1
  Basis Set: CC-PVTZ
  Basis Set:

  -Total Gradient:
     Atom            X                  Y                   Z
    ------   -----------------  -----------------  -----------------
       1       -0.000002443030     0.000001462605     0.000002254039
       2        0.000014374383    -0.000008671220     0.000003467896
       3       -0.000057362367     0.000003264536    -0.000008567355
       4       -0.000003686785     0.000029105984    -0.000016160960
       5        0.000010116356     0.000073787240     0.000025627400
       6        0.000000537757     0.000000594298     0.000002021300
       7        0.000036543780    -0.000044560469     0.000005268268
       8       -0.000008097736    -0.000004789600     0.000009195068
       9       -0.001503905552     0.004649355415     0.000053673084
      10       -0.000005683280     0.000002826145     0.000002435648
      11        0.001043427888    -0.003308772058    -0.001130265848
      12        0.000392315500    -0.001294672501     0.005348364655
      13       -0.000007261255     0.000005676802    -0.000009910825
      14        0.000075788591    -0.000110587232    -0.004284481873
      15        0.000015335758     0.000005980051    -0.000002920488

  **** Optimization is complete! (in 6 steps) ****
    Final optimized geometry and variables:
    Molecular point group: c1

    Geometry (in Angstrom), charge = 0, multiplicity = 1:

    H            1.925062950663    -0.437643248415     2.662346117267
    O            2.380371332403    -0.025926457013     1.949761241262
    C            1.581619421106     0.143532866667     0.883590859573
    C            2.134701036142     0.730699261003    -0.245306501066
    C            0.258132300351    -0.250984336856     0.879123328420
    H            3.166086759927     1.020979768810    -0.223958839093
    C            1.362766734719     0.926214241789    -1.367021042016
    H           -0.185947231849    -0.732241570484     1.728936998987
    C           -0.484044101033    -0.014003834447    -0.255743440586
    H            1.801225560563     1.372928461596    -2.237844376230
    C            0.027111402102     0.556877348985    -1.389883879838
    N           -1.878803181678    -0.463304929004    -0.266869759058
    H           -0.587460740157     0.715467019270    -2.252097084220
    O           -2.067026949307    -1.632689966935    -0.247900136639
    O           -2.715437226699     0.372270053677    -0.326109668096

  Mulliken Charges: (a.u.)
   Center  Symbol    Alpha    Beta     Spin     Total
       1     H     0.38455  0.38455  0.00000  0.23090
       2     O     4.16719  4.16719  0.00000 -0.33438
       3     C     2.84173  2.84173  0.00000  0.31653
       4     C     3.10736  3.10736  0.00000 -0.21472
       5     C     3.14008  3.14008  0.00000 -0.28017
       6     H     0.41420  0.41420  0.00000  0.17159
       7     C     3.04941  3.04941  0.00000 -0.09882
       8     H     0.42224  0.42224  0.00000  0.15553
       9     C     2.92128  2.92128  0.00000  0.15745
      10     H     0.41632  0.41632  0.00000  0.16737
      11     C     3.10753  3.10753  0.00000 -0.21506
      12     N     3.28827  3.28827  0.00000  0.42346
      13     H     0.41267  0.41267  0.00000  0.17465
      14     O     4.16396  4.16396  0.00000 -0.32792
      15     O     4.16321  4.16321  0.00000 -0.32643

   Total alpha = 36.00000, Total beta = 36.00000, Total charge = -0.00000
