  ==> Input File <==

--------------------------------------------------------------------------
set {
	reference rhf
	basis cc-pvtz
}

set_num_threads( 4 )
memory 2 gb

molecule MOL {
0 1

O	 -0.988175	 -1.402891	 0.050086
C	 -0.675048	 -0.248293	 -0.009686
C	 -1.742492	 0.826599	 -0.011538
N	 0.622280	 0.144970	 -0.099307
H	 -1.692153	 1.431066	 -0.908439
H	 -2.698310	 0.331559	 0.031353
H	 -1.642148	 1.483784	 0.843455
C	 1.223217	 0.278995	 -1.409597
C	 1.550690	 0.120366	 1.005773
H	 1.880378	 1.139965	 -1.419214
H	 0.453624	 0.409455	 -2.148439
H	 1.808654	 -0.599893	 -1.667382
H	 2.260361	 0.929766	 0.892303
H	 1.050659	 0.256110	 1.949403
H	 2.111352	 -0.810877	 1.044355

	symmetry c1
}
set optking {
	frozen_dihedral = ("
		8 4 2 3
	")
}

ee = optimize('scf')
oeprop('DIPOLE', 'QUADRUPOLE', 'MULLIKEN_CHARGES')
f=open( 'psi4out.xyz', 'w' )
f.write( "15  " )
f.write( str(ee) + "\n" )
f.write( MOL.save_string_xyz() )
f.close()
--------------------------------------------------------------------------

    Molecular point group: c1
  Charge       = 0
  Multiplicity = 1
  Basis Set: CC-PVTZ
  Basis Set:
  @DF-RHF Final Energy:  -286.10088826514630
    Total Energy =                       -286.1008882651463523
    Molecular point group: c1
  Basis Set: CC-PVTZ
  Basis Set:
  Basis Set: CC-PVTZ
  Basis Set:
  @DF-RHF Final Energy:  -286.10817232132581
    Total Energy =                       -286.1081723213263786
  Basis Set: CC-PVTZ
  Basis Set:
  Basis Set: CC-PVTZ
  Basis Set:
  @DF-RHF Final Energy:  -286.11358424048115
    Total Energy =                       -286.1135842404810887
  Basis Set: CC-PVTZ
  Basis Set:
  Basis Set: CC-PVTZ
  Basis Set:
  @DF-RHF Final Energy:  -286.11732108395313
    Total Energy =                       -286.1173210839530157
  Basis Set: CC-PVTZ
  Basis Set:
  @DF-RHF Final Energy:  -286.11807101354509
    Total Energy =                       -286.1180710135453751
  @DF-RHF Final Energy:  -286.11918789684557
    Total Energy =                       -286.1191878968454603
  @DF-RHF Final Energy:  -286.11939860073528
    Total Energy =                       -286.1193986007351668
  Basis Set: CC-PVTZ
  Basis Set:
  @DF-RHF Final Energy:  -286.11949082991964
    Total Energy =                       -286.1194908299196982
  Basis Set: CC-PVTZ
  Basis Set:
  Basis Set: CC-PVTZ
  Basis Set:
  @DF-RHF Final Energy:  -286.11954829553656
    Total Energy =                       -286.1195482955363332
  Basis Set: CC-PVTZ
  Basis Set:
  Basis Set: CC-PVTZ
  Basis Set:
  @DF-RHF Final Energy:  -286.11955877639377
    Total Energy =                       -286.1195587763940011
  Basis Set: CC-PVTZ
  Basis Set:
  Charge       = 0
  Multiplicity = 1
  Basis Set: CC-PVTZ
  Basis Set:

    Orbital Energies (a.u.)
    -----------------------

    Doubly Occupied:

       1A    -20.538324     2A    -15.562956     3A    -11.343003
       4A    -11.257710     5A    -11.242546     6A    -11.227354
       7A     -1.412765     8A     -1.235832     9A     -1.014411
      10A     -0.964680    11A     -0.900309    12A     -0.738138
      13A     -0.682401    14A     -0.660334    15A     -0.644382
      16A     -0.604861    17A     -0.584180    18A     -0.572053
      19A     -0.556353    20A     -0.537870    21A     -0.522991
      22A     -0.497774    23A     -0.428319    24A     -0.384050

  @DF-RHF Final Energy:  -286.11955927326881

   => Energetics <=

    Nuclear Repulsion Energy =            253.0702744859953839
    One-Electron Energy =                -890.1524790692143370
    Two-Electron Energy =                 350.9626453099500054
    DFT Exchange-Correlation Energy =       0.0000000000000000
    Empirical Dispersion Energy =           0.0000000000000000
    PCM Polarization Energy =               0.0000000000000000
    EFP Energy =                            0.0000000000000000
    Total Energy =                       -286.1195592732689761
    Molecular point group: c1
  Basis Set: CC-PVTZ
  Basis Set:

  -Total Gradient:
     Atom            X                  Y                   Z
    ------   -----------------  -----------------  -----------------
       1        0.000005709096    -0.000021289959     0.000000101553
       2        0.001668413247    -0.004999227554    -0.008754219762
       3       -0.000280236155     0.001943580355     0.006611620833
       4       -0.004667344786     0.008916856431     0.000269923297
       5       -0.000003822179     0.000009423058    -0.000010087640
       6        0.000003847191     0.000007148882    -0.000006375081
       7       -0.000000164126    -0.000005618453    -0.000006399069
       8        0.003258373572    -0.005852761019     0.001887260103
       9       -0.000022228924     0.000016000279     0.000007520648
      10        0.000002944385    -0.000006505771    -0.000000551151
      11        0.000007412875     0.000001110793    -0.000000736937
      12        0.000006737824     0.000000038320    -0.000004088199
      13        0.000010554131     0.000000551421     0.000007091194
      14        0.000010025610    -0.000008320869     0.000002256143
      15       -0.000000221764    -0.000000985912    -0.000003315933

  **** Optimization is complete! (in 11 steps) ****
    Final optimized geometry and variables:
    Molecular point group: c1

    Geometry (in Angstrom), charge = 0, multiplicity = 1:

    O           -0.782318150828    -1.266313358345     0.569265663473
    C           -0.669740516884    -0.179612115529     0.110121875029
    C           -1.863133674908     0.688026589880    -0.195016684743
    N            0.579469766959     0.470242703615    -0.031751299328
    H           -1.703373931190     1.316804953374    -1.059995446031
    H           -2.747336315910     0.082731167811    -0.323241577583
    H           -1.996541896861     1.342159265732     0.659235550914
    C            1.108747026371     0.333914616600    -1.384120547690
    C            1.559794077649     0.011802360016     0.943462385617
    H            1.982563590305     0.961882953486    -1.489469445781
    H            0.378271155884     0.656627654050    -2.114626947858
    H            1.388479877761    -0.693361146510    -1.607977471378
    H            2.433146973096     0.646497427106     0.870796050537
    H            1.154716068541     0.100228326960     1.940982229292
    H            1.859312652335    -1.019972359287     0.788470746258

  Mulliken Charges: (a.u.)
   Center  Symbol    Alpha    Beta     Spin     Total
       1     O     4.17941  4.17941  0.00000 -0.35883
       2     C     2.83946  2.83946  0.00000  0.32108
       3     C     3.13331  3.13331  0.00000 -0.26661
       4     N     3.61419  3.61419  0.00000 -0.22838
       5     H     0.44969  0.44969  0.00000  0.10062
       6     H     0.44068  0.44068  0.00000  0.11865
       7     H     0.44603  0.44603  0.00000  0.10795
       8     C     3.09154  3.09154  0.00000 -0.18308
       9     C     3.09031  3.09031  0.00000 -0.18062
      10     H     0.44992  0.44992  0.00000  0.10016
      11     H     0.45085  0.45085  0.00000  0.09829
      12     H     0.45765  0.45765  0.00000  0.08470
      13     H     0.45329  0.45329  0.00000  0.09341
      14     H     0.44760  0.44760  0.00000  0.10480
      15     H     0.45607  0.45607  0.00000  0.08787

   Total alpha = 24.00000, Total beta = 24.00000, Total charge = -0.00000
