  ==> Input File <==

--------------------------------------------------------------------------
set {
	reference rhf
	basis 6-31G*
}

set_num_threads( 1 )
memory 2 gb

molecule MOL {
0 1

O	 -2.821601	 1.309235	 -0.001213
C	 -2.668563	 0.129746	 -0.000350
C	 -3.801572	 -0.864014	 -0.000442
O	 -1.481751	 -0.454642	 0.000584
H	 -4.417280	 -0.689587	 -0.874708
H	 -3.443784	 -1.883046	 -0.000565
H	 -4.417179	 -0.689832	 0.873954
C	 -0.334255	 0.388708	 0.000906
C	 0.891947	 -0.504646	 0.000751
H	 -0.365390	 1.025305	 -0.873475
H	 -0.365484	 1.024911	 0.875569
C	 2.191998	 0.301789	 0.000897
H	 0.855148	 -1.151283	 -0.871571
H	 0.855132	 -1.151660	 0.872805
C	 2.291675	 1.271386	 1.179995
H	 3.041859	 -0.378130	 0.023991
H	 2.273528	 0.860646	 -0.929755
C	 3.590783	 2.075863	 1.180835
H	 2.210745	 0.714534	 2.110824
H	 1.444400	 1.953055	 1.157147
H	 4.456745	 1.422458	 1.237277
H	 3.632172	 2.753426	 2.027848
H	 3.684484	 2.670531	 0.276622

	symmetry c1
}
set optking {
	frozen_dihedral = ("
		13 9 8 10,
		2 4 8 10,
		19 15 12 16,
		1 2 4 8
	")
}

ee = energy('scf')
oeprop('DIPOLE', 'QUADRUPOLE', 'MULLIKEN_CHARGES')
f=open( 'psi4out.xyz', 'w' )
f.write( "23  " )
f.write( str(ee) + "\n" )
f.write( MOL.save_string_xyz() )
f.close()
--------------------------------------------------------------------------

    Molecular point group: c1

    Geometry (in Angstrom), charge = 0, multiplicity = 1:

       Center              X                  Y                   Z               Mass
    ------------   -----------------  -----------------  -----------------  -----------------
           O         -2.565115629210     0.895803584740    -0.264805498525    15.994914619560
           C         -2.412077629210    -0.283685415260    -0.263942498525    12.000000000000
           C         -3.545086629210    -1.277445415260    -0.264034498525    12.000000000000
           O         -1.225265629210    -0.868073415260    -0.263008498525    15.994914619560
           H         -4.160794629210    -1.103018415260    -1.138300498525     1.007825032070
           H         -3.187298629210    -2.296477415260    -0.264157498525     1.007825032070
           H         -4.160693629210    -1.103263415260     0.610361501475     1.007825032070
           C         -0.077769629210    -0.024723415260    -0.262686498525    12.000000000000
           C          1.148432370790    -0.918077415260    -0.262841498525    12.000000000000
           H         -0.108904629210     0.611873584740    -1.137067498525     1.007825032070
           H         -0.108998629210     0.611479584740     0.611976501475     1.007825032070
           C          2.448483370790    -0.111642415260    -0.262695498525    12.000000000000
           H          1.111633370790    -1.564714415260    -1.135163498525     1.007825032070
           H          1.111617370790    -1.565091415260     0.609212501475     1.007825032070
           C          2.548160370790     0.857954584740     0.916402501475    12.000000000000
           H          3.298344370790    -0.791561415260    -0.239601498525     1.007825032070
           H          2.530013370790     0.447214584740    -1.193347498525     1.007825032070
           C          3.847268370790     1.662431584740     0.917242501475    12.000000000000
           H          2.467230370790     0.301102584740     1.847231501475     1.007825032070
           H          1.700885370790     1.539623584740     0.893554501475     1.007825032070
           H          4.713230370790     1.009026584740     0.973684501475     1.007825032070
           H          3.888657370790     2.339994584740     1.764255501475     1.007825032070
           H          3.940969370790     2.257099584740     0.013029501475     1.007825032070

  Charge       = 0
  Multiplicity = 1
  Basis Set: 6-31G*
  Basis Set:

    Orbital Energies (a.u.)
    -----------------------

    Doubly Occupied:

       1A    -20.602748     2A    -20.540475     3A    -11.374022
       4A    -11.280530     5A    -11.232337     6A    -11.224201
       7A    -11.223533     8A    -11.221168     9A    -11.212768
      10A     -1.467773    11A     -1.360622    12A     -1.096810
      13A     -1.039444    14A     -1.002370    15A     -0.931020
      16A     -0.851236    17A     -0.790823    18A     -0.780328
      19A     -0.688656    20A     -0.684722    21A     -0.671596
      22A     -0.636454    23A     -0.613417    24A     -0.587709
      25A     -0.577917    26A     -0.572868    27A     -0.563559
      28A     -0.528102    29A     -0.526881    30A     -0.513295
      31A     -0.494576    32A     -0.476279    33A     -0.468424
      34A     -0.461179    35A     -0.448075    36A     -0.435874

  @DF-RHF Final Energy:  -422.97633867117764

   => Energetics <=

    Nuclear Repulsion Energy =            458.3818881525015172
    One-Electron Energy =               -1484.3529451144065661
    Two-Electron Energy =                 602.9947182907280876
    DFT Exchange-Correlation Energy =       0.0000000000000000
    Empirical Dispersion Energy =           0.0000000000000000
    PCM Polarization Energy =               0.0000000000000000
    EFP Energy =                            0.0000000000000000
    Total Energy =                       -422.9763386711770181

  Mulliken Charges: (a.u.)
   Center  Symbol    Alpha    Beta     Spin     Total
       1     O     4.28416  4.28416  0.00000 -0.56832
       2     C     2.61535  2.61535  0.00000  0.76930
       3     C     3.28781  3.28781  0.00000 -0.57561
       4     O     4.31345  4.31345  0.00000 -0.62691
       5     H     0.39752  0.39752  0.00000  0.20497
       6     H     0.39982  0.39982  0.00000  0.20035
       7     H     0.39755  0.39755  0.00000  0.20490
       8     C     2.99833  2.99833  0.00000  0.00334
       9     C     3.16509  3.16509  0.00000 -0.33017
      10     H     0.41106  0.41106  0.00000  0.17788
      11     H     0.40802  0.40802  0.00000  0.18397
      12     C     3.16018  3.16018  0.00000 -0.32036
      13     H     0.41216  0.41216  0.00000  0.17568
      14     H     0.41454  0.41454  0.00000  0.17093
      15     C     3.15927  3.15927  0.00000 -0.31853
      16     H     0.41688  0.41688  0.00000  0.16624
      17     H     0.42086  0.42086  0.00000  0.15828
      18     C     3.23861  3.23861  0.00000 -0.47722
      19     H     0.42110  0.42110  0.00000  0.15781
      20     H     0.41879  0.41879  0.00000  0.16243
      21     H     0.42129  0.42129  0.00000  0.15741
      22     H     0.41757  0.41757  0.00000  0.16485
      23     H     0.42060  0.42060  0.00000  0.15881

   Total alpha = 36.00000, Total beta = 36.00000, Total charge = -0.00000
