  ==> Input File <==

--------------------------------------------------------------------------
set {
	reference rhf
	basis 6-31G*
}

set_num_threads( 4 )
memory 2 gb

molecule MOL {
0 1

O	 0.391030	 1.298905	 0.000133
C	 0.503002	 0.111612	 0.000005
C	 -0.702327	 -0.811998	 -0.000075
C	 1.863306	 -0.554493	 0.000030
C	 -1.652832	 -0.575315	 -1.167411
H	 -0.337244	 -1.837418	 -0.000190
H	 -1.218252	 -0.687783	 0.950271
H	 -1.148426	 -0.722566	 -2.114570
H	 -2.492207	 -1.260938	 -1.116153
H	 -2.037246	 0.437260	 -1.155683
H	 1.974395	 -1.189404	 -0.874166
H	 2.638695	 0.198920	 -0.000196
H	 1.974487	 -1.188655	 0.874727

	symmetry c1
}
set optking {
	frozen_dihedral = ("
		6 3 2 1
	")
}

ee = optimize('scf')
oeprop('DIPOLE', 'QUADRUPOLE', 'MULLIKEN_CHARGES')
f=open( 'psi4out.xyz', 'w' )
f.write( "13  " )
f.write( str(ee) + "\n" )
f.write( MOL.save_string_xyz() )
f.close()
--------------------------------------------------------------------------

    Molecular point group: c1
  Charge       = 0
  Multiplicity = 1
  Basis Set: 6-31G*
  Basis Set:
  @DF-RHF Final Energy:  -230.99497135815051
    Total Energy =                       -230.9949713581505080
    Molecular point group: c1
  Basis Set: 6-31G*
  Basis Set:
  Basis Set: 6-31G*
  Basis Set:
  @DF-RHF Final Energy:  -230.99540990019472
    Total Energy =                       -230.9954099001946588
  Basis Set: 6-31G*
  Basis Set:
  Basis Set: 6-31G*
  Basis Set:
  @DF-RHF Final Energy:  -230.99394904401845
    Total Energy =                       -230.9939490440185637
  Basis Set: 6-31G*
  Basis Set:
  Basis Set: 6-31G*
  Basis Set:
  @DF-RHF Final Energy:  -230.99559766553847
    Total Energy =                       -230.9955976655383836
  Basis Set: 6-31G*
  Basis Set:
  Basis Set: 6-31G*
  Basis Set:
  @DF-RHF Final Energy:  -230.99561191105389
    Total Energy =                       -230.9956119110535724
  Basis Set: 6-31G*
  Basis Set:
  Charge       = 0
  Multiplicity = 1
  Basis Set: 6-31G*
  Basis Set:

    Orbital Energies (a.u.)
    -----------------------

    Doubly Occupied:

       1A    -20.549015     2A    -11.326543     3A    -11.233414
       4A    -11.229590     5A    -11.221836     6A     -1.395190
       7A     -1.061861     8A     -1.000185     9A     -0.879881
      10A     -0.732107    11A     -0.656780    12A     -0.643651
      13A     -0.610800    14A     -0.588283    15A     -0.571130
      16A     -0.533677    17A     -0.522862    18A     -0.502745
      19A     -0.478698    20A     -0.400389

  @DF-RHF Final Energy:  -230.99561237786352

   => Energetics <=

    Nuclear Repulsion Energy =            176.8208908564933779
    One-Electron Energy =                -663.3557326649111019
    Two-Electron Energy =                 255.5392294305538030
    DFT Exchange-Correlation Energy =       0.0000000000000000
    Empirical Dispersion Energy =           0.0000000000000000
    PCM Polarization Energy =               0.0000000000000000
    EFP Energy =                            0.0000000000000000
    Total Energy =                       -230.9956123778638926
    Molecular point group: c1
  Basis Set: 6-31G*
  Basis Set:

  -Total Gradient:
     Atom            X                  Y                   Z
    ------   -----------------  -----------------  -----------------
       1        0.000030698942     0.000003888430     0.000949436148
       2       -0.000039846627     0.000021193503    -0.001103470178
       3       -0.000008415102    -0.000017533350    -0.000843440374
       4        0.000001820971    -0.000008965277     0.000038163232
       5        0.000022803911     0.000003952730     0.000025195701
       6       -0.000002176199    -0.000008442973     0.000961185371
       7        0.000005109763    -0.000009909674    -0.000004164752
       8       -0.000002869702     0.000005583640     0.000005614611
       9       -0.000008022295    -0.000007469355     0.000012026349
      10        0.000012369515     0.000001867471    -0.000014826727
      11       -0.000005034581     0.000007700580    -0.000008189540
      12       -0.000001579427     0.000002641463    -0.000006106468
      13       -0.000004859171     0.000005492808    -0.000011423373

  **** Optimization is complete! (in 6 steps) ****
    Final optimized geometry and variables:
    Molecular point group: c1

    Geometry (in Angstrom), charge = 0, multiplicity = 1:

    O            0.275560504167     1.386284780779     0.239700301790
    C            0.427143872787     0.202797396153     0.238152088515
    C           -0.772867711089    -0.733476459610     0.244768106085
    C            1.803074264344    -0.422497355138     0.244692953763
    C           -1.722511805912    -0.453505775198    -0.922764171582
    H           -0.449839507607    -1.769466733685     0.242287237501
    H           -1.294269502833    -0.566316194202     1.183571081678
    H           -1.240542676173    -0.643566171267    -1.876938938769
    H           -2.599526913630    -1.088486377286    -0.860554767685
    H           -2.042821961683     0.580236140326    -0.907039525806
    H            1.929608741354    -1.054511558394    -0.630262649613
    H            2.560866653638     0.348414667728     0.250510239770
    H            1.920411120115    -1.058525352364     1.117839388224

  Mulliken Charges: (a.u.)
   Center  Symbol    Alpha    Beta     Spin     Total
       1     O     4.26254  4.26254  0.00000 -0.52507
       2     C     2.73686  2.73686  0.00000  0.52628
       3     C     3.20195  3.20195  0.00000 -0.40391
       4     C     3.28914  3.28914  0.00000 -0.57828
       5     C     3.24371  3.24371  0.00000 -0.48742
       6     H     0.41574  0.41574  0.00000  0.16851
       7     H     0.40148  0.40148  0.00000  0.19705
       8     H     0.41861  0.41861  0.00000  0.16278
       9     H     0.41536  0.41536  0.00000  0.16929
      10     H     0.40140  0.40140  0.00000  0.19720
      11     H     0.40831  0.40831  0.00000  0.18338
      12     H     0.39695  0.39695  0.00000  0.20610
      13     H     0.40795  0.40795  0.00000  0.18410

   Total alpha = 20.00000, Total beta = 20.00000, Total charge = -0.00000
