  ==> Input File <==

--------------------------------------------------------------------------
set {
	reference rhf
	basis 6-31G*
}

set_num_threads( 1 )
memory 2 gb

molecule MOL {
0 1

H	 -3.420663	 1.227371	 -1.044276
O	 -3.452007	 0.283848	 -0.965577
C	 -3.181085	 -0.079926	 0.364119
C	 -1.765924	 0.277073	 0.805136
H	 -3.327791	 -1.152017	 0.410903
H	 -3.905698	 0.375695	 1.036898
C	 -0.677594	 -0.417312	 -0.014550
H	 -1.637766	 1.358238	 0.744969
H	 -1.659588	 0.017670	 1.857098
C	 0.738335	 -0.034840	 0.421385
H	 -0.814977	 -0.178223	 -1.064632
H	 -0.802730	 -1.495410	 0.071702
C	 1.822265	 -0.738362	 -0.399735
H	 0.853533	 1.043532	 0.342250
H	 0.871597	 -0.279636	 1.474438
C	 1.493716	 -2.183619	 -0.791452
H	 2.760139	 -0.721335	 0.153254
H	 1.996639	 -0.165981	 -1.308465
C	 1.401058	 -3.156161	 0.385825
H	 2.260988	 -2.537656	 -1.475734
H	 0.559376	 -2.201528	 -1.349028
H	 2.317737	 -3.150252	 0.969608
H	 1.240176	 -4.171190	 0.035583
H	 0.582086	 -2.909535	 1.053376

	symmetry c1
}
set optking {
	frozen_dihedral = ("
		20 16 13 17,
		13 10 7 11,
		11 7 4 3,
		1 2 3 5,
		7 4 3 2
	")
}

ee = energy('scf')
oeprop('DIPOLE', 'QUADRUPOLE', 'MULLIKEN_CHARGES')
f=open( 'psi4out.xyz', 'w' )
f.write( "24  " )
f.write( str(ee) + "\n" )
f.write( MOL.save_string_xyz() )
f.close()
--------------------------------------------------------------------------

    Molecular point group: c1

    Geometry (in Angstrom), charge = 0, multiplicity = 1:

       Center              X                  Y                   Z               Mass
    ------------   -----------------  -----------------  -----------------  -----------------
           H         -2.909219392210     1.972416803360    -1.007480377246     1.007825032070
           O         -2.940563392210     1.028893803360    -0.928781377246    15.994914619560
           C         -2.669641392210     0.665119803360     0.400914622754    12.000000000000
           C         -1.254480392210     1.022118803360     0.841931622754    12.000000000000
           H         -2.816347392210    -0.406971196640     0.447698622754     1.007825032070
           H         -3.394254392210     1.120740803360     1.073693622754     1.007825032070
           C         -0.166150392210     0.327733803360     0.022245622754    12.000000000000
           H         -1.126322392210     2.103283803360     0.781764622754     1.007825032070
           H         -1.148144392210     0.762715803360     1.893893622754     1.007825032070
           C          1.249778607790     0.710205803360     0.458180622754    12.000000000000
           H         -0.303533392210     0.566822803360    -1.027836377246     1.007825032070
           H         -0.291286392210    -0.750364196640     0.108497622754     1.007825032070
           C          2.333708607790     0.006683803360    -0.362939377246    12.000000000000
           H          1.364976607790     1.788577803360     0.379045622754     1.007825032070
           H          1.383040607790     0.465409803360     1.511233622754     1.007825032070
           C          2.005159607790    -1.438573196640    -0.754656377246    12.000000000000
           H          3.271582607790     0.023710803360     0.190049622754     1.007825032070
           H          2.508082607790     0.579064803360    -1.271669377246     1.007825032070
           C          1.912501607790    -2.411115196640     0.422620622754    12.000000000000
           H          2.772431607790    -1.792610196640    -1.438938377246     1.007825032070
           H          1.070819607790    -1.456482196640    -1.312232377246     1.007825032070
           H          2.829180607790    -2.405206196640     1.006403622754     1.007825032070
           H          1.751619607790    -3.426144196640     0.072378622754     1.007825032070
           H          1.093529607790    -2.164489196640     1.090171622754     1.007825032070

  Charge       = 0
  Multiplicity = 1
  Basis Set: 6-31G*
  Basis Set:

    Orbital Energies (a.u.)
    -----------------------

    Doubly Occupied:

       1A    -20.553574     2A    -11.267609     3A    -11.217040
       4A    -11.212118     5A    -11.211829     6A    -11.210943
       7A    -11.209927     8A    -11.206982     9A     -1.360153
      10A     -1.091712    11A     -1.044302    12A     -0.983640
      13A     -0.917184    14A     -0.852693    15A     -0.811914
      16A     -0.758316    17A     -0.680883    18A     -0.654387
      19A     -0.623827    20A     -0.618509    21A     -0.610865
      22A     -0.574848    23A     -0.553615    24A     -0.544170
      25A     -0.521169    26A     -0.511563    27A     -0.492946
      28A     -0.476973    29A     -0.468671    30A     -0.460802
      31A     -0.448320    32A     -0.443368    33A     -0.420248

  @DF-RHF Final Energy:  -349.24122605870753

   => Energetics <=

    Nuclear Repulsion Energy =            396.6980489744596525
    One-Electron Energy =               -1259.8482124557390307
    Two-Electron Energy =                 513.9089374225709435
    DFT Exchange-Correlation Energy =       0.0000000000000000
    Empirical Dispersion Energy =           0.0000000000000000
    PCM Polarization Energy =               0.0000000000000000
    EFP Energy =                            0.0000000000000000
    Total Energy =                       -349.2412260587084347

  Mulliken Charges: (a.u.)
   Center  Symbol    Alpha    Beta     Spin     Total
       1     H     0.28337  0.28337  0.00000  0.43326
       2     O     4.36841  4.36841  0.00000 -0.73681
       3     C     2.99606  2.99606  0.00000  0.00787
       4     C     3.16782  3.16782  0.00000 -0.33563
       5     H     0.41659  0.41659  0.00000  0.16683
       6     H     0.42818  0.42818  0.00000  0.14364
       7     C     3.15873  3.15873  0.00000 -0.31747
       8     H     0.42862  0.42862  0.00000  0.14276
       9     H     0.42265  0.42265  0.00000  0.15469
      10     C     3.15440  3.15440  0.00000 -0.30880
      11     H     0.41207  0.41207  0.00000  0.17585
      12     H     0.41944  0.41944  0.00000  0.16112
      13     C     3.15212  3.15212  0.00000 -0.30424
      14     H     0.42182  0.42182  0.00000  0.15637
      15     H     0.42402  0.42402  0.00000  0.15197
      16     C     3.16127  3.16127  0.00000 -0.32255
      17     H     0.42265  0.42265  0.00000  0.15469
      18     H     0.42189  0.42189  0.00000  0.15623
      19     C     3.24062  3.24062  0.00000 -0.48124
      20     H     0.42016  0.42016  0.00000  0.15968
      21     H     0.41658  0.41658  0.00000  0.16683
      22     H     0.42209  0.42209  0.00000  0.15581
      23     H     0.41908  0.41908  0.00000  0.16185
      24     H     0.42135  0.42135  0.00000  0.15729

   Total alpha = 33.00000, Total beta = 33.00000, Total charge =  0.00000
