  ==> Input File <==

--------------------------------------------------------------------------
set {
	reference rhf
	basis 6-31G*
}

set_num_threads( 1 )
memory 2 gb

molecule MOL {
0 1

H	 -2.400301	 1.898697	 -2.221570
C	 -2.744921	 0.904854	 -1.909905
C	 -1.809328	 -0.228434	 -2.245963
O	 -3.786809	 0.781772	 -1.352168
C	 -0.377946	 0.023896	 -1.752272
H	 -2.217965	 -1.143347	 -1.832855
H	 -1.801940	 -0.326068	 -3.330891
C	 -0.252658	 0.041456	 -0.226725
H	 0.267228	 -0.749504	 -2.158335
H	 -0.015502	 0.965760	 -2.161275
C	 1.180775	 0.282413	 0.250794
H	 -0.613755	 -0.904761	 0.170930
H	 -0.902583	 0.809584	 0.188144
C	 2.148627	 -0.814315	 -0.201312
H	 1.516199	 1.249228	 -0.115937
H	 1.192670	 0.346017	 1.338083
C	 3.580890	 -0.659131	 0.322722
H	 2.166869	 -0.852443	 -1.289387
H	 1.762857	 -1.776509	 0.128956
C	 4.324889	 0.564933	 -0.213704
H	 4.142010	 -1.551473	 0.056605
H	 3.564836	 -0.624694	 1.410140
H	 4.342616	 0.565491	 -1.300421
H	 3.866655	 1.493402	 0.110242
H	 5.353900	 0.572371	 0.132816

	symmetry c1
}
set optking {
	frozen_dihedral = ("
		6 3 5 8,
		6 3 2 4,
		3 5 8 12,
		8 11 14 18,
		20 17 14 18
	")
}

ee = energy('scf')
oeprop('DIPOLE', 'QUADRUPOLE', 'MULLIKEN_CHARGES')
f=open( 'psi4out.xyz', 'w' )
f.write( "25  " )
f.write( str(ee) + "\n" )
f.write( MOL.save_string_xyz() )
f.close()
--------------------------------------------------------------------------

    Molecular point group: c1

    Geometry (in Angstrom), charge = 0, multiplicity = 1:

       Center              X                  Y                   Z               Mass
    ------------   -----------------  -----------------  -----------------  -----------------
           H         -2.653315877230     1.790486276584    -1.407458633413     1.007825032070
           C         -2.997935877230     0.796643276584    -1.095793633413    12.000000000000
           C         -2.062342877230    -0.336644723416    -1.431851633413    12.000000000000
           O         -4.039823877230     0.673561276584    -0.538056633413    15.994914619560
           C         -0.630960877230    -0.084314723416    -0.938160633413    12.000000000000
           H         -2.470979877230    -1.251557723416    -1.018743633413     1.007825032070
           H         -2.054954877230    -0.434278723416    -2.516779633413     1.007825032070
           C         -0.505672877230    -0.066754723416     0.587386366587    12.000000000000
           H          0.014213122770    -0.857714723416    -1.344223633413     1.007825032070
           H         -0.268516877230     0.857549276584    -1.347163633413     1.007825032070
           C          0.927760122770     0.174202276584     1.064905366587    12.000000000000
           H         -0.866769877230    -1.012971723416     0.985041366587     1.007825032070
           H         -1.155597877230     0.701373276584     1.002255366587     1.007825032070
           C          1.895612122770    -0.922525723416     0.612799366587    12.000000000000
           H          1.263184122770     1.141017276584     0.698174366587     1.007825032070
           H          0.939655122770     0.237806276584     2.152194366587     1.007825032070
           C          3.327875122770    -0.767341723416     1.136833366587    12.000000000000
           H          1.913854122770    -0.960653723416    -0.475275633413     1.007825032070
           H          1.509842122770    -1.884719723416     0.943067366587     1.007825032070
           C          4.071874122770     0.456722276584     0.600407366587    12.000000000000
           H          3.888995122770    -1.659683723416     0.870716366587     1.007825032070
           H          3.311821122770    -0.732904723416     2.224251366587     1.007825032070
           H          4.089601122770     0.457280276584    -0.486309633413     1.007825032070
           H          3.613640122770     1.385191276584     0.924353366587     1.007825032070
           H          5.100885122770     0.464160276584     0.946927366587     1.007825032070

  Charge       = 0
  Multiplicity = 1
  Basis Set: 6-31G*
  Basis Set:

    Orbital Energies (a.u.)
    -----------------------

    Doubly Occupied:

       1A    -20.561775     2A    -11.325857     3A    -11.234733
       4A    -11.234069     5A    -11.223939     6A    -11.219991
       7A    -11.219271     8A    -11.218244     9A    -11.211827
      10A     -1.401766    11A     -1.106201    12A     -1.068591
      13A     -1.013706    14A     -0.939972    15A     -0.882258
      16A     -0.823722    17A     -0.790823    18A     -0.774040
      19A     -0.665424    20A     -0.654149    21A     -0.635210
      22A     -0.623389    23A     -0.605479    24A     -0.599426
      25A     -0.581093    26A     -0.546659    27A     -0.537945
      28A     -0.523759    29A     -0.516823    30A     -0.501257
      31A     -0.485731    32A     -0.477129    33A     -0.461030
      34A     -0.453035    35A     -0.448505    36A     -0.408755

  @DF-RHF Final Energy:  -387.11945449577223

   => Energetics <=

    Nuclear Repulsion Energy =            444.6462564169833627
    One-Electron Energy =               -1405.5796869237099145
    Two-Electron Energy =                 573.8139760109547751
    DFT Exchange-Correlation Energy =       0.0000000000000000
    Empirical Dispersion Energy =           0.0000000000000000
    PCM Polarization Energy =               0.0000000000000000
    EFP Energy =                            0.0000000000000000
    Total Energy =                       -387.1194544957718335

  Mulliken Charges: (a.u.)
   Center  Symbol    Alpha    Beta     Spin     Total
       1     H     0.43269  0.43269  0.00000  0.13462
       2     C     2.83098  2.83098  0.00000  0.33804
       3     C     3.20714  3.20714  0.00000 -0.41429
       4     O     4.23783  4.23783  0.00000 -0.47566
       5     C     3.17010  3.17010  0.00000 -0.34019
       6     H     0.39975  0.39975  0.00000  0.20050
       7     H     0.40694  0.40694  0.00000  0.18613
       8     C     3.15634  3.15634  0.00000 -0.31268
       9     H     0.40970  0.40970  0.00000  0.18060
      10     H     0.42004  0.42004  0.00000  0.15992
      11     C     3.15536  3.15536  0.00000 -0.31072
      12     H     0.41833  0.41833  0.00000  0.16335
      13     H     0.41612  0.41612  0.00000  0.16775
      14     C     3.15690  3.15690  0.00000 -0.31381
      15     H     0.42140  0.42140  0.00000  0.15721
      16     H     0.41876  0.41876  0.00000  0.16248
      17     C     3.15159  3.15159  0.00000 -0.30318
      18     H     0.42307  0.42307  0.00000  0.15386
      19     H     0.42153  0.42153  0.00000  0.15695
      20     C     3.24140  3.24140  0.00000 -0.48279
      21     H     0.42054  0.42054  0.00000  0.15892
      22     H     0.42246  0.42246  0.00000  0.15507
      23     H     0.42276  0.42276  0.00000  0.15447
      24     H     0.41992  0.41992  0.00000  0.16015
      25     H     0.41835  0.41835  0.00000  0.16330

   Total alpha = 36.00000, Total beta = 36.00000, Total charge = -0.00000
