  ==> Input File <==

--------------------------------------------------------------------------
set {
	reference rhf
	basis cc-pvtz
}

set_num_threads( 4 )
memory 2 gb

molecule MOL {
0 1

H	 -2.770230	 -0.601998	 -0.707322
O	 -2.313989	 -0.142475	 -0.025864
C	 -0.943808	 -0.065018	 -0.330000
H	 -0.812293	 -0.225641	 -1.398673
C	 -0.231030	 -1.182113	 0.407592
C	 -0.353797	 1.300461	 0.050970
H	 -0.312800	 -0.992012	 1.473041
H	 -0.738841	 -2.119564	 0.220514
C	 1.246176	 -1.268044	 -0.015480
H	 -0.539537	 2.008579	 -0.751815
H	 -0.889989	 1.662858	 0.920677
C	 1.153605	 1.231851	 0.356834
H	 1.823096	 -1.684665	 0.802361
H	 1.352335	 -1.958223	 -0.845114
C	 1.826409	 0.100723	 -0.416008
H	 1.622968	 2.181508	 0.128734
H	 1.301983	 1.066493	 1.419367
H	 2.897299	 0.112407	 -0.249665
H	 1.683458	 0.265621	 -1.480024

	symmetry c1
}
set optking {
	frozen_dihedral = ("
		1 2 3 4
	")
}

ee = optimize('scf')
oeprop('DIPOLE', 'QUADRUPOLE', 'MULLIKEN_CHARGES')
f=open( 'psi4out.xyz', 'w' )
f.write( "19  " )
f.write( str(ee) + "\n" )
f.write( MOL.save_string_xyz() )
f.close()
--------------------------------------------------------------------------

    Molecular point group: c1
  Charge       = 0
  Multiplicity = 1
  Basis Set: CC-PVTZ
  Basis Set:
  @DF-RHF Final Energy:  -309.16146942964127
    Total Energy =                       -309.1614694296415564
    Molecular point group: c1
  Basis Set: CC-PVTZ
  Basis Set:
  Basis Set: CC-PVTZ
  Basis Set:
  @DF-RHF Final Energy:  -309.16242241412817
    Total Energy =                       -309.1624224141281161
  Basis Set: CC-PVTZ
  Basis Set:
  Basis Set: CC-PVTZ
  Basis Set:
  @DF-RHF Final Energy:  -309.16260518393688
    Total Energy =                       -309.1626051839366482
  Basis Set: CC-PVTZ
  Basis Set:
  Basis Set: CC-PVTZ
  Basis Set:
  @DF-RHF Final Energy:  -309.16260877211215
    Total Energy =                       -309.1626087721122076
  Basis Set: CC-PVTZ
  Basis Set:
  Charge       = 0
  Multiplicity = 1
  Basis Set: CC-PVTZ
  Basis Set:

    Orbital Energies (a.u.)
    -----------------------

    Doubly Occupied:

       1A    -20.542874     2A    -11.268351     3A    -11.213806
       4A    -11.212742     5A    -11.211567     6A    -11.207154
       7A    -11.206663     8A     -1.362271     9A     -1.109092
      10A     -1.001129    11A     -0.989411    12A     -0.844154
      13A     -0.831888    14A     -0.731441    15A     -0.715315
      16A     -0.654905    17A     -0.622834    18A     -0.599551
      19A     -0.563290    20A     -0.545628    21A     -0.538344
      22A     -0.517814    23A     -0.498047    24A     -0.487261
      25A     -0.465918    26A     -0.449754    27A     -0.430326
      28A     -0.408231

  @DF-RHF Final Energy:  -309.16260925317135

   => Energetics <=

    Nuclear Repulsion Energy =            331.7223041545346405
    One-Electron Energy =               -1077.3103094116745524
    Two-Electron Energy =                 436.4253960039684443
    DFT Exchange-Correlation Energy =       0.0000000000000000
    Empirical Dispersion Energy =           0.0000000000000000
    PCM Polarization Energy =               0.0000000000000000
    EFP Energy =                            0.0000000000000000
    Total Energy =                       -309.1626092531714676
    Molecular point group: c1
  Basis Set: CC-PVTZ
  Basis Set:

  -Total Gradient:
     Atom            X                  Y                   Z
    ------   -----------------  -----------------  -----------------
       1       -0.000182946328     0.001426961515    -0.000793964655
       2        0.000231983913    -0.002127886844     0.001019306989
       3       -0.000095084935     0.002109235067    -0.000414314913
       4        0.000041829538    -0.001378595837     0.000239641752
       5        0.000001771916     0.000004110566    -0.000023315617
       6        0.000016565191     0.000003666246    -0.000013721862
       7       -0.000001184448     0.000000424762    -0.000005618925
       8       -0.000003711125    -0.000006821185    -0.000002621093
       9        0.000012030137     0.000004124914     0.000006805639
      10        0.000006543280     0.000011269701    -0.000003021094
      11       -0.000008404414    -0.000026705100    -0.000007055687
      12        0.000002179803     0.000007609673    -0.000014544413
      13        0.000013225267    -0.000007847414     0.000009590626
      14        0.000001414736     0.000006274855     0.000008754274
      15       -0.000019559601    -0.000017967582    -0.000000432583
      16       -0.000007610878     0.000002276830     0.000000548030
      17       -0.000008346755    -0.000000800428     0.000001256416
      18        0.000001468405    -0.000015393415    -0.000003544877
      19       -0.000002163699     0.000006063673    -0.000003748005

  **** Optimization is complete! (in 5 steps) ****
    Final optimized geometry and variables:
    Molecular point group: c1

    Geometry (in Angstrom), charge = 0, multiplicity = 1:

    H           -2.810938404787    -0.501546655534    -0.688220844007
    O           -2.319947573235    -0.069317237537    -0.015816022328
    C           -0.945343488793    -0.074648601548    -0.327709933275
    H           -0.825974520696    -0.246767238737    -1.394911520440
    C           -0.216465941904    -1.188562190427     0.409341061568
    C           -0.362409175365     1.292301723922     0.040173607034
    H           -0.299174801692    -0.999300518339     1.474767257444
    H           -0.712539903071    -2.135013006472     0.226634241497
    C            1.261431669207    -1.263863894586    -0.014804389784
    H           -0.549639553898     1.987180295919    -0.771242012693
    H           -0.913590491545     1.660754902396     0.896755520005
    C            1.140769371552     1.232781329271     0.362155872988
    H            1.842238932840    -1.679046795287     0.801093860726
    H            1.372622021079    -1.950969231632    -0.846741821821
    C            1.829847365544     0.111420202034    -0.410364769876
    H            1.604040161441     2.187535551857     0.142842664759
    H            1.281963844749     1.063762006427     1.425312772610
    H            2.900099260331     0.132698513954    -0.240743425367
    H            1.688479450898     0.277879817214    -1.474554648154

  Mulliken Charges: (a.u.)
   Center  Symbol    Alpha    Beta     Spin     Total
       1     H     0.39237  0.39237  0.00000  0.21527
       2     O     4.20628  4.20628  0.00000 -0.41256
       3     C     2.92713  2.92713  0.00000  0.14573
       4     H     0.46724  0.46724  0.00000  0.06553
       5     C     3.09498  3.09498  0.00000 -0.18997
       6     C     3.10863  3.10863  0.00000 -0.21726
       7     H     0.45327  0.45327  0.00000  0.09347
       8     H     0.44872  0.44872  0.00000  0.10257
       9     C     3.11494  3.11494  0.00000 -0.22988
      10     H     0.45011  0.45011  0.00000  0.09979
      11     H     0.44436  0.44436  0.00000  0.11128
      12     C     3.10072  3.10072  0.00000 -0.20144
      13     H     0.44730  0.44730  0.00000  0.10540
      14     H     0.44825  0.44825  0.00000  0.10351
      15     C     3.10212  3.10212  0.00000 -0.20424
      16     H     0.44226  0.44226  0.00000  0.11547
      17     H     0.45341  0.45341  0.00000  0.09317
      18     H     0.44311  0.44311  0.00000  0.11378
      19     H     0.45481  0.45481  0.00000  0.09038

   Total alpha = 28.00000, Total beta = 28.00000, Total charge =  0.00000
