  ==> Input File <==

--------------------------------------------------------------------------
set {
	reference rhf
	basis cc-pvtz
}

set_num_threads( 4 )
memory 2 gb

molecule MOL {
0 1

H	 1.305289	 -1.348759	 1.850891
O	 0.988662	 -0.932094	 1.071025
C	 0.542500	 0.366778	 1.364091
C	 0.027642	 1.012027	 0.090274
H	 1.357974	 0.966269	 1.760804
H	 -0.236913	 0.338322	 2.120508
C	 -1.138737	 0.285728	 -0.581921
H	 0.853837	 1.075779	 -0.610330
H	 -0.263374	 2.032574	 0.326935
C	 -1.933983	 -0.631436	 0.343653
H	 -0.763151	 -0.285569	 -1.422081
H	 -1.808359	 1.035291	 -0.992333
H	 -2.789188	 -1.049673	 -0.174718
H	 -1.335629	 -1.461368	 0.700418
H	 -2.305435	 -0.092167	 1.209725

	symmetry c1
}
set optking {
	frozen_dihedral = ("
		8 4 7 11
	")
}

ee = optimize('scf')
oeprop('DIPOLE', 'QUADRUPOLE', 'MULLIKEN_CHARGES')
f=open( 'psi4out.xyz', 'w' )
f.write( "15  " )
f.write( str(ee) + "\n" )
f.write( MOL.save_string_xyz() )
f.close()
--------------------------------------------------------------------------

    Molecular point group: c1
  Charge       = 0
  Multiplicity = 1
  Basis Set: CC-PVTZ
  Basis Set:
  @DF-RHF Final Energy:  -232.23052458259218
    Total Energy =                       -232.2305245825921816
    Molecular point group: c1
  Basis Set: CC-PVTZ
  Basis Set:
  Basis Set: CC-PVTZ
  Basis Set:
  @DF-RHF Final Energy:  -232.23192530801239
    Total Energy =                       -232.2319253080124781
  Basis Set: CC-PVTZ
  Basis Set:
  Basis Set: CC-PVTZ
  Basis Set:
  @DF-RHF Final Energy:  -232.23236946870335
    Total Energy =                       -232.2323694687033253
  Basis Set: CC-PVTZ
  Basis Set:
  Basis Set: CC-PVTZ
  Basis Set:
  @DF-RHF Final Energy:  -232.23240601880698
    Total Energy =                       -232.2324060188070689
  Basis Set: CC-PVTZ
  Basis Set:
  Basis Set: CC-PVTZ
  Basis Set:
  @DF-RHF Final Energy:  -232.23241115061634
    Total Energy =                       -232.2324111506164286
  Basis Set: CC-PVTZ
  Basis Set:
  Basis Set: CC-PVTZ
  Basis Set:
  @DF-RHF Final Energy:  -232.23241568074405
    Total Energy =                       -232.2324156807441113
  Basis Set: CC-PVTZ
  Basis Set:
  Charge       = 0
  Multiplicity = 1
  Basis Set: CC-PVTZ
  Basis Set:

    Orbital Energies (a.u.)
    -----------------------

    Doubly Occupied:

       1A    -20.546827     2A    -11.264978     3A    -11.211305
       4A    -11.209140     5A    -11.200607     6A     -1.364319
       7A     -1.062296     8A     -0.971360     9A     -0.871501
      10A     -0.771053    11A     -0.708607    12A     -0.650492
      13A     -0.609713    14A     -0.572617    15A     -0.561635
      16A     -0.531614    17A     -0.516980    18A     -0.476063
      19A     -0.459673    20A     -0.452907    21A     -0.433263

  @DF-RHF Final Energy:  -232.23241583161754

   => Energetics <=

    Nuclear Repulsion Energy =            193.2154809845661418
    One-Electron Energy =                -698.0018916885564977
    Two-Electron Energy =                 272.5539948723726411
    DFT Exchange-Correlation Energy =       0.0000000000000000
    Empirical Dispersion Energy =           0.0000000000000000
    PCM Polarization Energy =               0.0000000000000000
    EFP Energy =                            0.0000000000000000
    Total Energy =                       -232.2324158316176863
    Molecular point group: c1
  Basis Set: CC-PVTZ
  Basis Set:

  -Total Gradient:
     Atom            X                  Y                   Z
    ------   -----------------  -----------------  -----------------
       1        0.000011312183    -0.000013536690     0.000002255347
       2       -0.000016460932    -0.000009423221     0.000025195640
       3        0.000023295225     0.000017402073    -0.000028270010
       4       -0.002789603714     0.007532859001    -0.003476871182
       5       -0.000006512227     0.000004043577     0.000000019490
       6        0.000004769106    -0.000017042680    -0.000007619574
       7        0.001504200182    -0.006992957755     0.005064934155
       8        0.002109634561    -0.005245245164     0.002148516966
       9       -0.000002030227     0.000010880311    -0.000002232428
      10       -0.000005073461     0.000014956589    -0.000004929076
      11       -0.000842513934     0.004715063808    -0.003728072549
      12        0.000002394910    -0.000005300216    -0.000004123435
      13        0.000007517362     0.000000065811     0.000005402815
      14        0.000000025569    -0.000004272183     0.000006403388
      15       -0.000000954604    -0.000007493262    -0.000000609547

  **** Optimization is complete! (in 7 steps) ****
    Final optimized geometry and variables:
    Molecular point group: c1

    Geometry (in Angstrom), charge = 0, multiplicity = 1:

    H            1.743877909192    -1.290959687237     1.309497189584
    O            1.392203445415    -0.875097359325     0.544226629838
    C            0.836627258090     0.370707678036     0.881543388094
    C            0.274862914637     1.012725826073    -0.375224519834
    H            1.601247028954     1.022884616498     1.296285588323
    H            0.066354472210     0.251638095282     1.637720342190
    C           -0.891632718375     0.265607000234    -1.056512719404
    H            1.107842573307     1.065577461462    -1.067257391193
    H           -0.021518269980     2.025468705259    -0.123934398409
    C           -1.776421709382    -0.594292803331    -0.160412803763
    H           -0.507374468417    -0.320006064462    -1.883082365700
    H           -1.520606324701     1.014435688681    -1.530583836432
    H           -2.588779875181    -1.019594237639    -0.738514842403
    H           -1.222552285203    -1.410056630118     0.284295814745
    H           -2.220025816259    -0.009657993216     0.639374049694

  Mulliken Charges: (a.u.)
   Center  Symbol    Alpha    Beta     Spin     Total
       1     H     0.39462  0.39462  0.00000  0.21077
       2     O     4.20259  4.20259  0.00000 -0.40518
       3     C     2.98223  2.98223  0.00000  0.03554
       4     C     3.09724  3.09724  0.00000 -0.19448
       5     H     0.45804  0.45804  0.00000  0.08392
       6     H     0.46750  0.46750  0.00000  0.06499
       7     C     3.08007  3.08007  0.00000 -0.16014
       8     H     0.45066  0.45066  0.00000  0.09867
       9     H     0.45133  0.45133  0.00000  0.09734
      10     C     3.15993  3.15993  0.00000 -0.31986
      11     H     0.45024  0.45024  0.00000  0.09951
      12     H     0.45444  0.45444  0.00000  0.09112
      13     H     0.44629  0.44629  0.00000  0.10742
      14     H     0.44793  0.44793  0.00000  0.10414
      15     H     0.45688  0.45688  0.00000  0.08623

   Total alpha = 21.00000, Total beta = 21.00000, Total charge = -0.00000
