  ==> Input File <==

--------------------------------------------------------------------------
set {
	reference rhf
	basis 6-31G*
}

set_num_threads( 4 )
memory 2 gb

molecule MOL {
0 1

H	 -1.034239	 0.880542	 -0.448391
N	 -0.712432	 0.000013	 -0.096310
C	 0.734192	 -0.000004	 0.040609
H	 -1.005695	 -0.699213	 -0.750479
H	 1.139899	 -0.873598	 -0.456463
H	 1.139939	 0.873831	 -0.456100
H	 1.096456	 -0.000300	 1.069655

	symmetry c1
}
set optking {
	frozen_dihedral = ("
		1 2 3 7
	")
}

ee = optimize('scf')
oeprop('DIPOLE', 'QUADRUPOLE', 'MULLIKEN_CHARGES')
f=open( 'psi4out.xyz', 'w' )
f.write( "7  " )
f.write( str(ee) + "\n" )
f.write( MOL.save_string_xyz() )
f.close()
--------------------------------------------------------------------------

    Molecular point group: c1
  Charge       = 0
  Multiplicity = 1
  Basis Set: 6-31G*
  Basis Set:
  @DF-RHF Final Energy:   -95.20498792559516
    Total Energy =                        -95.2049879255951907
    Molecular point group: c1
  Basis Set: 6-31G*
  Basis Set:
  Basis Set: 6-31G*
  Basis Set:
  @DF-RHF Final Energy:   -95.20612304819264
    Total Energy =                        -95.2061230481926088
  Basis Set: 6-31G*
  Basis Set:
  Basis Set: 6-31G*
  Basis Set:
  @DF-RHF Final Energy:   -95.20630330791042
    Total Energy =                        -95.2063033079103889
  Basis Set: 6-31G*
  Basis Set:
  Basis Set: 6-31G*
  Basis Set:
  @DF-RHF Final Energy:   -95.20630503474800
    Total Energy =                        -95.2063050347480555
  Basis Set: 6-31G*
  Basis Set:
  Charge       = 0
  Multiplicity = 1
  Basis Set: 6-31G*
  Basis Set:

    Orbital Energies (a.u.)
    -----------------------

    Doubly Occupied:

       1A    -15.532873     2A    -11.237527     3A     -1.167881
       4A     -0.897639     5A     -0.662930     6A     -0.600345
       7A     -0.558692     8A     -0.517665     9A     -0.381293

  @DF-RHF Final Energy:   -95.20630526018375

   => Energetics <=

    Nuclear Repulsion Energy =             42.2390658464870938
    One-Electron Energy =                -211.7770550617507581
    Two-Electron Energy =                  74.3316839550799671
    DFT Exchange-Correlation Energy =       0.0000000000000000
    Empirical Dispersion Energy =           0.0000000000000000
    PCM Polarization Energy =               0.0000000000000000
    EFP Energy =                            0.0000000000000000
    Total Energy =                        -95.2063052601837114
    Molecular point group: c1
  Basis Set: 6-31G*
  Basis Set:

  -Total Gradient:
     Atom            X                  Y                   Z
    ------   -----------------  -----------------  -----------------
       1        0.000130655040    -0.000659773078    -0.001884606421
       2       -0.000128671209     0.000364964252     0.002355188139
       3       -0.000022364847     0.002136068644    -0.000437972792
       4        0.000008373058     0.000002690973     0.000001247214
       5        0.000012831070    -0.000003384087    -0.000002084960
       6       -0.000008247220    -0.000002240892    -0.000006725695
       7        0.000007424108    -0.001838325812    -0.000025045485

  **** Optimization is complete! (in 5 steps) ****
    Final optimized geometry and variables:
    Molecular point group: c1

    Geometry (in Angstrom), charge = 0, multiplicity = 1:

    H           -1.069640278664     0.865130362765    -0.356005367702
    N           -0.722183099271    -0.011019579522    -0.022379648484
    C            0.734426711288     0.001449388245     0.083425507137
    H           -1.026856852694    -0.703195634543    -0.676103131145
    H            1.158936606144    -0.883389329090    -0.379120093770
    H            1.187280344357     0.865381176822    -0.395514932878
    H            1.039852087960    -0.008074295785     1.124360979091

  Mulliken Charges: (a.u.)
   Center  Symbol    Alpha    Beta     Spin     Total
       1     H     0.33183  0.33183  0.00000  0.33633
       2     N     3.92310  3.92310  0.00000 -0.84619
       3     C     3.14660  3.14660  0.00000 -0.29320
       4     H     0.33188  0.33188  0.00000  0.33623
       5     H     0.42329  0.42329  0.00000  0.15343
       6     H     0.42708  0.42708  0.00000  0.14584
       7     H     0.41622  0.41622  0.00000  0.16756

   Total alpha =  9.00000, Total beta =  9.00000, Total charge =  0.00000
