                              Psi4 1.0.54 Driver

  ==> Input File <==

--------------------------------------------------------------------------
set {
	reference rhf
	basis cc-pvtz
}

set_num_threads( 4 )
memory 2 gb

molecule MOL {
0 1

H	 3.273419	 0.176595	 -0.102789
N	 2.433987	 -0.362316	 -0.080024
C	 1.263552	 0.494993	 0.021953
H	 2.497638	 -0.973615	 0.707122
C	 -0.016533	 -0.325589	 -0.026925
H	 1.280915	 1.180773	 -0.818522
H	 1.263064	 1.106893	 0.925038
C	 -1.280353	 0.525521	 0.047747
H	 -0.016686	 -0.912532	 -0.939714
H	 -0.014099	 -1.037598	 0.796369
C	 -2.557235	 -0.283193	 -0.156075
H	 -1.229392	 1.310162	 -0.702392
H	 -1.323492	 1.027630	 1.010503
H	 -2.560184	 -0.771133	 -1.124907
H	 -3.435932	 0.349137	 -0.101281
H	 -2.656924	 -1.054157	 0.600798

	symmetry c1
}
set optking {
	frozen_dihedral = ("
		12 8 5 9
	")
}

ee,wfn = optimize('scf', return_wfn=True)
oeprop( wfn, 'DIPOLE', 'QUADRUPOLE', 'MULLIKEN_CHARGES')
f=open( 'psi4out.xyz', 'w' )
f.write( "16  " )
f.write( str(ee) + "\n" )
f.write( MOL.save_string_xyz() )
f.close()
--------------------------------------------------------------------------

    Molecular point group: c1
  Charge       = 0
  Multiplicity = 1
  Basis Set: CC-PVTZ
  Basis Set:
  @DF-RHF Final Energy:  -212.40018341996733
    Total Energy =                       -212.4001834199673340
    Molecular point group: c1
  Basis Set: CC-PVTZ
  Basis Set:
  Basis Set: CC-PVTZ
  Basis Set:
  @DF-RHF Final Energy:  -212.40020261803383
    Total Energy =                       -212.4002026180338589
  Basis Set: CC-PVTZ
  Basis Set:
  Basis Set: CC-PVTZ
  Basis Set:
  @DF-RHF Final Energy:  -212.40020856796872
    Total Energy =                       -212.4002085679687184
  Basis Set: CC-PVTZ
  Basis Set:
  Charge       = 0
  Multiplicity = 1
  Basis Set: CC-PVTZ
  Basis Set:

    Orbital Energies (a.u.)
    -----------------------

    Doubly Occupied:

       1A    -15.526589     2A    -11.238179     3A    -11.212954
       4A    -11.207912     5A    -11.205923     6A     -1.178350
       7A     -1.060802     8A     -0.959857     9A     -0.844366
      10A     -0.792526    11A     -0.665489    12A     -0.637428
      13A     -0.608258    14A     -0.575620    15A     -0.565229
      16A     -0.526942    17A     -0.499675    18A     -0.470947
      19A     -0.465213    20A     -0.462413    21A     -0.384024

  @DF-RHF Final Energy:  -212.40020864567722

   => Energetics <=

    Nuclear Repulsion Energy =            186.5603343514588062
    One-Electron Energy =                -655.7436918308748091
    Two-Electron Energy =                 256.7831488337387214
    DFT Exchange-Correlation Energy =       0.0000000000000000
    Empirical Dispersion Energy =           0.0000000000000000
    PCM Polarization Energy =               0.0000000000000000
    EFP Energy =                            0.0000000000000000
    Total Energy =                       -212.4002086456773100
    Molecular point group: c1
  Basis Set: CC-PVTZ
  Basis Set:

  -Total Gradient:
     Atom            X                  Y                   Z
    ------   -----------------  -----------------  -----------------
       1        0.000012769933    -0.000001330542     0.000001974193
       2        0.000012904357    -0.000007203234    -0.000003614206
       3       -0.000011127195     0.000009133298    -0.000007636873
       4        0.000001787149    -0.000002532403     0.000002636317
       5        0.000768636212     0.001201261578    -0.000466656871
       6       -0.000005201104     0.000001429258     0.000002616690
       7       -0.000005445892    -0.000010005362    -0.000006584693
       8       -0.000741642001    -0.001028368900    -0.000801304790
       9       -0.000522803296    -0.000827093914     0.000534099869
      10        0.000002422415    -0.000004149243     0.000001603398
      11       -0.000016507701    -0.000007826232     0.000000021059
      12        0.000491890626     0.000669142491     0.000739726853
      13       -0.000001167313    -0.000002547384    -0.000001313687
      14        0.000001547839     0.000009369210     0.000009381768
      15        0.000007824808    -0.000005026422     0.000001612038
      16        0.000004111165     0.000005747801    -0.000006561063

  **** Optimization is complete! (in 4 steps) ****
    Final optimized geometry and variables:
    Molecular point group: c1

    Geometry (in Angstrom), charge = 0, multiplicity = 1:

    H            3.274871209277     0.168564197440    -0.033378501760
    N            2.434155846338    -0.368783305780    -0.022562366346
    C            1.263668388347     0.490825198692     0.056109580586
    H            2.483598991411    -0.976790601235     0.768143431966
    C           -0.016581823224    -0.327223756510    -0.012821931035
    H            1.296683733795     1.173983515491    -0.785921082602
    H            1.248119650726     1.105649765167     0.957219253079
    C           -1.281522670869     0.522530370308     0.064877873268
    H           -0.013155925499    -0.909971590861    -0.928325897429
    H           -0.021764790764    -1.047968068600     0.803033079203
    C           -2.558971515641    -0.286317072107    -0.131018936658
    H           -1.232554869010     1.312286290941    -0.680177540916
    H           -1.319000572105     1.023776327260     1.028455972671
    H           -2.574257431303    -0.762612759034    -1.105400747814
    H           -3.438237368396     0.343125258324    -0.055974787401
    H           -2.646056310023    -1.066563530234     0.617927925319

  Mulliken Charges: (a.u.)
   Center  Symbol    Alpha    Beta     Spin     Total
       1     H     0.43019  0.43019  0.00000  0.13962
       2     N     3.68922  3.68922  0.00000 -0.37845
       3     C     3.02625  3.02625  0.00000 -0.05250
       4     H     0.43090  0.43090  0.00000  0.13819
       5     C     3.07986  3.07986  0.00000 -0.15972
       6     H     0.45695  0.45695  0.00000  0.08610
       7     H     0.46889  0.46889  0.00000  0.06221
       8     C     3.08860  3.08860  0.00000 -0.17720
       9     H     0.44988  0.44988  0.00000  0.10025
      10     H     0.46050  0.46050  0.00000  0.07900
      11     C     3.14905  3.14905  0.00000 -0.29809
      12     H     0.45530  0.45530  0.00000  0.08939
      13     H     0.45613  0.45613  0.00000  0.08775
      14     H     0.45412  0.45412  0.00000  0.09176
      15     H     0.44881  0.44881  0.00000  0.10237
      16     H     0.45535  0.45535  0.00000  0.08930

   Total alpha = 21.00000, Total beta = 21.00000, Total charge = -0.00000

*** Psi4 exiting successfully. Buy a developer a beer!
