  ==> Input File <==

--------------------------------------------------------------------------
set {
	reference rhf
	basis 6-31G*
}

set_num_threads( 4 )
memory 2 gb

molecule MOL {
0 1

H	 1.347721	 -1.546973	 0.309195
O	 1.586534	 -0.678666	 -0.000226
C	 0.489431	 0.077273	 0.000046
C	 -0.764129	 -0.759190	 0.000191
O	 0.537743	 1.263962	 0.000257
C	 -2.038368	 0.075731	 -0.000248
H	 -0.717284	 -1.412404	 -0.866059
H	 -0.717458	 -1.411724	 0.866967
H	 -2.086483	 0.712501	 -0.875098
H	 -2.908485	 -0.571682	 -0.000042
H	 -2.086576	 0.713280	 0.874068

	symmetry c1
}
set optking {
	frozen_dihedral = ("
		1 2 3 5
	")
}

ee = optimize('scf')
oeprop('DIPOLE', 'QUADRUPOLE', 'MULLIKEN_CHARGES')
f=open( 'psi4out.xyz', 'w' )
f.write( "11  " )
f.write( str(ee) + "\n" )
f.write( MOL.save_string_xyz() )
f.close()
--------------------------------------------------------------------------

    Molecular point group: c1
  Charge       = 0
  Multiplicity = 1
  Basis Set: 6-31G*
  Basis Set:
  @DF-RHF Final Energy:  -266.83208797608671
    Total Energy =                       -266.8320879760868252
    Molecular point group: c1
  Basis Set: 6-31G*
  Basis Set:
  Basis Set: 6-31G*
  Basis Set:
  @DF-RHF Final Energy:  -266.83348973233956
    Total Energy =                       -266.8334897323393875
  Basis Set: 6-31G*
  Basis Set:
  Basis Set: 6-31G*
  Basis Set:
  @DF-RHF Final Energy:  -266.83367898850463
    Total Energy =                       -266.8336789885044027
  Basis Set: 6-31G*
  Basis Set:
  Basis Set: 6-31G*
  Basis Set:
  @DF-RHF Final Energy:  -266.83367998515507
    Total Energy =                       -266.8336799851550154
  Basis Set: 6-31G*
  Basis Set:
  Basis Set: 6-31G*
  Basis Set:
  @DF-RHF Final Energy:  -266.83367487771875
    Total Energy =                       -266.8336748777188632
  Basis Set: 6-31G*
  Basis Set:
  Charge       = 0
  Multiplicity = 1
  Basis Set: 6-31G*
  Basis Set:

    Orbital Energies (a.u.)
    -----------------------

    Doubly Occupied:

       1A    -20.612044     2A    -20.550114     3A    -11.381583
       4A    -11.255925     5A    -11.226406     6A     -1.468490
       7A     -1.371334     8A     -1.069312     9A     -0.908774
      10A     -0.828402    11A     -0.718635    12A     -0.667551
      13A     -0.657486    14A     -0.612293    15A     -0.591992
      16A     -0.534090    17A     -0.527231    18A     -0.513555
      19A     -0.477630    20A     -0.442541

  @DF-RHF Final Energy:  -266.83368295758078

   => Energetics <=

    Nuclear Repulsion Energy =            179.6027385968122303
    One-Electron Energy =                -720.0420646332133856
    Two-Electron Energy =                 273.6056430788201510
    DFT Exchange-Correlation Energy =       0.0000000000000000
    Empirical Dispersion Energy =           0.0000000000000000
    PCM Polarization Energy =               0.0000000000000000
    EFP Energy =                            0.0000000000000000
    Total Energy =                       -266.8336829575809475
    Molecular point group: c1
  Basis Set: 6-31G*
  Basis Set:

  -Total Gradient:
     Atom            X                  Y                   Z
    ------   -----------------  -----------------  -----------------
       1        0.000830421913     0.001327641769     0.004344637821
       2       -0.001071673203    -0.001663043209    -0.003689756522
       3        0.000269598891     0.000322763519    -0.004706769121
       4        0.000008997992     0.000015805595     0.000018122769
       5       -0.000002695286     0.000015407090     0.004023710115
       6       -0.000008996344    -0.000010040654     0.000005268431
       7       -0.000002021677    -0.000000032029     0.000009715935
       8       -0.000009279411    -0.000001281440    -0.000003367989
       9        0.000004166260    -0.000006131163     0.000007138081
      10       -0.000021499766     0.000003176393    -0.000000968243
      11        0.000002980630    -0.000004265872    -0.000007731276

  **** Optimization is complete! (in 6 steps) ****
    Final optimized geometry and variables:
    Molecular point group: c1

    Geometry (in Angstrom), charge = 0, multiplicity = 1:

    H            1.496622254197    -1.521871469566     0.295385502327
    O            1.636117475385    -0.633090410226    -0.003337911517
    C            0.501190024943     0.079928090902    -0.003184891416
    C           -0.771299613078    -0.743435857037    -0.004502323210
    O            0.536757269988     1.260332792665    -0.000761363141
    C           -2.034115545783     0.108681677280    -0.008714203497
    H           -0.739902325673    -1.398005748070    -0.872190437820
    H           -0.753405650264    -1.395150381372     0.867702544914
    H           -2.066216872569     0.744763342498    -0.884147678915
    H           -2.913705255038    -0.525674757789    -0.011066116781
    H           -2.072477257849     0.747366415644     0.864663525629

  Mulliken Charges: (a.u.)
   Center  Symbol    Alpha    Beta     Spin     Total
       1     H     0.26902  0.26902  0.00000  0.46195
       2     O     4.35231  4.35231  0.00000 -0.70462
       3     C     2.61153  2.61153  0.00000  0.77694
       4     C     3.23184  3.23184  0.00000 -0.46368
       5     O     4.26067  4.26067  0.00000 -0.52134
       6     C     3.23672  3.23672  0.00000 -0.47345
       7     H     0.40026  0.40026  0.00000  0.19947
       8     H     0.40854  0.40854  0.00000  0.18293
       9     H     0.40560  0.40560  0.00000  0.18879
      10     H     0.41696  0.41696  0.00000  0.16608
      11     H     0.40654  0.40654  0.00000  0.18692

   Total alpha = 20.00000, Total beta = 20.00000, Total charge =  0.00000
