  ==> Input File <==

--------------------------------------------------------------------------
set {
	reference rhf
	basis 6-31G*
}

set_num_threads( 1 )
memory 2 gb

molecule MOL {
0 1

H	 -2.798360	 -0.862255	 -0.071053
N	 -1.863561	 -0.715187	 0.256814
C	 -1.344686	 0.554728	 -0.219830
H	 -1.300452	 -1.461917	 -0.101532
C	 0.081427	 0.741154	 0.254071
H	 -1.362155	 0.656231	 -1.305829
H	 -1.952773	 1.354456	 0.191809
O	 0.874168	 -0.245412	 -0.342030
H	 0.444037	 1.730782	 -0.023037
H	 0.121165	 0.653424	 1.337565
C	 0.639507	 -1.533618	 0.130230
H	 1.304849	 -2.202944	 -0.397993
H	 0.840061	 -1.608939	 1.197510
H	 -0.388074	 -1.842250	 -0.050419

	symmetry c1
}
set optking {
	frozen_dihedral = ("
		8 5 3 6,
		6 3 2 4,
		5 8 11 13
	")
}

ee = energy('scf')
oeprop('DIPOLE', 'QUADRUPOLE', 'MULLIKEN_CHARGES')
f=open( 'psi4out.xyz', 'w' )
f.write( "14  " )
f.write( str(ee) + "\n" )
f.write( MOL.save_string_xyz() )
f.close()
--------------------------------------------------------------------------

    Molecular point group: c1

    Geometry (in Angstrom), charge = 0, multiplicity = 1:

       Center              X                  Y                   Z               Mass
    ------------   -----------------  -----------------  -----------------  -----------------
           H         -2.468928385361    -0.590443678499    -0.082804920260     1.007825032070
           N         -1.534129385361    -0.443375678499     0.245062079740    14.003074004780
           C         -1.015254385361     0.826539321501    -0.231581920260    12.000000000000
           H         -0.971020385361    -1.190105678499    -0.113283920260     1.007825032070
           C          0.410858614639     1.012965321501     0.242319079740    12.000000000000
           H         -1.032723385361     0.928042321501    -1.317580920260     1.007825032070
           H         -1.623341385361     1.626267321501     0.180057079740     1.007825032070
           O          1.203599614639     0.026399321501    -0.353781920260    15.994914619560
           H          0.773468614639     2.002593321501    -0.034788920260     1.007825032070
           H          0.450596614639     0.925235321501     1.325813079740     1.007825032070
           C          0.968938614639    -1.261806678499     0.118478079740    12.000000000000
           H          1.634280614639    -1.931132678499    -0.409744920260     1.007825032070
           H          1.169492614639    -1.337127678499     1.185758079740     1.007825032070
           H         -0.058642385361    -1.570438678499    -0.062170920260     1.007825032070

  Charge       = 0
  Multiplicity = 1
  Basis Set: 6-31G*
  Basis Set:

    Orbital Energies (a.u.)
    -----------------------

    Doubly Occupied:

       1A    -20.557930     2A    -15.530150     3A    -11.267725
       4A    -11.263336     5A    -11.242314     6A     -1.385583
       7A     -1.189084     8A     -1.013762     9A     -0.908145
      10A     -0.832575    11A     -0.732260    12A     -0.678137
      13A     -0.639781    14A     -0.599065    15A     -0.589129
      16A     -0.572970    17A     -0.534532    18A     -0.510435
      19A     -0.459859    20A     -0.399664    21A     -0.388289

  @DF-RHF Final Energy:  -248.05793220303104

   => Energetics <=

    Nuclear Repulsion Energy =            203.3731744085267223
    One-Electron Energy =                -740.2726647723042106
    Two-Electron Energy =                 288.8415581607463309
    DFT Exchange-Correlation Energy =       0.0000000000000000
    Empirical Dispersion Energy =           0.0000000000000000
    PCM Polarization Energy =               0.0000000000000000
    EFP Energy =                            0.0000000000000000
    Total Energy =                       -248.0579322030311005

  Mulliken Charges: (a.u.)
   Center  Symbol    Alpha    Beta     Spin     Total
       1     H     0.33295  0.33295  0.00000  0.33409
       2     N     3.93135  3.93135  0.00000 -0.86271
       3     C     3.07333  3.07333  0.00000 -0.14667
       4     H     0.31181  0.31181  0.00000  0.37638
       5     C     3.00103  3.00103  0.00000 -0.00206
       6     H     0.42538  0.42538  0.00000  0.14923
       7     H     0.42113  0.42113  0.00000  0.15774
       8     O     4.30513  4.30513  0.00000 -0.61025
       9     H     0.41333  0.41333  0.00000  0.17333
      10     H     0.42181  0.42181  0.00000  0.15638
      11     C     3.06740  3.06740  0.00000 -0.13479
      12     H     0.41201  0.41201  0.00000  0.17597
      13     H     0.42166  0.42166  0.00000  0.15668
      14     H     0.46167  0.46167  0.00000  0.07666

   Total alpha = 21.00000, Total beta = 21.00000, Total charge =  0.00000
