                              Psi4 1.0.54 Driver

  ==> Input File <==

--------------------------------------------------------------------------
set {
	reference rhf
	basis cc-pvtz
}

set_num_threads( 4 )
memory 2 gb

molecule MOL {
0 1

O	 1.313941	 1.141414	 0.575440
C	 1.121787	 0.124983	 0.000110
C	 -0.170912	 -0.649867	 -0.000147
O	 2.042502	 -0.475999	 -0.735745
C	 -1.413045	 0.229353	 0.001137
H	 -0.152877	 -1.303435	 -0.866175
H	 -0.152278	 -1.305116	 0.864586
C	 -2.702562	 -0.586401	 0.000228
H	 -1.390744	 0.882001	 -0.864365
H	 -1.390549	 0.879837	 0.868264
C	 -3.953810	 0.284959	 -0.000782
H	 -2.717793	 -1.238567	 -0.869075
H	 -2.719108	 -1.238472	 0.869576
H	 -3.983727	 0.924403	 -0.876454
H	 -4.852989	 -0.320147	 -0.001515
H	 -3.985140	 0.924399	 0.874841
C	 3.309224	 0.144415	 -0.824183
H	 3.221929	 1.129476	 -1.258075
H	 3.907589	 -0.489686	 -1.458015
H	 3.761676	 0.228563	 0.152765

	symmetry c1
}
set optking {
	frozen_dihedral = ("
		1 2 3 6
	")
}

ee,wfn = optimize('scf', return_wfn=True)
oeprop( wfn, 'DIPOLE', 'QUADRUPOLE', 'MULLIKEN_CHARGES')
f=open( 'psi4out.xyz', 'w' )
f.write( "20  " )
f.write( str(ee) + "\n" )
f.write( MOL.save_string_xyz() )
f.close()
--------------------------------------------------------------------------

    Molecular point group: c1
  Charge       = 0
  Multiplicity = 1
  Basis Set: CC-PVTZ
  Basis Set:
  @DF-RHF Final Energy:  -384.08210023609854
    Total Energy =                       -384.0821002360984266
    Molecular point group: c1
  Basis Set: CC-PVTZ
  Basis Set:
  Basis Set: CC-PVTZ
  Basis Set:
  @DF-RHF Final Energy:  -383.75820124660612
    Total Energy =                       -383.7582012466061769
  Basis Set: CC-PVTZ
  Basis Set:
  Basis Set: CC-PVTZ
  Basis Set:
  @DF-RHF Final Energy:  -383.93319031850911
    Total Energy =                       -383.9331903185090482
  Basis Set: CC-PVTZ
  Basis Set:
  Basis Set: CC-PVTZ
  Basis Set:
  @DF-RHF Final Energy:  -384.05955948444000
    Total Energy =                       -384.0595594844401717
  Basis Set: CC-PVTZ
  Basis Set:
  @DF-RHF Final Energy:  -384.07842441807418
    Total Energy =                       -384.0784244180738369
  @DF-RHF Final Energy:  -384.08156000596694
    Total Energy =                       -384.0815600059668213
  @DF-RHF Final Energy:  -384.08093693093286
    Total Energy =                       -384.0809369309329213
  Basis Set: CC-PVTZ
  Basis Set:
  @DF-RHF Final Energy:  -384.08246336588923
    Total Energy =                       -384.0824633658893390
  Basis Set: CC-PVTZ
  Basis Set:
  Basis Set: CC-PVTZ
  Basis Set:
  @DF-RHF Final Energy:  -384.08248603384959
    Total Energy =                       -384.0824860338498183
  Basis Set: CC-PVTZ
  Basis Set:
  Basis Set: CC-PVTZ
  Basis Set:
  @DF-RHF Final Energy:  -384.08248951537428
    Total Energy =                       -384.0824895153738225
  Basis Set: CC-PVTZ
  Basis Set:
  Charge       = 0
  Multiplicity = 1
  Basis Set: CC-PVTZ
  Basis Set:

    Orbital Energies (a.u.)
    -----------------------

    Doubly Occupied:

       1A    -20.598066     2A    -20.532499     3A    -11.364655
       4A    -11.278641     5A    -11.233327     6A    -11.219945
       7A    -11.218982     8A    -11.209451     9A     -1.472730
      10A     -1.365272    11A     -1.090460    12A     -1.025286
      13A     -0.970373    14A     -0.887277    15A     -0.805093
      16A     -0.771600    17A     -0.698460    18A     -0.685577
      19A     -0.675835    20A     -0.647685    21A     -0.599123
      22A     -0.593279    23A     -0.577845    24A     -0.547567
      25A     -0.535524    26A     -0.524665    27A     -0.501733
      28A     -0.478685    29A     -0.477199    30A     -0.471234
      31A     -0.459972    32A     -0.437972

  @DF-RHF Final Energy:  -384.08248972078047

   => Energetics <=

    Nuclear Repulsion Energy =            381.7812677799164476
    One-Electron Energy =               -1279.8154989966938047
    Two-Electron Energy =                 513.9517414959968846
    DFT Exchange-Correlation Energy =       0.0000000000000000
    Empirical Dispersion Energy =           0.0000000000000000
    PCM Polarization Energy =               0.0000000000000000
    EFP Energy =                            0.0000000000000000
    Total Energy =                       -384.0824897207804725
    Molecular point group: c1
  Basis Set: CC-PVTZ
  Basis Set:

  -Total Gradient:
     Atom            X                  Y                   Z
    ------   -----------------  -----------------  -----------------
       1        0.000272450102    -0.000952310508     0.000407647397
       2       -0.000317165753     0.001159742891    -0.000528913234
       3       -0.000356109407     0.000765824485     0.000104871431
       4        0.000030024500     0.000005941186    -0.000047918643
       5        0.000017993693    -0.000014587060    -0.000011902668
       6        0.000391059848    -0.000958803724     0.000057885811
       7        0.000003574609     0.000001604750    -0.000002850230
       8        0.000003013366     0.000008428580     0.000010307534
       9       -0.000004416400     0.000002298895     0.000003287501
      10       -0.000006815999     0.000002409016     0.000000485662
      11        0.000003366899    -0.000004486768    -0.000006174771
      12        0.000002105145     0.000000689312     0.000004182910
      13       -0.000001986959     0.000002688405    -0.000000742815
      14        0.000001296474    -0.000005103738     0.000001717477
      15        0.000003358251     0.000004296801     0.000002629844
      16       -0.000000247327    -0.000002006671    -0.000004133912
      17       -0.000030516989    -0.000025323242     0.000002344742
      18       -0.000002809122    -0.000002053879     0.000003484681
      19       -0.000010963732     0.000001629633     0.000008033467
      20        0.000002788802     0.000009121634    -0.000004242184

  **** Optimization is complete! (in 11 steps) ****
    Final optimized geometry and variables:
    Molecular point group: c1

    Geometry (in Angstrom), charge = 0, multiplicity = 1:

    O            1.355869787069     0.500985290852     1.125771438480
    C            1.137783815868    -0.023911101633     0.086792282043
    C           -0.192274718898    -0.607327822571    -0.319285269777
    O            2.062049300758    -0.201022004046    -0.841566166198
    C           -1.383316915303     0.174902206126     0.223268590408
    H           -0.224451043318    -0.695979691999    -1.396731454762
    H           -0.203651168730    -1.620973110251     0.073280565095
    C           -2.717498314330    -0.472945235844    -0.134198173111
    H           -1.355718509309     1.187398173846    -0.169031033347
    H           -1.289602045309     0.261590987613     1.298508340572
    C           -3.915056550791     0.307345430759     0.396743615852
    H           -2.798466016954    -0.566274734482    -1.213835729580
    H           -2.742814621336    -1.484678310342     0.261722256266
    H           -3.937364271600     1.313180475622    -0.008914392366
    H           -4.847361159190    -0.177210399307     0.131054114953
    H           -3.879750876552     0.388884099269     1.477719142836
    C            3.369450068850     0.249171917730    -0.547691882640
    H            3.373935273142     1.313707085537    -0.367049806122
    H            3.966147018362     0.015641478020    -1.414423624744
    H            3.760373649618    -0.257476796902     0.322180835724

  Mulliken Charges: (a.u.)
   Center  Symbol    Alpha    Beta     Spin     Total
       1     O     4.20058  4.20058  0.00000 -0.40116
       2     C     2.81380  2.81380  0.00000  0.37241
       3     C     3.08907  3.08907  0.00000 -0.17814
       4     O     4.14402  4.14402  0.00000 -0.28804
       5     C     3.08684  3.08684  0.00000 -0.17369
       6     H     0.43793  0.43793  0.00000  0.12413
       7     H     0.44532  0.44532  0.00000  0.10936
       8     C     3.08742  3.08742  0.00000 -0.17485
       9     H     0.45185  0.45185  0.00000  0.09630
      10     H     0.43991  0.43991  0.00000  0.12017
      11     C     3.14910  3.14910  0.00000 -0.29820
      12     H     0.45501  0.45501  0.00000  0.08999
      13     H     0.45416  0.45416  0.00000  0.09168
      14     H     0.45443  0.45443  0.00000  0.09114
      15     H     0.44826  0.44826  0.00000  0.10349
      16     H     0.45326  0.45326  0.00000  0.09347
      17     C     3.03543  3.03543  0.00000 -0.07087
      18     H     0.45418  0.45418  0.00000  0.09164
      19     H     0.44505  0.44505  0.00000  0.10990
      20     H     0.45437  0.45437  0.00000  0.09125

   Total alpha = 32.00000, Total beta = 32.00000, Total charge = -0.00000

*** Psi4 exiting successfully. Buy a developer a beer!
