  ==> Input File <==

--------------------------------------------------------------------------
set {
	reference rhf
	basis 6-31G*
}

set_num_threads( 4 )
memory 2 gb

molecule MOL {
0 1

H	 -0.360334	 -2.521961	 4.359724
C	 0.091294	 -2.118512	 3.471843
C	 -0.319916	 -2.546584	 2.214113
C	 1.087553	 -1.168325	 3.561640
H	 -1.095272	 -3.286651	 2.124939
C	 0.256865	 -2.031533	 1.073393
H	 1.418385	 -0.825324	 4.525997
C	 1.679824	 -0.638565	 2.420137
H	 -0.051216	 -2.353281	 0.095948
C	 1.262478	 -1.072203	 1.171594
H	 2.452015	 0.098889	 2.522851
O	 1.765256	 -0.628444	 0.000000
C	 2.778419	 0.335181	 0.000000
H	 2.731280	 0.961222	 -0.884976
H	 3.711703	 -0.207767	 0.000000
H	 2.731280	 0.961222	 0.884976

	symmetry c1
}
set optking {
	frozen_dihedral = ("
		10 12 13 14
	")
}

ee = optimize('scf')
oeprop('DIPOLE', 'QUADRUPOLE', 'MULLIKEN_CHARGES')
f=open( 'psi4out.xyz', 'w' )
f.write( "16  " )
f.write( str(ee) + "\n" )
f.write( MOL.save_string_xyz() )
f.close()
--------------------------------------------------------------------------

    Molecular point group: c1
  Charge       = 0
  Multiplicity = 1
  Basis Set: 6-31G*
  Basis Set:
  @DF-RHF Final Energy:  -344.57695957065602
    Total Energy =                       -344.5769595706562995
    Molecular point group: c1
  Basis Set: 6-31G*
  Basis Set:
  Basis Set: 6-31G*
  Basis Set:
  @DF-RHF Final Energy:  -344.57827009725344
    Total Energy =                       -344.5782700972533235
  Basis Set: 6-31G*
  Basis Set:
  Basis Set: 6-31G*
  Basis Set:
  @DF-RHF Final Energy:  -344.58051031333156
    Total Energy =                       -344.5805103133315015
  Basis Set: 6-31G*
  Basis Set:
  Basis Set: 6-31G*
  Basis Set:
  @DF-RHF Final Energy:  -344.58082808183076
    Total Energy =                       -344.5808280818308731
  Basis Set: 6-31G*
  Basis Set:
  Basis Set: 6-31G*
  Basis Set:
  @DF-RHF Final Energy:  -344.58095228030624
    Total Energy =                       -344.5809522803063487
  Basis Set: 6-31G*
  Basis Set:
  Basis Set: 6-31G*
  Basis Set:
  @DF-RHF Final Energy:  -344.58096272597777
    Total Energy =                       -344.5809627259778836
  Basis Set: 6-31G*
  Basis Set:
  Basis Set: 6-31G*
  Basis Set:
  @DF-RHF Final Energy:  -344.58096439457523
    Total Energy =                       -344.5809643945750622
  Basis Set: 6-31G*
  Basis Set:
  Charge       = 0
  Multiplicity = 1
  Basis Set: 6-31G*
  Basis Set:

    Orbital Energies (a.u.)
    -----------------------

    Doubly Occupied:

       1A    -20.581822     2A    -11.293076     3A    -11.279184
       4A    -11.232986     5A    -11.231430     6A    -11.224061
       7A    -11.220015     8A    -11.219490     9A     -1.410622
      10A     -1.145853    11A     -1.020847    12A     -1.012853
      13A     -0.940402    14A     -0.830954    15A     -0.804753
      16A     -0.719853    17A     -0.663778    18A     -0.661868
      19A     -0.652912    20A     -0.615519    21A     -0.587841
      22A     -0.578334    23A     -0.524154    24A     -0.517351
      25A     -0.507894    26A     -0.478012    27A     -0.456630
      28A     -0.334465    29A     -0.306326

  @DF-RHF Final Energy:  -344.58096462478295

   => Energetics <=

    Nuclear Repulsion Energy =            347.9225252641542738
    One-Electron Energy =               -1156.9004084497601070
    Two-Electron Energy =                 464.3969185608231669
    DFT Exchange-Correlation Energy =       0.0000000000000000
    Empirical Dispersion Energy =           0.0000000000000000
    PCM Polarization Energy =               0.0000000000000000
    EFP Energy =                            0.0000000000000000
    Total Energy =                       -344.5809646247826663
    Molecular point group: c1
  Basis Set: 6-31G*
  Basis Set:

  -Total Gradient:
     Atom            X                  Y                   Z
    ------   -----------------  -----------------  -----------------
       1       -0.000004536395    -0.000004004201    -0.000003212055
       2        0.000026562539     0.000032709582     0.000020285806
       3        0.000010742122    -0.000013998166    -0.000041933446
       4       -0.000028454850    -0.000025891698     0.000024817436
       5       -0.000001638947     0.000003708198     0.000006296259
       6       -0.000021923604    -0.000018966142     0.000006662313
       7        0.000001704012     0.000001290231    -0.000002505745
       8        0.000006201436    -0.000006761045    -0.000045694106
       9        0.000001464580     0.000002019772    -0.000001172558
      10       -0.002202251141     0.001409456832    -0.000635184883
      11       -0.000000359684    -0.000002683140     0.000002792768
      12        0.002730028641    -0.001705526471     0.001199053406
      13        0.001925093023    -0.001248788416    -0.001293276377
      14       -0.002448185424     0.001610168258     0.000771894700
      15       -0.000000833080    -0.000017102596     0.000000782156
      16        0.000006386768    -0.000015631000    -0.000009605669

  **** Optimization is complete! (in 8 steps) ****
    Final optimized geometry and variables:
    Molecular point group: c1

    Geometry (in Angstrom), charge = 0, multiplicity = 1:

    H           -1.640831286651    -1.197776602429     2.663222997415
    C           -1.126857172800    -0.850989929219     1.785284567402
    C           -1.546215543681    -1.247473289475     0.521113590884
    C           -0.038587983785    -0.008107171071     1.897266628383
    H           -2.391218010420    -1.904740304519     0.416833667816
    C           -0.892254538909    -0.801076423232    -0.608780411378
    H            0.304188215122     0.302157858167     2.868494006224
    C            0.633549963850     0.444597590636     0.768639986540
    H           -1.207938228947    -1.096502991315    -1.592059971281
    C            0.200305243737     0.052148342435    -0.488491515648
    H            1.489180298877     1.083333532217     0.880727450778
    O            0.800018014598     0.421815910527    -1.641474942314
    C            1.554021171770     1.602262892441    -1.692646795502
    H            1.479386871076     1.976917260652    -2.703619116915
    H            2.593210125368     1.415197553424    -1.445158053778
    H            1.156321941696     2.355203073578    -1.022339283879

  Mulliken Charges: (a.u.)
   Center  Symbol    Alpha    Beta     Spin     Total
       1     H     0.40111  0.40111  0.00000  0.19777
       2     C     3.11150  3.11150  0.00000 -0.22301
       3     C     3.09242  3.09242  0.00000 -0.18485
       4     C     3.09165  3.09165  0.00000 -0.18330
       5     H     0.39876  0.39876  0.00000  0.20247
       6     C     3.12522  3.12522  0.00000 -0.25044
       7     H     0.39951  0.39951  0.00000  0.20099
       8     C     3.14058  3.14058  0.00000 -0.28116
       9     H     0.39308  0.39308  0.00000  0.21383
      10     C     2.78528  2.78528  0.00000  0.42944
      11     H     0.39745  0.39745  0.00000  0.20510
      12     O     4.32825  4.32825  0.00000 -0.65650
      13     C     3.08963  3.08963  0.00000 -0.17926
      14     H     0.40717  0.40717  0.00000  0.18566
      15     H     0.41871  0.41871  0.00000  0.16258
      16     H     0.41966  0.41966  0.00000  0.16069

   Total alpha = 29.00000, Total beta = 29.00000, Total charge =  0.00000
