                              Psi4 1.0.54 Driver

  ==> Input File <==

--------------------------------------------------------------------------
set {
	reference rhf
	basis cc-pvtz
}

set_num_threads( 4 )
memory 2 gb

molecule MOL {
0 1

H	 -3.436473	 1.252944	 -1.023892
O	 -3.458596	 0.315260	 -0.960865
C	 -3.176635	 -0.080824	 0.355601
C	 -1.763371	 0.265266	 0.799691
H	 -3.321825	 -1.153438	 0.379502
H	 -3.895468	 0.357385	 1.043382
C	 -0.673390	 -0.426948	 -0.013392
H	 -1.631049	 1.344913	 0.747560
H	 -1.664587	 -0.001624	 1.849167
C	 0.731420	 0.068028	 0.320492
H	 -0.868930	 -0.281563	 -1.070057
H	 -0.728706	 -1.498757	 0.161742
C	 1.817995	 -0.632316	 -0.493094
H	 0.776031	 1.139949	 0.153504
H	 0.925514	 -0.083964	 1.380248
C	 3.249780	 -0.228140	 -0.137451
H	 1.647300	 -0.449213	 -1.551482
H	 1.718765	 -1.705203	 -0.352785
C	 3.604384	 1.220237	 -0.465480
H	 3.933064	 -0.881980	 -0.670737
H	 3.421342	 -0.410102	 0.920319
H	 3.436939	 1.433313	 -1.516497
H	 4.648613	 1.418169	 -0.251820
H	 3.016012	 1.923016	 0.112037

	symmetry c1
}
set optking {
	frozen_dihedral = ("
		11 7 4 3
	")
}

ee,wfn = optimize('scf', return_wfn=True)
oeprop( wfn, 'DIPOLE', 'QUADRUPOLE', 'MULLIKEN_CHARGES')
f=open( 'psi4out.xyz', 'w' )
f.write( "24  " )
f.write( str(ee) + "\n" )
f.write( MOL.save_string_xyz() )
f.close()
--------------------------------------------------------------------------

    Molecular point group: c1
  Charge       = 0
  Multiplicity = 1
  Basis Set: CC-PVTZ
  Basis Set:
  @DF-RHF Final Energy:  -349.38029364894356
    Total Energy =                       -349.3802936489432227
    Molecular point group: c1
  Basis Set: CC-PVTZ
  Basis Set:
  Basis Set: CC-PVTZ
  Basis Set:
  @DF-RHF Final Energy:  -349.38030540295892
    Total Energy =                       -349.3803054029592658
  Basis Set: CC-PVTZ
  Basis Set:
  Basis Set: CC-PVTZ
  Basis Set:
  @DF-RHF Final Energy:  -349.38031272285298
    Total Energy =                       -349.3803127228525796
  Basis Set: CC-PVTZ
  Basis Set:
  Charge       = 0
  Multiplicity = 1
  Basis Set: CC-PVTZ
  Basis Set:

    Orbital Energies (a.u.)
    -----------------------

    Doubly Occupied:

       1A    -20.546489     2A    -11.265587     3A    -11.215156
       4A    -11.212063     5A    -11.210190     6A    -11.209367
       7A    -11.208723     8A    -11.205250     9A     -1.364399
      10A     -1.089744    11A     -1.049319    12A     -0.986719
      13A     -0.915936    14A     -0.851241    15A     -0.801685
      16A     -0.776616    17A     -0.682107    18A     -0.654438
      19A     -0.625746    20A     -0.622108    21A     -0.597495
      22A     -0.585811    23A     -0.559659    24A     -0.540494
      25A     -0.515580    26A     -0.512177    27A     -0.499031
      28A     -0.472356    29A     -0.467964    30A     -0.460989
      31A     -0.456148    32A     -0.451413    33A     -0.421531

  @DF-RHF Final Energy:  -349.38031300449097

   => Energetics <=

    Nuclear Repulsion Energy =            385.1015093736359631
    One-Electron Energy =               -1236.8965760327400858
    Two-Electron Energy =                 502.4147536546128094
    DFT Exchange-Correlation Energy =       0.0000000000000000
    Empirical Dispersion Energy =           0.0000000000000000
    PCM Polarization Energy =               0.0000000000000000
    EFP Energy =                            0.0000000000000000
    Total Energy =                       -349.3803130044913132
    Molecular point group: c1
  Basis Set: CC-PVTZ
  Basis Set:

  -Total Gradient:
     Atom            X                  Y                   Z
    ------   -----------------  -----------------  -----------------
       1        0.000002273032    -0.000022275383     0.000006156093
       2        0.000006718258     0.000025707506     0.000014658233
       3        0.000010956892     0.000593090187    -0.000499294255
       4       -0.000150209692    -0.001086282591     0.000717850518
       5       -0.000016988676     0.000010954314    -0.000005691605
       6        0.000017462977    -0.000003321038    -0.000025180457
       7        0.000758349337     0.001388703342    -0.000149965742
       8        0.000001311409     0.000012455613     0.000001472666
       9        0.000002517556     0.000003229281    -0.000020486482
      10        0.000003210854     0.000037902355    -0.000041025227
      11       -0.000601365099    -0.000929893631     0.000003212027
      12       -0.000009370307    -0.000025367319    -0.000016535521
      13       -0.000012512559    -0.000019494974     0.000015180125
      14        0.000012118955     0.000017981591     0.000001547019
      15       -0.000008478355    -0.000008095062    -0.000019434773
      16        0.000004162085    -0.000006853574    -0.000002251715
      17       -0.000001684743     0.000004752680     0.000011755825
      18       -0.000012880281    -0.000000522046     0.000000605297
      19       -0.000007397228     0.000003965700     0.000007190957
      20       -0.000006083532     0.000004398990     0.000000075793
      21        0.000009500194    -0.000001483995    -0.000003489479
      22        0.000003930382    -0.000004389910     0.000002127846
      23        0.000000513299     0.000002524687     0.000005894110
      24       -0.000006054757     0.000002313277    -0.000004371254

  **** Optimization is complete! (in 4 steps) ****
    Final optimized geometry and variables:
    Molecular point group: c1

    Geometry (in Angstrom), charge = 0, multiplicity = 1:

    H           -3.437985175094     1.177009342405    -0.910775008111
    O           -3.451304416438     0.238360480766    -0.861712113643
    C           -3.161187043929    -0.174289402906     0.447651673080
    C           -1.749224766494     0.179965199722     0.890322149458
    H           -3.297313304996    -1.248423588822     0.456186653138
    H           -3.881374225607     0.247391173069     1.144154120181
    C           -0.657017005879    -0.500365255275     0.069437671889
    H           -1.628795654168     1.261111962750     0.836801623370
    H           -1.642464641236    -0.084664460446     1.939271056113
    C            0.747813956410    -0.009253900964     0.406998098785
    H           -0.857618747675    -0.349975876320    -0.985516639914
    H           -0.711695163308    -1.573988150435     0.235170362283
    C            1.835580055115    -0.718126257187    -0.397492668374
    H            0.797019015247     1.061506745037     0.234457505040
    H            0.936318257060    -0.156165165585     1.468570142952
    C            3.267108230399    -0.314371462416    -0.040141623019
    H            1.668639315531    -0.542671857423    -1.457771865038
    H            1.733494004471    -1.789668440917    -0.249356629637
    C            3.625755858106     1.131094094425    -0.376616570812
    H            3.950703100524    -0.973027902739    -0.567047464042
    H            3.435190011969    -0.489786701741     1.019302709959
    H            3.461486556355     1.337711427637    -1.429410207177
    H            4.669861807630     1.328148976510    -0.161528357935
    H            3.037479846911     1.838935816433     0.194769904799

  Mulliken Charges: (a.u.)
   Center  Symbol    Alpha    Beta     Spin     Total
       1     H     0.39535  0.39535  0.00000  0.20931
       2     O     4.20345  4.20345  0.00000 -0.40689
       3     C     2.97741  2.97741  0.00000  0.04519
       4     C     3.10086  3.10086  0.00000 -0.20172
       5     H     0.45896  0.45896  0.00000  0.08207
       6     H     0.46001  0.46001  0.00000  0.07999
       7     C     3.08965  3.08965  0.00000 -0.17930
       8     H     0.46032  0.46032  0.00000  0.07935
       9     H     0.45272  0.45272  0.00000  0.09455
      10     C     3.09137  3.09137  0.00000 -0.18274
      11     H     0.44520  0.44520  0.00000  0.10961
      12     H     0.45523  0.45523  0.00000  0.08954
      13     C     3.09455  3.09455  0.00000 -0.18910
      14     H     0.45329  0.45329  0.00000  0.09343
      15     H     0.45623  0.45623  0.00000  0.08755
      16     C     3.09015  3.09015  0.00000 -0.18031
      17     H     0.45343  0.45343  0.00000  0.09314
      18     H     0.44976  0.44976  0.00000  0.10048
      19     C     3.15251  3.15251  0.00000 -0.30503
      20     H     0.44860  0.44860  0.00000  0.10279
      21     H     0.45525  0.45525  0.00000  0.08950
      22     H     0.45478  0.45478  0.00000  0.09044
      23     H     0.44663  0.44663  0.00000  0.10674
      24     H     0.45430  0.45430  0.00000  0.09139

   Total alpha = 33.00000, Total beta = 33.00000, Total charge = -0.00000

*** Psi4 exiting successfully. Buy a developer a beer!
