                              Psi4 1.0.54 Driver

  ==> Input File <==

--------------------------------------------------------------------------
set {
	reference rhf
	basis cc-pvtz
}

set_num_threads( 4 )
memory 2 gb

molecule MOL {
0 1

H	 2.646708	 0.758099	 0.000000
O	 2.258158	 -0.097743	 0.000000
C	 0.911162	 -0.015915	 0.000000
C	 0.309113	 0.635917	 1.063698
C	 0.136781	 -0.553535	 -1.010801
H	 0.925545	 1.046772	 1.838753
C	 -1.064064	 0.743887	 1.106145
H	 0.603869	 -1.059427	 -1.836363
C	 -1.240865	 -0.437595	 -0.955045
H	 -1.525152	 1.250110	 1.932908
C	 -1.850703	 0.209283	 0.099269
H	 -1.834804	 -0.857995	 -1.744239
H	 -2.918672	 0.297270	 0.139223

	symmetry c1
}
set optking {
	frozen_dihedral = ("
		4 3 2 1
	")
}

ee,wfn = optimize('scf', return_wfn=True)
oeprop( wfn, 'DIPOLE', 'QUADRUPOLE', 'MULLIKEN_CHARGES')
f=open( 'psi4out.xyz', 'w' )
f.write( "13  " )
f.write( str(ee) + "\n" )
f.write( MOL.save_string_xyz() )
f.close()
--------------------------------------------------------------------------

    Molecular point group: c1
  Charge       = 0
  Multiplicity = 1
  Basis Set: CC-PVTZ
  Basis Set:
  @DF-RHF Final Energy:  -305.66591466758518
    Total Energy =                       -305.6659146675852980
    Molecular point group: c1
  Basis Set: CC-PVTZ
  Basis Set:
  Basis Set: CC-PVTZ
  Basis Set:
  @DF-RHF Final Energy:  -305.66722628910378
    Total Energy =                       -305.6672262891035530
  Basis Set: CC-PVTZ
  Basis Set:
  Basis Set: CC-PVTZ
  Basis Set:
  @DF-RHF Final Energy:  -305.66731026883377
    Total Energy =                       -305.6673102688332051
  Basis Set: CC-PVTZ
  Basis Set:
  Basis Set: CC-PVTZ
  Basis Set:
  @DF-RHF Final Energy:  -305.66731932652726
    Total Energy =                       -305.6673193265274904
  Basis Set: CC-PVTZ
  Basis Set:
  Charge       = 0
  Multiplicity = 1
  Basis Set: CC-PVTZ
  Basis Set:

    Orbital Energies (a.u.)
    -----------------------

    Doubly Occupied:

       1A    -20.574609     2A    -11.291010     3A    -11.234060
       4A    -11.233061     5A    -11.226247     6A    -11.224088
       7A    -11.223373     8A     -1.402343     9A     -1.153127
      10A     -1.022384    11A     -1.008379    12A     -0.842784
      13A     -0.827859    14A     -0.739084    15A     -0.685368
      16A     -0.652170    17A     -0.628571    18A     -0.597924
      19A     -0.591885    20A     -0.534259    21A     -0.517341
      22A     -0.497441    23A     -0.475753    24A     -0.342115
      25A     -0.325208

  @DF-RHF Final Energy:  -305.66732158774664

   => Energetics <=

    Nuclear Repulsion Energy =            273.4434233502611278
    One-Electron Energy =                -956.5205961195722466
    Two-Electron Energy =                 377.4098511815644770
    DFT Exchange-Correlation Energy =       0.0000000000000000
    Empirical Dispersion Energy =           0.0000000000000000
    PCM Polarization Energy =               0.0000000000000000
    EFP Energy =                            0.0000000000000000
    Total Energy =                       -305.6673215877466419
    Molecular point group: c1
  Basis Set: CC-PVTZ
  Basis Set:

  -Total Gradient:
     Atom            X                  Y                   Z
    ------   -----------------  -----------------  -----------------
       1       -0.000066538693     0.000024556263    -0.002172534561
       2        0.000087515950    -0.000749655237     0.003125123852
       3        0.000002205438     0.002045152570    -0.001839943536
       4       -0.000065621931    -0.001392147688     0.000829042116
       5        0.000165950231     0.000008500059    -0.000005320687
       6       -0.000050843107    -0.000007390738    -0.000021630980
       7        0.000073744241     0.000056265427     0.000015465627
       8        0.000061261915     0.000011221477     0.000032984025
       9       -0.000186829309     0.000074087647     0.000073425041
      10       -0.000048489089    -0.000012600639    -0.000001681175
      11        0.000015552247    -0.000090474883    -0.000119029142
      12        0.000016107699     0.000004951657     0.000020965545
      13       -0.000004015587     0.000027534085     0.000063133875

  **** Optimization is complete! (in 5 steps) ****
    Final optimized geometry and variables:
    Molecular point group: c1

    Geometry (in Angstrom), charge = 0, multiplicity = 1:

    H            2.687350018815     0.628249220126    -0.069977309009
    O            2.258384320395    -0.208750702807    -0.083746239629
    C            0.904470470147    -0.057647826899    -0.035846712922
    C            0.295340510990     0.576322739443     1.031458889682
    C            0.140027507994    -0.610067769654    -1.044497951543
    H            0.898469796749     0.978673818945     1.823222826393
    C           -1.082046137869     0.676689715674     1.072804096010
    H            0.631599854069    -1.108948945745    -1.856462363805
    C           -1.237682946441    -0.515990564105    -0.988391409542
    H           -1.551513623423     1.173432094727     1.900502192218
    C           -1.855024951086     0.130922036680     0.065358304149
    H           -1.828764758710    -0.947224781529    -1.773732058509
    H           -2.924485579152     0.204759297183     0.104337327114

  Mulliken Charges: (a.u.)
   Center  Symbol    Alpha    Beta     Spin     Total
       1     H     0.38625  0.38625  0.00000  0.22749
       2     O     4.18872  4.18872  0.00000 -0.37743
       3     C     2.86948  2.86948  0.00000  0.26104
       4     C     3.11956  3.11956  0.00000 -0.23912
       5     C     3.10753  3.10753  0.00000 -0.21506
       6     H     0.42208  0.42208  0.00000  0.15584
       7     C     3.06807  3.06807  0.00000 -0.13614
       8     H     0.41651  0.41651  0.00000  0.16698
       9     C     3.06491  3.06491  0.00000 -0.12981
      10     H     0.42201  0.42201  0.00000  0.15598
      11     C     3.08971  3.08971  0.00000 -0.17941
      12     H     0.42186  0.42186  0.00000  0.15628
      13     H     0.42331  0.42331  0.00000  0.15338

   Total alpha = 25.00000, Total beta = 25.00000, Total charge =  0.00000

*** Psi4 exiting successfully. Buy a developer a beer!
