                              Psi4 1.0.54 Driver

  ==> Input File <==

--------------------------------------------------------------------------
set {
	reference rhf
	basis cc-pvtz
}

set_num_threads( 4 )
memory 2 gb

molecule MOL {
0 1

H	 -3.483057	 -0.095958	 -2.422503
C	 -2.529691	 -0.011108	 -1.936634
C	 -2.148855	 1.191811	 -1.369544
C	 -1.686090	 -1.104293	 -1.879464
H	 -2.804168	 2.039905	 -1.414302
C	 -0.923626	 1.300071	 -0.745373
H	 -1.982362	 -2.036718	 -2.319553
C	 -0.458934	 -0.997470	 -1.254826
H	 -0.612941	 2.223753	 -0.301139
C	 -0.074207	 0.206085	 -0.685659
H	 0.196747	 -1.842157	 -1.208803
C	 1.238974	 0.374429	 0.000004
O	 1.968286	 -0.725612	 -0.000027
O	 1.598289	 1.389046	 0.496619
C	 3.373556	 -0.568203	 0.000011
H	 3.695416	 -0.031588	 -0.879663
H	 3.782700	 -1.565294	 -0.000152
H	 3.695405	 -0.031851	 0.879862

	symmetry c1
}
set optking {
	frozen_dihedral = ("
		10 12 13 15
	")
}

ee,wfn = optimize('scf', return_wfn=True)
oeprop( wfn, 'DIPOLE', 'QUADRUPOLE', 'MULLIKEN_CHARGES')
f=open( 'psi4out.xyz', 'w' )
f.write( "18  " )
f.write( str(ee) + "\n" )
f.write( MOL.save_string_xyz() )
f.close()
--------------------------------------------------------------------------

    Molecular point group: c1
  Charge       = 0
  Multiplicity = 1
  Basis Set: CC-PVTZ
  Basis Set:
  @DF-RHF Final Energy:  -457.50540235619457
    Total Energy =                       -457.5054023561943950
    Molecular point group: c1
  Basis Set: CC-PVTZ
  Basis Set:
  Basis Set: CC-PVTZ
  Basis Set:
  @DF-RHF Final Energy:  -457.50232988083030
    Total Energy =                       -457.5023298808307572
  Basis Set: CC-PVTZ
  Basis Set:
  Basis Set: CC-PVTZ
  Basis Set:
  @DF-RHF Final Energy:  -457.50563211542811
    Total Energy =                       -457.5056321154283978
  Basis Set: CC-PVTZ
  Basis Set:
  Basis Set: CC-PVTZ
  Basis Set:
  @DF-RHF Final Energy:  -457.50576133337205
    Total Energy =                       -457.5057613333724476
  Basis Set: CC-PVTZ
  Basis Set:
  Basis Set: CC-PVTZ
  Basis Set:
  @DF-RHF Final Energy:  -457.50576450523283
    Total Energy =                       -457.5057645052331736
  Basis Set: CC-PVTZ
  Basis Set:
  Basis Set: CC-PVTZ
  Basis Set:
  @DF-RHF Final Energy:  -457.50576515512864
    Total Energy =                       -457.5057651551288700
  Basis Set: CC-PVTZ
  Basis Set:
  Basis Set: CC-PVTZ
  Basis Set:
  @DF-RHF Final Energy:  -457.50576446216911
    Total Energy =                       -457.5057644621691679
  Basis Set: CC-PVTZ
  Basis Set:
  Charge       = 0
  Multiplicity = 1
  Basis Set: CC-PVTZ
  Basis Set:

    Orbital Energies (a.u.)
    -----------------------

    Doubly Occupied:

       1A    -20.595908     2A    -20.536442     3A    -11.372365
       4A    -11.282713     5A    -11.245610     6A    -11.244417
       7A    -11.243509     8A    -11.240865     9A    -11.236728
      10A    -11.236015    11A     -1.473724    12A     -1.368532
      13A     -1.171369    14A     -1.051242    15A     -1.029768
      16A     -0.979250    17A     -0.865056    18A     -0.839295
      19A     -0.780876    20A     -0.744372    21A     -0.687828
      22A     -0.679511    23A     -0.675074    24A     -0.635119
      25A     -0.630765    26A     -0.602415    27A     -0.592444
      28A     -0.562239    29A     -0.532062    30A     -0.520622
      31A     -0.508909    32A     -0.502777    33A     -0.463387
      34A     -0.448497    35A     -0.350991    36A     -0.346948

  @DF-RHF Final Energy:  -457.50576500858358

   => Energetics <=

    Nuclear Repulsion Energy =            494.2295330611517556
    One-Electron Energy =               -1602.9153096271427330
    Two-Electron Energy =                 651.1800115574072834
    DFT Exchange-Correlation Energy =       0.0000000000000000
    Empirical Dispersion Energy =           0.0000000000000000
    PCM Polarization Energy =               0.0000000000000000
    EFP Energy =                            0.0000000000000000
    Total Energy =                       -457.5057650085838077
    Molecular point group: c1
  Basis Set: CC-PVTZ
  Basis Set:

  -Total Gradient:
     Atom            X                  Y                   Z
    ------   -----------------  -----------------  -----------------
       1       -0.000007513000     0.000001592326    -0.000001042566
       2       -0.000014276099     0.000014382477    -0.000000063128
       3       -0.000009289594     0.000007620676    -0.000015270242
       4        0.000008719558    -0.000004887735     0.000000596238
       5       -0.000012668528     0.000006062328    -0.000002742048
       6       -0.000031166625    -0.000025077244     0.000008940278
       7        0.000000403710    -0.000000791411    -0.000004267059
       8       -0.000013658699    -0.000002119089    -0.000012120424
       9        0.000001331526     0.000006757826    -0.000003571955
      10        0.002665359576     0.001718687453    -0.005159736384
      11       -0.000002848153    -0.000002023419    -0.000001299719
      12       -0.003988992289    -0.002653922448     0.004170504768
      13        0.000793853570     0.000891363286     0.007465672388
      14        0.000157836092     0.000183574919     0.000073499156
      15        0.000347331988    -0.000188437156    -0.006537217447
      16        0.000031490913     0.000077730354    -0.000085647786
      17        0.000045582399    -0.000099195357    -0.000004324682
      18        0.000028503654     0.000068682214     0.000108090615

  **** Optimization is complete! (in 8 steps) ****
    Final optimized geometry and variables:
    Molecular point group: c1

    Geometry (in Angstrom), charge = 0, multiplicity = 1:

    H           -3.493023284123    -0.445969678766    -1.968271766216
    C           -2.584848155995    -0.297799911842    -1.415518677390
    C           -2.331541930169     0.925390628430    -0.819732731937
    C           -1.672391120014    -1.328873597703    -1.300823577233
    H           -3.041013127613     1.725102075156    -0.908854697086
    C           -1.164830220226     1.115319899927    -0.109991683358
    H           -1.869948334499    -2.276933853372    -1.762419635389
    C           -0.502510395891    -1.139872406737    -0.590401962065
    H           -0.952494524619     2.055865428988     0.356397664530
    C           -0.244039165248     0.084258992170     0.004813755443
    H            0.206350032060    -1.936473345582    -0.498790415962
    C            1.013323164179     0.345309139686     0.762804627473
    O            1.814220484177    -0.708063917125     0.835035227048
    O            1.303939432656     1.404583524089     1.205487899384
    C            3.203792892162    -0.455812483960     0.915998248404
    H            3.517714018484     0.170615804624     0.092768820957
    H            3.685345196930    -1.418196274680     0.853301300285
    H            3.457091590732     0.026602850306     1.847657367948

  Mulliken Charges: (a.u.)
   Center  Symbol    Alpha    Beta     Spin     Total
       1     H     0.42016  0.42016  0.00000  0.15968
       2     C     3.06919  3.06919  0.00000 -0.13837
       3     C     3.07575  3.07575  0.00000 -0.15150
       4     C     3.07565  3.07565  0.00000 -0.15130
       5     H     0.42039  0.42039  0.00000  0.15922
       6     C     3.07608  3.07608  0.00000 -0.15216
       7     H     0.42169  0.42169  0.00000  0.15663
       8     C     3.08503  3.08503  0.00000 -0.17007
       9     H     0.40673  0.40673  0.00000  0.18654
      10     C     3.01184  3.01184  0.00000 -0.02369
      11     H     0.41062  0.41062  0.00000  0.17877
      12     C     2.78154  2.78154  0.00000  0.43692
      13     O     4.15416  4.15416  0.00000 -0.30833
      14     O     4.20447  4.20447  0.00000 -0.40895
      15     C     3.03705  3.03705  0.00000 -0.07410
      16     H     0.45829  0.45829  0.00000  0.08343
      17     H     0.44531  0.44531  0.00000  0.10938
      18     H     0.44605  0.44605  0.00000  0.10790

   Total alpha = 36.00000, Total beta = 36.00000, Total charge = -0.00000

*** Psi4 exiting successfully. Buy a developer a beer!
