  ==> Input File <==

--------------------------------------------------------------------------
set {
	reference rhf
	basis 6-31G*
}

set_num_threads( 1 )
memory 2 gb

molecule MOL {
0 1

H	 4.617940	 0.371086	 -0.058954
C	 3.758121	 -0.288838	 -0.004524
C	 2.452663	 0.504720	 -0.036259
H	 3.818646	 -0.978538	 -0.841708
H	 3.845718	 -0.870031	 0.909144
C	 1.217350	 -0.386724	 0.039429
H	 2.396221	 1.097374	 -0.943984
H	 2.438843	 1.208232	 0.794567
N	 0.000003	 0.397874	 -0.023260
H	 1.217372	 -1.071667	 -0.804263
H	 1.267657	 -1.006585	 0.940883
C	 -1.217365	 -0.386708	 0.039277
H	 -0.000031	 1.072115	 0.718656
C	 -2.452633	 0.504241	 -0.042481
H	 -1.215291	 -1.074557	 -0.802042
H	 -1.269739	 -1.003477	 0.942735
C	 -3.758029	 -0.289423	 -0.010781
H	 -2.394220	 1.093569	 -0.952170
H	 -2.440793	 1.210787	 0.785871
H	 -3.816659	 -0.981993	 -0.845726
H	 -4.617837	 0.370165	 -0.069296
H	 -3.847478	 -0.867502	 0.904682

	symmetry c1
}
set optking {
	frozen_dihedral = ("
		15 12 14 18
	")
}

ee = energy('scf')
oeprop('DIPOLE', 'QUADRUPOLE', 'MULLIKEN_CHARGES')
f=open( 'psi4out.xyz', 'w' )
f.write( "22  " )
f.write( str(ee) + "\n" )
f.write( MOL.save_string_xyz() )
f.close()
--------------------------------------------------------------------------

    Molecular point group: c1

    Geometry (in Angstrom), charge = 0, multiplicity = 1:

       Center              X                  Y                   Z               Mass
    ------------   -----------------  -----------------  -----------------  -----------------
           H          4.617923408498     0.370923270566    -0.060673968238     1.007825032070
           C          3.758104408498    -0.289000729434    -0.006243968238    12.000000000000
           C          2.452646408498     0.504557270566    -0.037978968238    12.000000000000
           H          3.818629408498    -0.978700729434    -0.843427968238     1.007825032070
           H          3.845701408498    -0.870193729434     0.907424031762     1.007825032070
           C          1.217333408498    -0.386886729434     0.037709031762    12.000000000000
           H          2.396204408498     1.097211270566    -0.945703968238     1.007825032070
           H          2.438826408498     1.208069270566     0.792847031762     1.007825032070
           N         -0.000013591502     0.397711270566    -0.024979968238    14.003074004780
           H          1.217355408498    -1.071829729434    -0.805982968238     1.007825032070
           H          1.267640408498    -1.006747729434     0.939163031762     1.007825032070
           C         -1.217381591502    -0.386870729434     0.037557031762    12.000000000000
           H         -0.000047591502     1.071952270566     0.716936031762     1.007825032070
           C         -2.452649591502     0.504078270566    -0.044200968238    12.000000000000
           H         -1.215307591502    -1.074719729434    -0.803761968238     1.007825032070
           H         -1.269755591502    -1.003639729434     0.941015031762     1.007825032070
           C         -3.758045591502    -0.289585729434    -0.012500968238    12.000000000000
           H         -2.394236591502     1.093406270566    -0.953889968238     1.007825032070
           H         -2.440809591502     1.210624270566     0.784151031762     1.007825032070
           H         -3.816675591502    -0.982155729434    -0.847445968238     1.007825032070
           H         -4.617853591502     0.370002270566    -0.071015968238     1.007825032070
           H         -3.847494591502    -0.867664729434     0.902962031762     1.007825032070

  Charge       = 0
  Multiplicity = 1
  Basis Set: 6-31G*
  Basis Set:

    Orbital Energies (a.u.)
    -----------------------

    Doubly Occupied:

       1A    -15.533608     2A    -11.237936     3A    -11.237918
       4A    -11.213542     5A    -11.213493     6A    -11.209719
       7A    -11.209692     8A     -1.205575     9A     -1.059258
      10A     -1.025908    11A     -0.928144    12A     -0.868288
      13A     -0.811203    14A     -0.793709    15A     -0.668810
      16A     -0.626316    17A     -0.614518    18A     -0.613079
      19A     -0.574054    20A     -0.563213    21A     -0.529514
      22A     -0.528182    23A     -0.515469    24A     -0.485154
      25A     -0.482963    26A     -0.474455    27A     -0.465986
      28A     -0.450571    29A     -0.359014

  @DF-RHF Final Energy:  -290.38324979939262

   => Energetics <=

    Nuclear Repulsion Energy =            313.1736923378584834
    One-Electron Energy =               -1012.1158072632922540
    Two-Electron Energy =                 408.5588651260417805
    DFT Exchange-Correlation Energy =       0.0000000000000000
    Empirical Dispersion Energy =           0.0000000000000000
    PCM Polarization Energy =               0.0000000000000000
    EFP Energy =                            0.0000000000000000
    Total Energy =                       -290.3832497993919901

  Mulliken Charges: (a.u.)
   Center  Symbol    Alpha    Beta     Spin     Total
       1     H     0.41774  0.41774  0.00000  0.16452
       2     C     3.24324  3.24324  0.00000 -0.48648
       3     C     3.15566  3.15566  0.00000 -0.31132
       4     H     0.42069  0.42069  0.00000  0.15863
       5     H     0.42166  0.42166  0.00000  0.15667
       6     C     3.04629  3.04629  0.00000 -0.09257
       7     H     0.41299  0.41299  0.00000  0.17403
       8     H     0.42670  0.42670  0.00000  0.14660
       9     N     3.85848  3.85848  0.00000 -0.71696
      10     H     0.42177  0.42177  0.00000  0.15645
      11     H     0.43633  0.43633  0.00000  0.12733
      12     C     3.04637  3.04637  0.00000 -0.09274
      13     H     0.33537  0.33537  0.00000  0.32926
      14     C     3.15556  3.15556  0.00000 -0.31111
      15     H     0.42178  0.42178  0.00000  0.15643
      16     H     0.43631  0.43631  0.00000  0.12737
      17     C     3.24325  3.24325  0.00000 -0.48651
      18     H     0.41299  0.41299  0.00000  0.17403
      19     H     0.42671  0.42671  0.00000  0.14658
      20     H     0.42070  0.42070  0.00000  0.15860
      21     H     0.41775  0.41775  0.00000  0.16451
      22     H     0.42167  0.42167  0.00000  0.15665

   Total alpha = 29.00000, Total beta = 29.00000, Total charge = -0.00000
