  ==> Input File <==

--------------------------------------------------------------------------
set {
	reference rhf
	basis 6-31G*
}

set_num_threads( 1 )
memory 2 gb

molecule MOL {
0 1

O	 2.862325	 1.357334	 0.000267
C	 2.843464	 0.164689	 -0.000222
C	 1.546494	 -0.624492	 -0.000609
C	 4.124123	 -0.644674	 -0.000428
C	 0.291004	 0.242674	 0.000989
H	 1.557904	 -1.283758	 -0.867573
H	 1.558622	 -1.285963	 0.864672
C	 -0.994322	 -0.586602	 0.000262
H	 0.309117	 0.896430	 -0.865270
H	 0.309661	 0.894078	 0.869017
C	 -2.259874	 0.272531	 0.000494
H	 -1.004862	 -1.240012	 -0.870939
H	 -1.005220	 -1.241071	 0.870675
C	 -3.222185	 -0.067478	 1.139952
H	 -2.774532	 0.154609	 -0.951473
H	 -1.981313	 1.322757	 0.067021
C	 -4.484019	 0.794737	 1.133356
H	 -3.502286	 -1.116759	 1.073804
H	 -2.709310	 0.051485	 2.092142
H	 -5.037777	 0.671972	 0.206841
H	 -5.146257	 0.529868	 1.951882
H	 -4.239283	 1.848401	 1.233563
H	 4.165367	 -1.288615	 -0.874074
H	 4.976217	 0.020734	 -0.001915
H	 4.166763	 -1.286207	 0.874930

	symmetry c1
}
set optking {
	frozen_dihedral = ("
		9 5 8 12,
		15 11 14 18,
		1 2 3 6,
		9 5 3 6
	")
}

ee = energy('scf')
oeprop('DIPOLE', 'QUADRUPOLE', 'MULLIKEN_CHARGES')
f=open( 'psi4out.xyz', 'w' )
f.write( "25  " )
f.write( str(ee) + "\n" )
f.write( MOL.save_string_xyz() )
f.close()
--------------------------------------------------------------------------

    Molecular point group: c1

    Geometry (in Angstrom), charge = 0, multiplicity = 1:

       Center              X                  Y                   Z               Mass
    ------------   -----------------  -----------------  -----------------  -----------------
           O          2.788327020506     1.248400242399    -0.257362298771    15.994914619560
           C          2.769466020506     0.055755242399    -0.257851298771    12.000000000000
           C          1.472496020506    -0.733425757601    -0.258238298771    12.000000000000
           C          4.050125020506    -0.753607757601    -0.258057298771    12.000000000000
           C          0.217006020506     0.133740242399    -0.256640298771    12.000000000000
           H          1.483906020506    -1.392691757601    -1.125202298771     1.007825032070
           H          1.484624020506    -1.394896757601     0.607042701229     1.007825032070
           C         -1.068319979494    -0.695535757601    -0.257367298771    12.000000000000
           H          0.235119020506     0.787496242399    -1.122899298771     1.007825032070
           H          0.235663020506     0.785144242399     0.611387701229     1.007825032070
           C         -2.333871979494     0.163597242399    -0.257135298771    12.000000000000
           H         -1.078859979494    -1.348945757601    -1.128568298771     1.007825032070
           H         -1.079217979494    -1.350004757601     0.613045701229     1.007825032070
           C         -3.296182979494    -0.176411757601     0.882322701229    12.000000000000
           H         -2.848529979494     0.045675242399    -1.209102298771     1.007825032070
           H         -2.055310979494     1.213823242399    -0.190608298771     1.007825032070
           C         -4.558016979494     0.685803242399     0.875726701229    12.000000000000
           H         -3.576283979494    -1.225692757601     0.816174701229     1.007825032070
           H         -2.783307979494    -0.057448757601     1.834512701229     1.007825032070
           H         -5.111774979494     0.563038242399    -0.050788298771     1.007825032070
           H         -5.220254979494     0.420934242399     1.694252701229     1.007825032070
           H         -4.313280979494     1.739467242399     0.975933701229     1.007825032070
           H          4.091369020506    -1.397548757601    -1.131703298771     1.007825032070
           H          4.902219020506    -0.088199757601    -0.259544298771     1.007825032070
           H          4.092765020506    -1.395140757601     0.617300701229     1.007825032070

  Charge       = 0
  Multiplicity = 1
  Basis Set: 6-31G*
  Basis Set:

    Orbital Energies (a.u.)
    -----------------------

    Doubly Occupied:

       1A    -20.550376     2A    -11.326222     3A    -11.231423
       4A    -11.228260     5A    -11.217194     6A    -11.215483
       7A    -11.215152     8A    -11.211864     9A    -11.207589
      10A     -1.395709    11A     -1.093745    12A     -1.055818
      13A     -1.014114    14A     -0.968999    15A     -0.889998
      16A     -0.817204    17A     -0.789260    18A     -0.730171
      19A     -0.655447    20A     -0.651931    21A     -0.634374
      22A     -0.620809    23A     -0.600853    24A     -0.582097
      25A     -0.565744    26A     -0.563720    27A     -0.539646
      28A     -0.528865    29A     -0.508430    30A     -0.489316
      31A     -0.486314    32A     -0.479540    33A     -0.464936
      34A     -0.454377    35A     -0.448393    36A     -0.399298

  @DF-RHF Final Energy:  -387.13107406990173

   => Energetics <=

    Nuclear Repulsion Energy =            440.2556645909894542
    One-Electron Energy =               -1397.1077646264316172
    Two-Electron Energy =                 569.7210259655382742
    DFT Exchange-Correlation Energy =       0.0000000000000000
    Empirical Dispersion Energy =           0.0000000000000000
    PCM Polarization Energy =               0.0000000000000000
    EFP Energy =                            0.0000000000000000
    Total Energy =                       -387.1310740699038888

  Mulliken Charges: (a.u.)
   Center  Symbol    Alpha    Beta     Spin     Total
       1     O     4.26130  4.26130  0.00000 -0.52260
       2     C     2.73569  2.73569  0.00000  0.52862
       3     C     3.21130  3.21130  0.00000 -0.42260
       4     C     3.28667  3.28667  0.00000 -0.57334
       5     C     3.15084  3.15084  0.00000 -0.30169
       6     H     0.41000  0.41000  0.00000  0.17999
       7     H     0.40995  0.40995  0.00000  0.18010
       8     C     3.15627  3.15627  0.00000 -0.31253
       9     H     0.41147  0.41147  0.00000  0.17705
      10     H     0.41206  0.41206  0.00000  0.17588
      11     C     3.15375  3.15375  0.00000 -0.30749
      12     H     0.42254  0.42254  0.00000  0.15492
      13     H     0.42222  0.42222  0.00000  0.15556
      14     C     3.15388  3.15388  0.00000 -0.30776
      15     H     0.42139  0.42139  0.00000  0.15722
      16     H     0.41825  0.41825  0.00000  0.16351
      17     C     3.24005  3.24005  0.00000 -0.48011
      18     H     0.42314  0.42314  0.00000  0.15372
      19     H     0.42294  0.42294  0.00000  0.15412
      20     H     0.42183  0.42183  0.00000  0.15635
      21     H     0.41966  0.41966  0.00000  0.16067
      22     H     0.42082  0.42082  0.00000  0.15836
      23     H     0.40875  0.40875  0.00000  0.18250
      24     H     0.39651  0.39651  0.00000  0.20698
      25     H     0.40872  0.40872  0.00000  0.18257

   Total alpha = 36.00000, Total beta = 36.00000, Total charge =  0.00000
