                              Psi4 1.0.54 Driver

  ==> Input File <==

--------------------------------------------------------------------------
set {
	reference rhf
	basis cc-pvtz
}

set_num_threads( 4 )
memory 2 gb

molecule MOL {
0 1

H	 2.002557	 -0.000000	 0.445344
C	 1.165153	 0.000000	 -0.236906
O	 -0.000000	 0.000000	 0.518824
H	 1.229451	 0.882440	 -0.870168
H	 1.229451	 -0.882440	 -0.870168
C	 -1.165153	 -0.000000	 -0.236906
H	 -1.229451	 0.882440	 -0.870168
H	 -2.002557	 0.000000	 0.445344
H	 -1.229451	 -0.882440	 -0.870168

	symmetry c1
}
ee,wfn = energy('scf', return_wfn=True)
oeprop( wfn, 'DIPOLE', 'QUADRUPOLE', 'MULLIKEN_CHARGES')
oeprop( wfn, 'GRID_ESP')
f=open( 'psi4out.xyz', 'w' )
f.write( "9  " )
f.write( str(ee) + "\n" )
f.write( MOL.save_string_xyz() )
f.close()
--------------------------------------------------------------------------

    Molecular point group: c1

    Geometry (in Angstrom), charge = 0, multiplicity = 1:

       Center              X                  Y                   Z               Mass
    ------------   -----------------  -----------------  -----------------  -----------------
           H          2.002557000000     0.000000000000     0.445288596625     1.007825032070
           C          1.165153000000     0.000000000000    -0.236961403375    12.000000000000
           O         -0.000000000000     0.000000000000     0.518768596625    15.994914619560
           H          1.229451000000     0.882440000000    -0.870223403375     1.007825032070
           H          1.229451000000    -0.882440000000    -0.870223403375     1.007825032070
           C         -1.165153000000     0.000000000000    -0.236961403375    12.000000000000
           H         -1.229451000000     0.882440000000    -0.870223403375     1.007825032070
           H         -2.002557000000     0.000000000000     0.445288596625     1.007825032070
           H         -1.229451000000    -0.882440000000    -0.870223403375     1.007825032070

  Charge       = 0
  Multiplicity = 1
  Basis Set: CC-PVTZ
  Basis Set:

    Orbital Energies (a.u.)
    -----------------------

    Doubly Occupied:

       1A    -20.550420     2A    -11.263206     3A    -11.263183
       4A     -1.382874     5A     -0.975909     6A     -0.872786
       7A     -0.664250     8A     -0.655894     9A     -0.647083
      10A     -0.551618    11A     -0.529876    12A     -0.477045
      13A     -0.420494

  @DF-RHF Final Energy:  -154.12719597954862

   => Energetics <=

    Nuclear Repulsion Energy =             84.8654892181631340
    One-Electron Energy =                -377.4761114983707557
    Two-Electron Energy =                 138.4834263006591186
    DFT Exchange-Correlation Energy =       0.0000000000000000
    Empirical Dispersion Energy =           0.0000000000000000
    PCM Polarization Energy =               0.0000000000000000
    EFP Energy =                            0.0000000000000000
    Total Energy =                       -154.1271959795485031

  Mulliken Charges: (a.u.)
   Center  Symbol    Alpha    Beta     Spin     Total
       1     H     0.44825  0.44825  0.00000  0.10351
       2     C     3.02201  3.02201  0.00000 -0.04403
       3     O     4.16719  4.16719  0.00000 -0.33437
       4     H     0.47307  0.47307  0.00000  0.05385
       5     H     0.47307  0.47307  0.00000  0.05385
       6     C     3.02201  3.02201  0.00000 -0.04403
       7     H     0.47307  0.47307  0.00000  0.05385
       8     H     0.44825  0.44825  0.00000  0.10351
       9     H     0.47307  0.47307  0.00000  0.05385

   Total alpha = 13.00000, Total beta = 13.00000, Total charge = -0.00000

*** Psi4 exiting successfully. Buy a developer a beer!
