  ==> Input File <==

--------------------------------------------------------------------------
set {
	reference rhf
	basis cc-pvtz
}

set_num_threads( 4 )
memory 2 gb

molecule MOL {
0 1

H	 1.166964	 -1.062386	 0.758429
O	 1.324748	 -0.612467	 -0.052206
C	 0.706474	 0.636793	 -0.025501
C	 1.064620	 1.536975	 -1.173993
H	 1.006166	 1.107518	 0.903426
H	 -0.376229	 0.532867	 0.015157
C	 1.961331	 1.281617	 -2.100819
H	 0.517590	 2.464916	 -1.204561
H	 2.538237	 0.376566	 -2.094747
H	 2.155918	 1.980976	 -2.891447

	symmetry c1
}
set optking {
	frozen_dihedral = ("
		5 3 2 1
	")
}

ee = optimize('scf')
oeprop('DIPOLE', 'QUADRUPOLE', 'MULLIKEN_CHARGES')
f=open( 'psi4out.xyz', 'w' )
f.write( "10  " )
f.write( str(ee) + "\n" )
f.write( MOL.save_string_xyz() )
f.close()
--------------------------------------------------------------------------

    Molecular point group: c1
  Charge       = 0
  Multiplicity = 1
  Basis Set: CC-PVTZ
  Basis Set:
  @DF-RHF Final Energy:  -191.99606369387615
    Total Energy =                       -191.9960636938760956
    Molecular point group: c1
  Basis Set: CC-PVTZ
  Basis Set:
  Basis Set: CC-PVTZ
  Basis Set:
  @DF-RHF Final Energy:  -191.99736527077658
    Total Energy =                       -191.9973652707766689
  Basis Set: CC-PVTZ
  Basis Set:
  Basis Set: CC-PVTZ
  Basis Set:
  @DF-RHF Final Energy:  -191.99774396209443
    Total Energy =                       -191.9977439620944324
  Basis Set: CC-PVTZ
  Basis Set:
  Basis Set: CC-PVTZ
  Basis Set:
  @DF-RHF Final Energy:  -191.99775344212904
    Total Energy =                       -191.9977534421290670
  Basis Set: CC-PVTZ
  Basis Set:
  Charge       = 0
  Multiplicity = 1
  Basis Set: CC-PVTZ
  Basis Set:

    Orbital Energies (a.u.)
    -----------------------

    Doubly Occupied:

       1A    -20.553893     2A    -11.278029     3A    -11.223772
       4A    -11.207741     5A     -1.374214     6A     -1.058613
       7A     -0.925912     8A     -0.756435     9A     -0.714338
      10A     -0.639687    11A     -0.619176    12A     -0.594301
      13A     -0.517966    14A     -0.487997    15A     -0.458735
      16A     -0.360306

  @DF-RHF Final Energy:  -191.99775434242068

   => Energetics <=

    Nuclear Repulsion Energy =            119.6704428983103696
    One-Electron Energy =                -497.7941609300964956
    Two-Electron Energy =                 186.1259636893654488
    DFT Exchange-Correlation Energy =       0.0000000000000000
    Empirical Dispersion Energy =           0.0000000000000000
    PCM Polarization Energy =               0.0000000000000000
    EFP Energy =                            0.0000000000000000
    Total Energy =                       -191.9977543424206488
    Molecular point group: c1
  Basis Set: CC-PVTZ
  Basis Set:

  -Total Gradient:
     Atom            X                  Y                   Z
    ------   -----------------  -----------------  -----------------
       1        0.000384038226     0.000200294375     0.000188729431
       2       -0.000578636142    -0.000266378308    -0.000174837682
       3        0.000433365765     0.000265242555    -0.000233350962
       4        0.000052471172     0.000023042364     0.000059802812
       5       -0.000297228842    -0.000189119010     0.000153299550
       6        0.000046011394    -0.000014808506    -0.000007062833
       7        0.000053813163     0.000012887147     0.000066453256
       8       -0.000028428905     0.000008292852    -0.000015970258
       9       -0.000017716799    -0.000024206352    -0.000019491105
      10       -0.000047689032    -0.000015247118    -0.000017572208

  **** Optimization is complete! (in 5 steps) ****
    Final optimized geometry and variables:
    Molecular point group: c1

    Geometry (in Angstrom), charge = 0, multiplicity = 1:

    H           -0.036740634509    -1.707969524130     1.480842291383
    O            0.105077593477    -1.217177728726     0.693167385093
    C           -0.573010333047     0.001529637320     0.763589447687
    C           -0.191141025508     0.893108095009    -0.377087227809
    H           -0.352512038560     0.514324463914     1.698357772565
    H           -1.650241483243    -0.155799221849     0.737460563503
    C            0.678706308045     0.604742821510    -1.318080179957
    H           -0.700731993187     1.841973076074    -0.388937151216
    H            1.198717651029    -0.332622218689    -1.332790352517
    H            0.891230415354     1.304719877450    -2.103863368159

  Mulliken Charges: (a.u.)
   Center  Symbol    Alpha    Beta     Spin     Total
       1     H     0.39536  0.39536  0.00000  0.20928
       2     O     4.19038  4.19038  0.00000 -0.38075
       3     C     2.93778  2.93778  0.00000  0.12444
       4     C     3.08223  3.08223  0.00000 -0.16446
       5     H     0.47510  0.47510  0.00000  0.04980
       6     H     0.47440  0.47440  0.00000  0.05121
       7     C     3.16995  3.16995  0.00000 -0.33991
       8     H     0.42399  0.42399  0.00000  0.15203
       9     H     0.42046  0.42046  0.00000  0.15908
      10     H     0.43036  0.43036  0.00000  0.13929

   Total alpha = 16.00000, Total beta = 16.00000, Total charge =  0.00000
