  ==> Input File <==

--------------------------------------------------------------------------
set {
	reference rhf
	basis cc-pvtz
}

set_num_threads( 4 )
memory 2 gb

molecule MOL {
0 1

O	 0.004244	 0.572701	 -1.702997
C	 -0.289567	 -0.251546	 -0.906647
C	 -1.641803	 -0.894900	 -0.791717
O	 0.550743	 -0.719877	 0.000412
H	 -1.545817	 -1.965909	 -0.914724
H	 -2.298992	 -0.491460	 -1.544625
H	 -2.047713	 -0.712407	 0.194878
C	 1.863204	 -0.194033	 0.000410
H	 2.031502	 0.409177	 -0.879273
H	 2.524488	 -1.045142	 0.000793
H	 2.031291	 0.409823	 0.879686

	symmetry c1
}
set optking {
	frozen_dihedral = ("
		2 4 8 9
	")
}

ee = optimize('scf')
oeprop('DIPOLE', 'QUADRUPOLE', 'MULLIKEN_CHARGES')
f=open( 'psi4out.xyz', 'w' )
f.write( "11  " )
f.write( str(ee) + "\n" )
f.write( MOL.save_string_xyz() )
f.close()
--------------------------------------------------------------------------

    Molecular point group: c1
  Charge       = 0
  Multiplicity = 1
  Basis Set: CC-PVTZ
  Basis Set:
  @DF-RHF Final Energy:  -266.93654865719907
    Total Energy =                       -266.9365486571991823
    Molecular point group: c1
  Basis Set: CC-PVTZ
  Basis Set:
  Basis Set: CC-PVTZ
  Basis Set:
  @DF-RHF Final Energy:  -266.93684440426921
    Total Energy =                       -266.9368444042693227
  Basis Set: CC-PVTZ
  Basis Set:
  Basis Set: CC-PVTZ
  Basis Set:
  @DF-RHF Final Energy:  -266.93729260105181
    Total Energy =                       -266.9372926010518086
  Basis Set: CC-PVTZ
  Basis Set:
  Basis Set: CC-PVTZ
  Basis Set:
  @DF-RHF Final Energy:  -266.93723523870790
    Total Energy =                       -266.9372352387076717
  Basis Set: CC-PVTZ
  Basis Set:
  Basis Set: CC-PVTZ
  Basis Set:
  @DF-RHF Final Energy:  -266.93729813542370
    Total Energy =                       -266.9372981354241006
  Basis Set: CC-PVTZ
  Basis Set:
  Charge       = 0
  Multiplicity = 1
  Basis Set: CC-PVTZ
  Basis Set:

    Orbital Energies (a.u.)
    -----------------------

    Doubly Occupied:

       1A    -20.597672     2A    -20.534578     3A    -11.370159
       4A    -11.278520     5A    -11.232648     6A     -1.471689
       7A     -1.368202     8A     -1.036981     9A     -0.954087
      10A     -0.779090    11A     -0.699413    12A     -0.682153
      13A     -0.680964    14A     -0.598023    15A     -0.592660
      16A     -0.561611    17A     -0.530822    18A     -0.520674
      19A     -0.458491    20A     -0.446150

  @DF-RHF Final Energy:  -266.93729922607622

   => Energetics <=

    Nuclear Repulsion Energy =            183.2499879219075183
    One-Electron Energy =                -727.5854019706947611
    Two-Electron Energy =                 277.3981148227109657
    DFT Exchange-Correlation Energy =       0.0000000000000000
    Empirical Dispersion Energy =           0.0000000000000000
    PCM Polarization Energy =               0.0000000000000000
    EFP Energy =                            0.0000000000000000
    Total Energy =                       -266.9372992260762771
    Molecular point group: c1
  Basis Set: CC-PVTZ
  Basis Set:

  -Total Gradient:
     Atom            X                  Y                   Z
    ------   -----------------  -----------------  -----------------
       1        0.000060744103    -0.000016634801     0.000044814988
       2        0.000132605003    -0.000450170686    -0.000404207451
       3       -0.000026645660    -0.000012395974    -0.000013336078
       4       -0.000294789392     0.000855967569     0.000661235563
       5       -0.000005581973     0.000000447816     0.000003284505
       6       -0.000008064333    -0.000006058491     0.000003721556
       7       -0.000003568789     0.000000641204    -0.000000545526
       8        0.000346580130    -0.000973146861    -0.000637380443
       9       -0.000222385923     0.000591531662     0.000345294994
      10        0.000022520578     0.000008871754     0.000000194849
      11       -0.000001413743     0.000000946804    -0.000003076958

  **** Optimization is complete! (in 6 steps) ****
    Final optimized geometry and variables:
    Molecular point group: c1

    Geometry (in Angstrom), charge = 0, multiplicity = 1:

    O           -0.148329703651     0.877736860866    -1.042813509151
    C           -0.411700155117     0.051489107218    -0.238568240422
    C           -1.753146146963    -0.611049162553    -0.101571419645
    O            0.441033946519    -0.410188711312     0.662169492990
    H           -1.643630192938    -1.680714198095    -0.224557078971
    H           -2.427898042140    -0.217884566895    -0.844303068586
    H           -2.145390524697    -0.432872205845     0.891283125298
    C            1.767763493854     0.082490177862     0.684961076751
    H            1.970668660736     0.682984798223    -0.184716118169
    H            2.429795815510    -0.769302045172     0.720250730118
    H            1.899022509770     0.677849094250     1.577409638426

  Mulliken Charges: (a.u.)
   Center  Symbol    Alpha    Beta     Spin     Total
       1     O     4.19709  4.19709  0.00000 -0.39418
       2     C     2.79801  2.79801  0.00000  0.40398
       3     C     3.13941  3.13941  0.00000 -0.27881
       4     O     4.15001  4.15001  0.00000 -0.30002
       5     H     0.44578  0.44578  0.00000  0.10843
       6     H     0.43799  0.43799  0.00000  0.12402
       7     H     0.44556  0.44556  0.00000  0.10888
       8     C     3.03700  3.03700  0.00000 -0.07400
       9     H     0.44343  0.44343  0.00000  0.11315
      10     H     0.45120  0.45120  0.00000  0.09760
      11     H     0.45452  0.45452  0.00000  0.09095

   Total alpha = 20.00000, Total beta = 20.00000, Total charge =  0.00000
