  ==> Input File <==

--------------------------------------------------------------------------
set {
	reference rhf
	basis cc-pvtz
}

set_num_threads( 4 )
memory 2 gb

molecule MOL {
0 1

H	 -0.000105	 1.988529	 0.748933
O	 -0.000098	 1.879786	 -0.188206
C	 -0.000014	 0.545691	 -0.532416
C	 -1.315338	 0.177868	 -1.221187
C	 0.337953	 -0.314263	 0.686613
H	 0.787385	 0.389424	 -1.255082
F	 -1.458774	 0.908465	 -2.299387
F	 -1.354262	 -1.080436	 -1.580169
F	 -2.347264	 0.413189	 -0.439441
F	 1.520942	 0.021489	 1.139012
F	 0.363976	 -1.591906	 0.402597
F	 -0.528783	 -0.128098	 1.658975

	symmetry c1
}
set optking {
	frozen_dihedral = ("
		6 3 2 1
	")
}

ee = optimize('scf')
oeprop('DIPOLE', 'QUADRUPOLE', 'MULLIKEN_CHARGES')
f=open( 'psi4out.xyz', 'w' )
f.write( "12  " )
f.write( str(ee) + "\n" )
f.write( MOL.save_string_xyz() )
f.close()
--------------------------------------------------------------------------

    Molecular point group: c1
  Charge       = 0
  Multiplicity = 1
  Basis Set: CC-PVTZ
  Basis Set:
  @DF-RHF Final Energy:  -786.58542821658091
    Total Energy =                       -786.5854282165811355
    Molecular point group: c1
  Basis Set: CC-PVTZ
  Basis Set:
  Basis Set: CC-PVTZ
  Basis Set:
  @DF-RHF Final Energy:  -786.58599375994947
    Total Energy =                       -786.5859937599501563
  Basis Set: CC-PVTZ
  Basis Set:
  Basis Set: CC-PVTZ
  Basis Set:
  @DF-RHF Final Energy:  -786.58611004760553
    Total Energy =                       -786.5861100476056436
  Basis Set: CC-PVTZ
  Basis Set:
  Basis Set: CC-PVTZ
  Basis Set:
  @DF-RHF Final Energy:  -786.58612236608042
    Total Energy =                       -786.5861223660803034
  Basis Set: CC-PVTZ
  Basis Set:
  Basis Set: CC-PVTZ
  Basis Set:
  @DF-RHF Final Energy:  -786.58612393046792
    Total Energy =                       -786.5861239304679202
  Basis Set: CC-PVTZ
  Basis Set:
  Charge       = 0
  Multiplicity = 1
  Basis Set: CC-PVTZ
  Basis Set:

    Orbital Energies (a.u.)
    -----------------------

    Doubly Occupied:

       1A    -26.364259     2A    -26.363826     3A    -26.361776
       4A    -26.351489     5A    -26.350678     6A    -26.348165
       7A    -20.607857     8A    -11.527168     9A    -11.514283
      10A    -11.351890    11A     -1.776800    12A     -1.762618
      13A     -1.672867    14A     -1.668805    15A     -1.658244
      16A     -1.656416    17A     -1.437175    18A     -1.104824
      19A     -1.003089    20A     -0.944751    21A     -0.875521
      22A     -0.869471    23A     -0.862928    24A     -0.849751
      25A     -0.839012    26A     -0.811856    27A     -0.752118
      28A     -0.739501    29A     -0.727456    30A     -0.724913
      31A     -0.704214    32A     -0.696814    33A     -0.691912
      34A     -0.678242    35A     -0.674228    36A     -0.673197
      37A     -0.659808    38A     -0.657513    39A     -0.622236
      40A     -0.551147    41A     -0.508062

  @DF-RHF Final Energy:  -786.58612413955780

   => Energetics <=

    Nuclear Repulsion Energy =            670.9880365111978335
    One-Electron Energy =               -2429.1545581745822346
    Two-Electron Energy =                 971.5803975238264911
    DFT Exchange-Correlation Energy =       0.0000000000000000
    Empirical Dispersion Energy =           0.0000000000000000
    PCM Polarization Energy =               0.0000000000000000
    EFP Energy =                            0.0000000000000000
    Total Energy =                       -786.5861241395579100
    Molecular point group: c1
  Basis Set: CC-PVTZ
  Basis Set:

  -Total Gradient:
     Atom            X                  Y                   Z
    ------   -----------------  -----------------  -----------------
       1        0.002507844306     0.000014997793     0.000052706362
       2       -0.002806133237    -0.000150912564     0.000351225320
       3       -0.001056178657     0.000486355501    -0.002044508861
       4       -0.000023410773     0.000077233513     0.000067104244
       5       -0.000045796772    -0.000015071795     0.000010680256
       6        0.001353123178    -0.000357127521     0.001618260156
       7       -0.000013903799    -0.000017898671    -0.000005204305
       8        0.000001735656    -0.000016218771     0.000011392961
       9        0.000021492473    -0.000022637968    -0.000066065436
      10        0.000086414138     0.000015699568     0.000017352668
      11       -0.000026537961     0.000010987496     0.000007661867
      12        0.000001351442    -0.000025406581    -0.000020605229

  **** Optimization is complete! (in 6 steps) ****
    Final optimized geometry and variables:
    Molecular point group: c1

    Geometry (in Angstrom), charge = 0, multiplicity = 1:

    H            0.476943694853     1.975862770824     0.934893693786
    O            0.491306408531     1.824648253280     0.006211053998
    C            0.504255411837     0.479957371284    -0.310646243693
    C           -0.815153395310     0.122935169732    -0.995316552178
    C            0.821938851128    -0.374320310945     0.915433899090
    H            1.297043388625     0.282500655125    -1.020438062539
    F           -0.995901121304     0.914561301182    -2.022863216177
    F           -0.804677109015    -1.112267367125    -1.439537903609
    F           -1.842096993367     0.259066808478    -0.192368827827
    F            2.026117764801    -0.068534774492     1.347412092897
    F            0.800262056508    -1.652452823955     0.650365954912
    F           -0.014235609709    -0.140734709832     1.902971268915

  Mulliken Charges: (a.u.)
   Center  Symbol    Alpha    Beta     Spin     Total
       1     H     0.38189  0.38189  0.00000  0.23622
       2     O     4.19009  4.19009  0.00000 -0.38017
       3     C     2.99851  2.99851  0.00000  0.00298
       4     C     2.68009  2.68009  0.00000  0.63982
       5     C     2.68783  2.68783  0.00000  0.62433
       6     H     0.43457  0.43457  0.00000  0.13085
       7     F     4.60174  4.60174  0.00000 -0.20348
       8     F     4.60603  4.60603  0.00000 -0.21205
       9     F     4.60614  4.60614  0.00000 -0.21228
      10     F     4.60653  4.60653  0.00000 -0.21307
      11     F     4.59798  4.59798  0.00000 -0.19596
      12     F     4.60860  4.60860  0.00000 -0.21719

   Total alpha = 41.00000, Total beta = 41.00000, Total charge =  0.00000
