  ==> Input File <==

--------------------------------------------------------------------------
set {
	reference rhf
	basis 6-31G*
}

set_num_threads( 4 )
memory 2 gb

molecule MOL {
0 1

H	 -3.420663	 1.227371	 -1.044276
O	 -3.452007	 0.283848	 -0.965577
C	 -3.181085	 -0.079926	 0.364119
C	 -1.765924	 0.277073	 0.805136
H	 -3.327791	 -1.152017	 0.410903
H	 -3.905698	 0.375695	 1.036898
C	 -0.677594	 -0.417312	 -0.014550
H	 -1.637766	 1.358238	 0.744969
H	 -1.659588	 0.017670	 1.857098
C	 0.738335	 -0.034840	 0.421385
H	 -0.814977	 -0.178223	 -1.064632
H	 -0.802730	 -1.495410	 0.071702
C	 1.822265	 -0.738362	 -0.399735
H	 0.853533	 1.043532	 0.342250
H	 0.871597	 -0.279636	 1.474438
C	 3.258659	 -0.443405	 0.047397
H	 1.710867	 -0.468241	 -1.448697
H	 1.657822	 -1.812504	 -0.345013
C	 3.699932	 1.008371	 -0.147618
H	 3.932257	 -1.089737	 -0.510107
H	 3.373009	 -0.718074	 1.094146
H	 3.584676	 1.315148	 -1.183833
H	 4.745249	 1.132580	 0.118317
H	 3.125191	 1.693916	 0.466275

	symmetry c1
}
set optking {
	frozen_dihedral = ("
		17 13 10 7
	")
}

ee = optimize('scf')
oeprop('DIPOLE', 'QUADRUPOLE', 'MULLIKEN_CHARGES')
f=open( 'psi4out.xyz', 'w' )
f.write( "24  " )
f.write( str(ee) + "\n" )
f.write( MOL.save_string_xyz() )
f.close()
--------------------------------------------------------------------------

    Molecular point group: c1
  Charge       = 0
  Multiplicity = 1
  Basis Set: 6-31G*
  Basis Set:
  @DF-RHF Final Energy:  -349.24763012805630
    Total Energy =                       -349.2476301280559596
    Molecular point group: c1
  Basis Set: 6-31G*
  Basis Set:
  Basis Set: 6-31G*
  Basis Set:
  @DF-RHF Final Energy:  -349.24762564220293
    Total Energy =                       -349.2476256422031611
  Basis Set: 6-31G*
  Basis Set:
  Basis Set: 6-31G*
  Basis Set:
  @DF-RHF Final Energy:  -349.24763041084316
    Total Energy =                       -349.2476304108430440
  Basis Set: 6-31G*
  Basis Set:
  Charge       = 0
  Multiplicity = 1
  Basis Set: 6-31G*
  Basis Set:

    Orbital Energies (a.u.)
    -----------------------

    Doubly Occupied:

       1A    -20.553571     2A    -11.267705     3A    -11.217479
       4A    -11.214086     5A    -11.212454     6A    -11.211593
       7A    -11.211123     8A    -11.207389     9A     -1.360173
      10A     -1.088562    11A     -1.048316    12A     -0.985681
      13A     -0.915027    14A     -0.850440    15A     -0.800762
      16A     -0.776330    17A     -0.679085    18A     -0.653733
      19A     -0.625294    20A     -0.619764    21A     -0.596913
      22A     -0.584544    23A     -0.557772    24A     -0.540799
      25A     -0.514679    26A     -0.509177    27A     -0.499333
      28A     -0.472761    29A     -0.467519    30A     -0.459582
      31A     -0.455499    32A     -0.450833    33A     -0.419036

  @DF-RHF Final Energy:  -349.24763047492178

   => Energetics <=

    Nuclear Repulsion Energy =            384.4811451824695610
    One-Electron Energy =               -1235.4035235573935552
    Two-Electron Energy =                 501.6747479000024441
    DFT Exchange-Correlation Energy =       0.0000000000000000
    Empirical Dispersion Energy =           0.0000000000000000
    PCM Polarization Energy =               0.0000000000000000
    EFP Energy =                            0.0000000000000000
    Total Energy =                       -349.2476304749214933
    Molecular point group: c1
  Basis Set: 6-31G*
  Basis Set:

  -Total Gradient:
     Atom            X                  Y                   Z
    ------   -----------------  -----------------  -----------------
       1       -0.000000787376    -0.000007480195    -0.000000050417
       2       -0.000008208650     0.000015130757     0.000004468460
       3       -0.000006429230    -0.000027181390     0.000002652660
       4        0.000005842106     0.000010250965    -0.000003513298
       5        0.000001434239     0.000015943133    -0.000001900018
       6        0.000006027659    -0.000006598118    -0.000004767244
       7        0.000002826744     0.000061973314    -0.000060260944
       8        0.000002154308     0.000001232304    -0.000003510238
       9       -0.000001087460     0.000003452216     0.000000750584
      10       -0.000021425067    -0.000112283449     0.000076653750
      11        0.000002515186     0.000000646851     0.000012647241
      12       -0.000001810409    -0.000002484965    -0.000004430607
      13        0.000087280892     0.000155806441    -0.000009942527
      14       -0.000012710729    -0.000017146922    -0.000007764236
      15        0.000009122628     0.000006225938     0.000003770882
      16        0.000011401413    -0.000003245376     0.000008674974
      17       -0.000070868885    -0.000094672849    -0.000006743560
      18       -0.000008494510    -0.000000734759    -0.000010398634
      19       -0.000001997509     0.000001329605    -0.000000971808
      20       -0.000005160780     0.000003340390     0.000004667897
      21        0.000000046576     0.000001176046     0.000002955325
      22       -0.000000067968    -0.000000001501     0.000003560691
      23        0.000001894846    -0.000002584751    -0.000002762949
      24        0.000008501973    -0.000002093684    -0.000003785982

  **** Optimization is complete! (in 4 steps) ****
    Final optimized geometry and variables:
    Molecular point group: c1

    Geometry (in Angstrom), charge = 0, multiplicity = 1:

    H           -3.419207290626     1.224797597315    -1.039091268480
    O           -3.450612696978     0.281225573775    -0.961528612589
    C           -3.180538720044    -0.084060462099     0.367937465942
    C           -1.765585114279     0.272337997053     0.810189037240
    H           -3.327216856631    -1.156100108839     0.413289320478
    H           -3.905535677044     0.370671689226     1.040814473246
    C           -0.676823064195    -0.420631436379    -0.010109485973
    H           -1.637515505113     1.353598667818     0.751714135343
    H           -1.659684931642     0.011303590234     1.861801124738
    C            0.738835622686    -0.037720185275     0.426235627302
    H           -0.814178750567    -0.180451412508    -1.059904651096
    H           -0.801506863893    -1.498890259334     0.074917906582
    C            1.823194102658    -0.739959291540    -0.395367652674
    H            0.853032663645     1.040727686150     0.347460264082
    H            0.872525426632    -0.282788201416     1.479169669236
    C            3.259497922552    -0.446112866859     0.052735896519
    H            1.711870595711    -0.469171091024    -1.444113266377
    H            1.658305083753    -1.814168555897    -0.342099365875
    C            3.703402086691     1.004447403458    -0.145277477670
    H            3.932665175335    -1.094780554201    -0.502462449457
    H            3.372202846200    -0.718533795909     1.100261867071
    H            3.589911349805     1.308848370263    -1.182363487188
    H            4.748650024006     1.127457598952     0.121517372506
    H            3.129169103610     1.692525567051     0.466203744741

  Mulliken Charges: (a.u.)
   Center  Symbol    Alpha    Beta     Spin     Total
       1     H     0.28338  0.28338  0.00000  0.43323
       2     O     4.36830  4.36830  0.00000 -0.73661
       3     C     2.99616  2.99616  0.00000  0.00768
       4     C     3.16902  3.16902  0.00000 -0.33804
       5     H     0.41631  0.41631  0.00000  0.16737
       6     H     0.42816  0.42816  0.00000  0.14368
       7     C     3.15179  3.15179  0.00000 -0.30357
       8     H     0.42834  0.42834  0.00000  0.14333
       9     H     0.42236  0.42236  0.00000  0.15529
      10     C     3.15357  3.15357  0.00000 -0.30715
      11     H     0.41204  0.41204  0.00000  0.17591
      12     H     0.42361  0.42361  0.00000  0.15278
      13     C     3.15228  3.15228  0.00000 -0.30455
      14     H     0.42299  0.42299  0.00000  0.15403
      15     H     0.42542  0.42542  0.00000  0.14915
      16     C     3.15231  3.15231  0.00000 -0.30462
      17     H     0.42362  0.42362  0.00000  0.15276
      18     H     0.42210  0.42210  0.00000  0.15580
      19     C     3.24101  3.24101  0.00000 -0.48202
      20     H     0.42104  0.42104  0.00000  0.15791
      21     H     0.42378  0.42378  0.00000  0.15245
      22     H     0.42227  0.42227  0.00000  0.15545
      23     H     0.41954  0.41954  0.00000  0.16092
      24     H     0.42061  0.42061  0.00000  0.15879

   Total alpha = 33.00000, Total beta = 33.00000, Total charge = -0.00000
