  ==> Input File <==

--------------------------------------------------------------------------
set {
	reference rhf
	basis 6-31G*
}

set_num_threads( 4 )
memory 2 gb

molecule MOL {
0 1

O	 -0.291628	 1.323815	 -0.000732
C	 -0.449655	 0.146360	 0.000961
C	 -1.783294	 -0.549321	 -0.000296
O	 0.550821	 -0.724572	 0.000672
H	 -1.863538	 -1.185371	 -0.874187
H	 -2.574672	 0.185258	 -0.002793
H	 -1.866414	 -1.182381	 0.875436
C	 0.205804	 -2.098341	 0.002869
H	 -0.367596	 -2.344211	 0.884978
H	 1.140462	 -2.637009	 0.001848
H	 -0.370703	 -2.346100	 -0.876675

	symmetry c1
}
set optking {
	frozen_dihedral = ("
		8 4 2 1
	")
}

ee = optimize('scf')
oeprop('DIPOLE', 'QUADRUPOLE', 'MULLIKEN_CHARGES')
f=open( 'psi4out.xyz', 'w' )
f.write( "11  " )
f.write( str(ee) + "\n" )
f.write( MOL.save_string_xyz() )
f.close()
--------------------------------------------------------------------------

    Molecular point group: c1
  Charge       = 0
  Multiplicity = 1
  Basis Set: 6-31G*
  Basis Set:
  @DF-RHF Final Energy:  -266.80996007747052
    Total Energy =                       -266.8099600774708620
    Molecular point group: c1
  Basis Set: 6-31G*
  Basis Set:
  Basis Set: 6-31G*
  Basis Set:
  @DF-RHF Final Energy:  -266.80804917317880
    Total Energy =                       -266.8080491731786310
  Basis Set: 6-31G*
  Basis Set:
  Basis Set: 6-31G*
  Basis Set:
  @DF-RHF Final Energy:  -266.81801380875197
    Total Energy =                       -266.8180138087519140
  Basis Set: 6-31G*
  Basis Set:
  Basis Set: 6-31G*
  Basis Set:
  @DF-RHF Final Energy:  -266.82063335312967
    Total Energy =                       -266.8206333531296082
  Basis Set: 6-31G*
  Basis Set:
  @DF-RHF Final Energy:  -266.82086376474490
    Total Energy =                       -266.8208637647448995
  @DF-RHF Final Energy:  -266.82135318903340
    Total Energy =                       -266.8213531890330046
  Basis Set: 6-31G*
  Basis Set:
  @DF-RHF Final Energy:  -266.82143940802507
    Total Energy =                       -266.8214394080252987
  Basis Set: 6-31G*
  Basis Set:
  Basis Set: 6-31G*
  Basis Set:
  @DF-RHF Final Energy:  -266.82145544165616
    Total Energy =                       -266.8214554416560418
  Basis Set: 6-31G*
  Basis Set:
  Basis Set: 6-31G*
  Basis Set:
  @DF-RHF Final Energy:  -266.82145849074402
    Total Energy =                       -266.8214584907439075
  Basis Set: 6-31G*
  Basis Set:
  Charge       = 0
  Multiplicity = 1
  Basis Set: 6-31G*
  Basis Set:

    Orbital Energies (a.u.)
    -----------------------

    Doubly Occupied:

       1A    -20.605174     2A    -20.540108     3A    -11.378229
       4A    -11.298846     5A    -11.245061     6A     -1.465745
       7A     -1.366860     8A     -1.023036     9A     -0.986426
      10A     -0.784960    11A     -0.699372    12A     -0.687526
      13A     -0.678463    14A     -0.599935    15A     -0.596880
      16A     -0.577988    17A     -0.547066    18A     -0.517809
      19A     -0.447741    20A     -0.435883

  @DF-RHF Final Energy:  -266.82145870804112

   => Energetics <=

    Nuclear Repulsion Energy =            182.8385997681402841
    One-Electron Energy =                -726.3539011396717342
    Two-Electron Energy =                 276.6938426634905568
    DFT Exchange-Correlation Energy =       0.0000000000000000
    Empirical Dispersion Energy =           0.0000000000000000
    PCM Polarization Energy =               0.0000000000000000
    EFP Energy =                            0.0000000000000000
    Total Energy =                       -266.8214587080408933
    Molecular point group: c1
  Basis Set: 6-31G*
  Basis Set:

  -Total Gradient:
     Atom            X                  Y                   Z
    ------   -----------------  -----------------  -----------------
       1        0.000014846744    -0.000032243744     0.000001965690
       2       -0.000030510141     0.000020476578    -0.000011707601
       3       -0.000005506451     0.000002547639     0.000010396079
       4        0.000030097693    -0.000025064680     0.000025873167
       5       -0.000003337826     0.000007429153     0.000000293673
       6        0.000000171153    -0.000002289913    -0.000002234929
       7        0.000000811596    -0.000003532030    -0.000002393934
       8       -0.000016165516     0.000007367093    -0.000035999489
       9        0.000000859076     0.000019174661     0.000007724657
      10        0.000002983535     0.000021588908     0.000003174316
      11        0.000005750135    -0.000015453668     0.000002908371

  **** Optimization is complete! (in 10 steps) ****
    Final optimized geometry and variables:
    Molecular point group: c1

    Geometry (in Angstrom), charge = 0, multiplicity = 1:

    O            0.094698650285     1.688165211465    -0.002901746194
    C           -0.136189228706     0.527604224824    -0.000949035752
    C           -1.543816253958    -0.024463461829    -0.000491452508
    O            0.878923324747    -0.338973260129     0.000877446428
    H           -1.725229155282    -0.636591781413    -0.876860071859
    H           -2.228022688711     0.809824928605    -0.000941038580
    H           -1.725269622403    -0.635879737722     0.876342132751
    C            0.690702349020    -1.733855089700     0.003262763045
    H            0.162669908011    -2.064795643219     0.888816014513
    H            1.680302403916    -2.163122131314     0.004240470397
    H            0.162924799197    -2.068186340467    -0.881167914623

  Mulliken Charges: (a.u.)
   Center  Symbol    Alpha    Beta     Spin     Total
       1     O     4.26495  4.26495  0.00000 -0.52989
       2     C     2.61465  2.61465  0.00000  0.77071
       3     C     3.30945  3.30945  0.00000 -0.61890
       4     O     4.29498  4.29498  0.00000 -0.58995
       5     H     0.40284  0.40284  0.00000  0.19432
       6     H     0.38663  0.38663  0.00000  0.22674
       7     H     0.40288  0.40288  0.00000  0.19425
       8     C     3.09308  3.09308  0.00000 -0.18617
       9     H     0.41670  0.41670  0.00000  0.16660
      10     H     0.39716  0.39716  0.00000  0.20568
      11     H     0.41669  0.41669  0.00000  0.16661

   Total alpha = 20.00000, Total beta = 20.00000, Total charge =  0.00000
