  ==> Input File <==

--------------------------------------------------------------------------
set {
	reference rhf
	basis cc-pvtz
}

set_num_threads( 4 )
memory 2 gb

molecule MOL {
0 1

H	 -0.000105	 1.988529	 0.748933
O	 -0.000098	 1.879786	 -0.188206
C	 -0.000014	 0.545691	 -0.532416
C	 -1.286000	 -0.125171	 -0.046657
C	 1.286016	 -0.125031	 -0.046584
H	 0.000021	 0.481103	 -1.610604
F	 -2.003472	 0.745255	 0.620015
F	 -2.016602	 -0.575285	 -1.035257
F	 -1.025777	 -1.130434	 0.761492
F	 2.317750	 0.468717	 -0.594166
F	 1.336617	 -1.393765	 -0.365123
F	 1.414467	 -0.024806	 1.259108

	symmetry c1
}
set optking {
	frozen_dihedral = ("
		7 4 3 6
	")
}

ee = optimize('scf')
oeprop('DIPOLE', 'QUADRUPOLE', 'MULLIKEN_CHARGES')
f=open( 'psi4out.xyz', 'w' )
f.write( "12  " )
f.write( str(ee) + "\n" )
f.write( MOL.save_string_xyz() )
f.close()
--------------------------------------------------------------------------

    Molecular point group: c1
  Charge       = 0
  Multiplicity = 1
  Basis Set: CC-PVTZ
  Basis Set:
  @DF-RHF Final Energy:  -786.58190854990187
    Total Energy =                       -786.5819085499014136
    Molecular point group: c1
  Basis Set: CC-PVTZ
  Basis Set:
  Basis Set: CC-PVTZ
  Basis Set:
  @DF-RHF Final Energy:  -786.58261896475381
    Total Energy =                       -786.5826189647536921
  Basis Set: CC-PVTZ
  Basis Set:
  Basis Set: CC-PVTZ
  Basis Set:
  @DF-RHF Final Energy:  -786.58352180043710
    Total Energy =                       -786.5835218004369835
  Basis Set: CC-PVTZ
  Basis Set:
  Basis Set: CC-PVTZ
  Basis Set:
  @DF-RHF Final Energy:  -786.58358372619898
    Total Energy =                       -786.5835837261993220
  Basis Set: CC-PVTZ
  Basis Set:
  Basis Set: CC-PVTZ
  Basis Set:
  @DF-RHF Final Energy:  -786.58359521367311
    Total Energy =                       -786.5835952136731066
  Basis Set: CC-PVTZ
  Basis Set:
  Basis Set: CC-PVTZ
  Basis Set:
  @DF-RHF Final Energy:  -786.58359751303840
    Total Energy =                       -786.5835975130383986
  Basis Set: CC-PVTZ
  Basis Set:
  Charge       = 0
  Multiplicity = 1
  Basis Set: CC-PVTZ
  Basis Set:

    Orbital Energies (a.u.)
    -----------------------

    Doubly Occupied:

       1A    -26.358609     2A    -26.356827     3A    -26.356456
       4A    -26.355769     5A    -26.355464     6A    -26.351914
       7A    -20.608738     8A    -11.522613     9A    -11.517192
      10A    -11.351807    11A     -1.772177    12A     -1.765430
      13A     -1.665876    14A     -1.663986    15A     -1.663606
      16A     -1.659027    17A     -1.438705    18A     -1.100189
      19A     -1.000667    20A     -0.943947    21A     -0.872482
      22A     -0.865705    23A     -0.857766    24A     -0.853512
      25A     -0.841568    26A     -0.819801    27A     -0.739659
      28A     -0.737016    29A     -0.735699    30A     -0.730159
      31A     -0.694606    32A     -0.691516    33A     -0.688573
      34A     -0.684071    35A     -0.674822    36A     -0.668808
      37A     -0.662439    38A     -0.654358    39A     -0.622482
      40A     -0.552138    41A     -0.508984

  @DF-RHF Final Energy:  -786.58359778346266

   => Energetics <=

    Nuclear Repulsion Energy =            669.5918926383315011
    One-Electron Energy =               -2426.4206499612296284
    Two-Electron Energy =                 970.2451595394351216
    DFT Exchange-Correlation Energy =       0.0000000000000000
    Empirical Dispersion Energy =           0.0000000000000000
    PCM Polarization Energy =               0.0000000000000000
    EFP Energy =                            0.0000000000000000
    Total Energy =                       -786.5835977834630057
    Molecular point group: c1
  Basis Set: CC-PVTZ
  Basis Set:

  -Total Gradient:
     Atom            X                  Y                   Z
    ------   -----------------  -----------------  -----------------
       1       -0.000001133820    -0.000002495158    -0.000004310206
       2        0.000005266914    -0.000017507290     0.000010831237
       3        0.000267530523    -0.000511284966    -0.000116750522
       4        0.000289933275    -0.000084050546     0.000643425723
       5        0.000005661473    -0.000021683351    -0.000004423994
       6       -0.000268058458     0.000476214348    -0.000048110726
       7       -0.000232263932     0.000120545026    -0.000414187415
       8       -0.000015601504    -0.000005586506    -0.000037478483
       9       -0.000000296323     0.000032426413    -0.000044509366
      10       -0.000026684796     0.000017809039     0.000008438630
      11       -0.000018442663    -0.000026839862    -0.000020936187
      12       -0.000005910704     0.000022452856     0.000028011309

  **** Optimization is complete! (in 7 steps) ****
    Final optimized geometry and variables:
    Molecular point group: c1

    Geometry (in Angstrom), charge = 0, multiplicity = 1:

    H           -0.045325958021     2.053822265262     0.707369655073
    O            0.041838231805     1.907393927467    -0.219655910954
    C            0.006901318597     0.566923242321    -0.527666072604
    C           -1.290669671269    -0.124466407705    -0.025422184983
    C            1.286204699994    -0.119472713026    -0.052628001714
    H            0.001218162156     0.491267894773    -1.603631632701
    F           -2.039115590863     0.720729973580     0.641455059435
    F           -1.992127204757    -0.560653280182    -1.046149396157
    F           -1.063002165790    -1.148274176607     0.761755343262
    F            2.324220429858     0.468809423438    -0.593230741297
    F            1.315224614658    -1.382478170790    -0.402361616223
    F            1.420376909605    -0.043003430921     1.253596089401

  Mulliken Charges: (a.u.)
   Center  Symbol    Alpha    Beta     Spin     Total
       1     H     0.38237  0.38237  0.00000  0.23527
       2     O     4.18360  4.18360  0.00000 -0.36720
       3     C     3.02258  3.02258  0.00000 -0.04516
       4     C     2.67372  2.67372  0.00000  0.65256
       5     C     2.67823  2.67823  0.00000  0.64354
       6     H     0.42826  0.42826  0.00000  0.14347
       7     F     4.60528  4.60528  0.00000 -0.21056
       8     F     4.60518  4.60518  0.00000 -0.21037
       9     F     4.60190  4.60190  0.00000 -0.20379
      10     F     4.60152  4.60152  0.00000 -0.20305
      11     F     4.60583  4.60583  0.00000 -0.21167
      12     F     4.61152  4.61152  0.00000 -0.22304

   Total alpha = 41.00000, Total beta = 41.00000, Total charge = -0.00000
