  ==> Input File <==

--------------------------------------------------------------------------
set {
	reference rhf
	basis 6-31G*
}

set_num_threads( 1 )
memory 2 gb

molecule MOL {
0 1

H	 1.706674	 2.219434	 2.417370
O	 2.616931	 2.054073	 2.219479
C	 2.906234	 0.694244	 2.422515
C	 2.313891	 -0.213038	 1.349810
H	 3.985917	 0.618038	 2.410279
H	 2.571050	 0.376533	 3.409171
C	 0.783699	 -0.216130	 1.312792
H	 2.701719	 0.097299	 0.383038
H	 2.673433	 -1.225534	 1.525730
C	 0.219554	 -1.177006	 0.262422
H	 0.429368	 0.790862	 1.110850
H	 0.398329	 -0.493411	 2.294090
C	 -1.309753	 -1.282496	 0.241564
H	 0.573102	 -0.878158	 -0.722738
H	 0.630501	 -2.167946	 0.443694
C	 -2.037799	 -0.007733	 -0.193645
H	 -1.587490	 -2.088337	 -0.434674
H	 -1.662903	 -1.580897	 1.227505
C	 -3.489788	 0.042957	 0.286558
H	 -2.017067	 0.064384	 -1.280144
H	 -1.513726	 0.868678	 0.179924
C	 -4.216917	 1.317354	 -0.141063
H	 -4.025645	 -0.823308	 -0.095450
H	 -3.513059	 -0.038752	 1.371301
H	 -4.239342	 1.411634	 -1.223113
H	 -5.243387	 1.322503	 0.212445
H	 -3.726170	 2.201406	 0.256408

	symmetry c1
}
set optking {
	frozen_dihedral = ("
		14 10 7 4,
		14 10 13 16,
		10 7 4 8,
		8 4 3 2,
		20 16 19 22,
		4 3 2 1
	")
}

ee = energy('scf')
oeprop('DIPOLE', 'QUADRUPOLE', 'MULLIKEN_CHARGES')
f=open( 'psi4out.xyz', 'w' )
f.write( "27  " )
f.write( str(ee) + "\n" )
f.write( MOL.save_string_xyz() )
f.close()
--------------------------------------------------------------------------

    Molecular point group: c1

    Geometry (in Angstrom), charge = 0, multiplicity = 1:

       Center              X                  Y                   Z               Mass
    ------------   -----------------  -----------------  -----------------  -----------------
           H          1.922329171534     2.039373955456     1.529197368475     1.007825032070
           O          2.832586171534     1.874012955456     1.331306368475    15.994914619560
           C          3.121889171534     0.514183955456     1.534342368475    12.000000000000
           C          2.529546171534    -0.393098044544     0.461637368475    12.000000000000
           H          4.201572171534     0.437977955456     1.522106368475     1.007825032070
           H          2.786705171534     0.196472955456     2.520998368475     1.007825032070
           C          0.999354171534    -0.396190044544     0.424619368475    12.000000000000
           H          2.917374171534    -0.082761044544    -0.505134631525     1.007825032070
           H          2.889088171534    -1.405594044544     0.637557368475     1.007825032070
           C          0.435209171534    -1.357066044544    -0.625750631525    12.000000000000
           H          0.645023171534     0.610801955456     0.222677368475     1.007825032070
           H          0.613984171534    -0.673471044544     1.405917368475     1.007825032070
           C         -1.094097828466    -1.462556044544    -0.646608631525    12.000000000000
           H          0.788757171534    -1.058218044544    -1.610910631525     1.007825032070
           H          0.846156171534    -2.348006044544    -0.444478631525     1.007825032070
           C         -1.822143828466    -0.187793044544    -1.081817631525    12.000000000000
           H         -1.371834828466    -2.268397044544    -1.322846631525     1.007825032070
           H         -1.447247828466    -1.760957044544     0.339332368475     1.007825032070
           C         -3.274132828466    -0.137103044544    -0.601614631525    12.000000000000
           H         -1.801411828466    -0.115676044544    -2.168316631525     1.007825032070
           H         -1.298070828466     0.688617955456    -0.708248631525     1.007825032070
           C         -4.001261828466     1.137293955456    -1.029235631525    12.000000000000
           H         -3.809989828466    -1.003368044544    -0.983622631525     1.007825032070
           H         -3.297403828466    -0.218812044544     0.483128368475     1.007825032070
           H         -4.023686828466     1.231573955456    -2.111285631525     1.007825032070
           H         -5.027731828466     1.142442955456    -0.675727631525     1.007825032070
           H         -3.510514828466     2.021345955456    -0.631764631525     1.007825032070

  Charge       = 0
  Multiplicity = 1
  Basis Set: 6-31G*
  Basis Set:

    Orbital Energies (a.u.)
    -----------------------

    Doubly Occupied:

       1A    -20.552496     2A    -11.267212     3A    -11.219964
       4A    -11.217437     5A    -11.216329     6A    -11.215438
       7A    -11.215255     8A    -11.213654     9A    -11.209412
      10A     -1.359228    11A     -1.095494    12A     -1.061502
      13A     -1.011596    14A     -0.948582    15A     -0.888370
      16A     -0.820505    17A     -0.801132    18A     -0.778584
      19A     -0.693867    20A     -0.647510    21A     -0.644138
      22A     -0.613666    23A     -0.599026    24A     -0.583516
      25A     -0.580691    26A     -0.553659    27A     -0.544602
      28A     -0.528228    29A     -0.504588    30A     -0.493465
      31A     -0.487205    32A     -0.476879    33A     -0.467317
      34A     -0.460427    35A     -0.450587    36A     -0.441315
      37A     -0.423542

  @DF-RHF Final Energy:  -388.27961893839438

   => Energetics <=

    Nuclear Repulsion Energy =            461.5604739312561833
    One-Electron Energy =               -1441.1077565728048739
    Two-Electron Energy =                 591.2676637031560176
    DFT Exchange-Correlation Energy =       0.0000000000000000
    Empirical Dispersion Energy =           0.0000000000000000
    PCM Polarization Energy =               0.0000000000000000
    EFP Energy =                            0.0000000000000000
    Total Energy =                       -388.2796189383926730

  Mulliken Charges: (a.u.)
   Center  Symbol    Alpha    Beta     Spin     Total
       1     H     0.27985  0.27985  0.00000  0.44030
       2     O     4.37092  4.37092  0.00000 -0.74184
       3     C     2.99743  2.99743  0.00000  0.00514
       4     C     3.16072  3.16072  0.00000 -0.32144
       5     H     0.41438  0.41438  0.00000  0.17124
       6     H     0.43200  0.43200  0.00000  0.13600
       7     C     3.16312  3.16312  0.00000 -0.32625
       8     H     0.41491  0.41491  0.00000  0.17018
       9     H     0.42423  0.42423  0.00000  0.15154
      10     C     3.15248  3.15248  0.00000 -0.30496
      11     H     0.42352  0.42352  0.00000  0.15295
      12     H     0.42540  0.42540  0.00000  0.14921
      13     C     3.15461  3.15461  0.00000 -0.30922
      14     H     0.42169  0.42169  0.00000  0.15662
      15     H     0.42145  0.42145  0.00000  0.15709
      16     C     3.15330  3.15330  0.00000 -0.30660
      17     H     0.42013  0.42013  0.00000  0.15975
      18     H     0.42404  0.42404  0.00000  0.15191
      19     C     3.15191  3.15191  0.00000 -0.30381
      20     H     0.42207  0.42207  0.00000  0.15586
      21     H     0.42313  0.42313  0.00000  0.15373
      22     C     3.23930  3.23930  0.00000 -0.47860
      23     H     0.42271  0.42271  0.00000  0.15457
      24     H     0.42362  0.42362  0.00000  0.15277
      25     H     0.42140  0.42140  0.00000  0.15721
      26     H     0.41932  0.41932  0.00000  0.16137
      27     H     0.42237  0.42237  0.00000  0.15527

   Total alpha = 37.00000, Total beta = 37.00000, Total charge =  0.00000
