                              Psi4 1.0.54 Driver

  ==> Input File <==

--------------------------------------------------------------------------
set {
	reference rhf
	basis cc-pvtz
}

set_num_threads( 4 )
memory 2 gb

molecule MOL {
0 1

H	 2.431899	 -2.142859	 -4.078950
C	 2.571779	 -1.137386	 -3.699048
C	 1.361876	 -0.679935	 -2.891461
H	 3.468738	 -1.135967	 -3.089394
H	 2.747701	 -0.484502	 -4.547925
C	 1.518941	 0.738700	 -2.348530
H	 1.201257	 -1.366364	 -2.068080
H	 0.473748	 -0.727469	 -3.517395
C	 0.320107	 1.226084	 -1.540979
H	 2.406416	 0.793884	 -1.730329
H	 1.669825	 1.421224	 -3.179902
C	 0.166485	 0.574257	 -0.177158
H	 0.409086	 2.293789	 -1.356980
H	 -0.602467	 1.100138	 -2.100007
C	 -1.180025	 0.697761	 0.509157
O	 1.068691	 0.005363	 0.347875
C	 -2.285431	 -0.137488	 -0.145671
H	 -1.447360	 1.745713	 0.496200
H	 -1.065514	 0.394096	 1.546399
C	 -3.646545	 0.082747	 0.508954
H	 -2.348635	 0.118247	 -1.199806
H	 -2.034895	 -1.192387	 -0.096473
C	 -4.757412	 -0.737227	 -0.138149
H	 -3.900211	 1.137405	 0.459735
H	 -3.580878	 -0.166775	 1.564416
H	 -4.867876	 -0.486707	 -1.187777
H	 -4.549650	 -1.800049	 -0.072540
H	 -5.709585	 -0.556397	 0.346597

	symmetry c1
}
set optking {
	frozen_dihedral = ("
		16 12 15 17
	")
}

ee,wfn = optimize('scf', return_wfn=True)
oeprop( wfn, 'DIPOLE', 'QUADRUPOLE', 'MULLIKEN_CHARGES')
f=open( 'psi4out.xyz', 'w' )
f.write( "28  " )
f.write( str(ee) + "\n" )
f.write( MOL.save_string_xyz() )
f.close()
--------------------------------------------------------------------------

    Molecular point group: c1
  Charge       = 0
  Multiplicity = 1
  Basis Set: CC-PVTZ
  Basis Set:
  @DF-RHF Final Energy:  -426.31933629874538
    Total Energy =                       -426.3193362987454975
    Molecular point group: c1
  Basis Set: CC-PVTZ
  Basis Set:
  Basis Set: CC-PVTZ
  Basis Set:
  @DF-RHF Final Energy:  -426.31801684985317
    Total Energy =                       -426.3180168498538478
  Basis Set: CC-PVTZ
  Basis Set:
  Basis Set: CC-PVTZ
  Basis Set:
  @DF-RHF Final Energy:  -426.31706892181205
    Total Energy =                       -426.3170689218118241
  Basis Set: CC-PVTZ
  Basis Set:
  Basis Set: CC-PVTZ
  Basis Set:
  @DF-RHF Final Energy:  -426.31960341914021
    Total Energy =                       -426.3196034191394119
  Basis Set: CC-PVTZ
  Basis Set:
  @DF-RHF Final Energy:  -426.31977916580468
    Total Energy =                       -426.3197791658047890
  Basis Set: CC-PVTZ
  Basis Set:
  @DF-RHF Final Energy:  -426.31990419623537
    Total Energy =                       -426.3199041962359388
  Basis Set: CC-PVTZ
  Basis Set:
  Basis Set: CC-PVTZ
  Basis Set:
  @DF-RHF Final Energy:  -426.31990290661633
    Total Energy =                       -426.3199029066164485
  Basis Set: CC-PVTZ
  Basis Set:
  Basis Set: CC-PVTZ
  Basis Set:
  @DF-RHF Final Energy:  -426.31990688406415
    Total Energy =                       -426.3199068840640393
  Basis Set: CC-PVTZ
  Basis Set:
  Charge       = 0
  Multiplicity = 1
  Basis Set: CC-PVTZ
  Basis Set:

    Orbital Energies (a.u.)
    -----------------------

    Doubly Occupied:

       1A    -20.536568     2A    -11.316662     3A    -11.229443
       4A    -11.228397     5A    -11.226960     6A    -11.223614
       7A    -11.214474     8A    -11.213976     9A    -11.210772
      10A    -11.203953    11A     -1.396529    12A     -1.095747
      13A     -1.078917    14A     -1.023648    15A     -0.991993
      16A     -0.909020    17A     -0.872513    18A     -0.808544
      19A     -0.800807    20A     -0.724699    21A     -0.671333
      22A     -0.654098    23A     -0.628783    24A     -0.621798
      25A     -0.611024    26A     -0.590089    27A     -0.577497
      28A     -0.573958    29A     -0.547296    30A     -0.528486
      31A     -0.520280    32A     -0.509723    33A     -0.504315
      34A     -0.484783    35A     -0.477414    36A     -0.475295
      37A     -0.472185    38A     -0.466178    39A     -0.457681
      40A     -0.394338

  @DF-RHF Final Energy:  -426.31990764497198

   => Energetics <=

    Nuclear Repulsion Energy =            535.6855789834456800
    One-Electron Energy =               -1639.8634023247834648
    Two-Electron Energy =                 677.8579156963654668
    DFT Exchange-Correlation Energy =       0.0000000000000000
    Empirical Dispersion Energy =           0.0000000000000000
    PCM Polarization Energy =               0.0000000000000000
    EFP Energy =                            0.0000000000000000
    Total Energy =                       -426.3199076449724316
    Molecular point group: c1
  Basis Set: CC-PVTZ
  Basis Set:

  -Total Gradient:
     Atom            X                  Y                   Z
    ------   -----------------  -----------------  -----------------
       1        0.000003194849     0.000004150799    -0.000000004995
       2       -0.000012143228    -0.000012042191    -0.000006489440
       3        0.000017861010     0.000015582645    -0.000020319074
       4       -0.000001989691    -0.000001040573     0.000000402503
       5       -0.000001815714     0.000000393275     0.000004530857
       6       -0.000000366353     0.000020701102    -0.000008925527
       7        0.000001871685    -0.000013382429     0.000002776096
       8       -0.000000682857    -0.000002700463     0.000003069939
       9       -0.000026769435    -0.000025190601    -0.000002623509
      10       -0.000002287606    -0.000001953086     0.000000472576
      11        0.000005031962    -0.000005610397     0.000007892421
      12       -0.000850749341    -0.001493448134    -0.001540108697
      13       -0.000004492824    -0.000005137503     0.000008797379
      14        0.000011592584     0.000019357996    -0.000002999387
      15        0.000595168768    -0.000909277492     0.001284186067
      16        0.000527755885     0.001369826848     0.000930637392
      17       -0.000247300694     0.001058149316    -0.000654979418
      18        0.000004330202    -0.000024055152    -0.000018192425
      19       -0.000013023659     0.000011134947    -0.000004152854
      20       -0.000015687823    -0.000021294696     0.000008353877
      21       -0.000009346305    -0.000001471685     0.000007452164
      22        0.000008746411     0.000006788345     0.000002358914
      23        0.000011361109     0.000007991659    -0.000011714378
      24       -0.000001601271    -0.000000153510    -0.000000290423
      25        0.000007601432     0.000000493230     0.000005310417
      26        0.000000973612    -0.000004315530    -0.000004978924
      27        0.000001639978     0.000001278746     0.000000378286
      28       -0.000008872691     0.000005224538     0.000009160167

  **** Optimization is complete! (in 9 steps) ****
    Final optimized geometry and variables:
    Molecular point group: c1

    Geometry (in Angstrom), charge = 0, multiplicity = 1:

    H            3.125979577841    -1.710691000904    -3.310453070768
    C            3.226862639716    -0.771190878517    -2.779394725074
    C            1.966708244907    -0.449935551465    -1.983194254607
    H            4.088968229769    -0.851373745748    -2.126286782713
    H            3.437221170781     0.001773669130    -3.511560983683
    C            2.068177943101     0.874400931331    -1.229573406370
    H            1.773774166692    -1.251576813403    -1.279699225040
    H            1.115045091596    -0.413281422108    -2.658571661214
    C            0.817969076360     1.225075339842    -0.429896201994
    H            2.919404576998     0.846094062911    -0.560621819936
    H            2.252321096528     1.673538875260    -1.941805430475
    C            0.603712310840     0.393479005208     0.822488060453
    H            0.871895220729     2.255788455876    -0.084387691575
    H           -0.066966468767     1.174624709039    -1.054724015099
    C           -0.751701740088     0.485891424372     1.496814423894
    O            1.475466284679    -0.262605604377     1.294591247309
    C           -1.867142110709    -0.232657910394     0.729092114051
    H           -1.013871224637     1.534686215838     1.609102767683
    H           -0.645381231610     0.058770524647     2.484637144259
    C           -3.200931136231    -0.195330952753     1.470504792039
    H           -1.994973097621     0.213237827414    -0.251653412871
    H           -1.577242906485    -1.266559945878     0.564660517324
    C           -4.318582580967    -0.910403319421     0.719184026454
    H           -3.485840439939     0.838798032037     1.643695944038
    H           -3.077881406107    -0.646562261307     2.450450863674
    H           -4.489029824103    -0.459461381416    -0.252754140493
    H           -4.076430101314    -1.955694558401     0.560081357454
    H           -5.250142347483    -0.867237441821     1.271176611619

  Mulliken Charges: (a.u.)
   Center  Symbol    Alpha    Beta     Spin     Total
       1     H     0.44880  0.44880  0.00000  0.10239
       2     C     3.15146  3.15146  0.00000 -0.30292
       3     C     3.08454  3.08454  0.00000 -0.16908
       4     H     0.45173  0.45173  0.00000  0.09655
       5     H     0.45692  0.45692  0.00000  0.08615
       6     C     3.08822  3.08822  0.00000 -0.17644
       7     H     0.44580  0.44580  0.00000  0.10840
       8     H     0.45862  0.45862  0.00000  0.08275
       9     C     3.12700  3.12700  0.00000 -0.25401
      10     H     0.44455  0.44455  0.00000  0.11091
      11     H     0.44761  0.44761  0.00000  0.10477
      12     C     2.86746  2.86746  0.00000  0.26507
      13     H     0.43426  0.43426  0.00000  0.13148
      14     H     0.44304  0.44304  0.00000  0.11393
      15     C     3.09144  3.09144  0.00000 -0.18289
      16     O     4.17945  4.17945  0.00000 -0.35890
      17     C     3.10030  3.10030  0.00000 -0.20059
      18     H     0.45034  0.45034  0.00000  0.09931
      19     H     0.43732  0.43732  0.00000  0.12537
      20     C     3.08721  3.08721  0.00000 -0.17442
      21     H     0.45062  0.45062  0.00000  0.09877
      22     H     0.44516  0.44516  0.00000  0.10969
      23     C     3.14908  3.14908  0.00000 -0.29816
      24     H     0.45360  0.45360  0.00000  0.09280
      25     H     0.45002  0.45002  0.00000  0.09996
      26     H     0.45527  0.45527  0.00000  0.08945
      27     H     0.45328  0.45328  0.00000  0.09344
      28     H     0.44690  0.44690  0.00000  0.10620

   Total alpha = 40.00000, Total beta = 40.00000, Total charge = -0.00000

*** Psi4 exiting successfully. Buy a developer a beer!
