  ==> Input File <==

--------------------------------------------------------------------------
set {
	reference rhf
	basis 6-31G*
}

set_num_threads( 4 )
memory 2 gb

molecule MOL {
0 1

O	 3.225979	 0.970355	 -0.599647
C	 2.701189	 0.057885	 -0.047330
C	 1.245376	 -0.013843	 0.345420
O	 3.347903	 -1.046386	 0.304773
C	 0.907331	 -1.252775	 1.171792
H	 1.012985	 0.904197	 0.874937
H	 0.661662	 0.016247	 -0.571134
C	 -0.585184	 -1.394463	 1.489311
H	 1.479658	 -1.235566	 2.094432
H	 1.240088	 -2.131290	 0.629661
C	 -1.154031	 -0.313292	 2.412671
H	 -0.739850	 -2.365191	 1.954595
H	 -1.153432	 -1.411578	 0.560436
C	 -2.616820	 -0.560142	 2.787255
H	 -0.553725	 -0.265691	 3.319966
H	 -1.072486	 0.663278	 1.940830
C	 -3.197400	 0.516818	 3.705522
H	 -2.705060	 -1.530693	 3.272517
H	 -3.215969	 -0.618546	 1.879891
C	 -4.657361	 0.260850	 4.077938
H	 -2.599266	 0.577205	 4.612292
H	 -3.114061	 1.487108	 3.220370
H	 -5.040232	 1.040725	 4.728947
H	 -4.769232	 -0.687199	 4.596478
H	 -5.287797	 0.229120	 3.193733
C	 4.728119	 -1.109107	 -0.004993
H	 4.882018	 -1.033965	 -1.071845
H	 5.068212	 -2.067527	 0.355250
H	 5.265056	 -0.311663	 0.488280

	symmetry c1
}
set optking {
	frozen_dihedral = ("
		6 3 2 1
	")
}

ee = optimize('scf')
oeprop('DIPOLE', 'QUADRUPOLE', 'MULLIKEN_CHARGES')
f=open( 'psi4out.xyz', 'w' )
f.write( "29  " )
f.write( str(ee) + "\n" )
f.write( MOL.save_string_xyz() )
f.close()
--------------------------------------------------------------------------

    Molecular point group: c1
  Charge       = 0
  Multiplicity = 1
  Basis Set: 6-31G*
  Basis Set:
  @DF-RHF Final Energy:  -501.03979782421277
    Total Energy =                       -501.0397978242124282
    Molecular point group: c1
  Basis Set: 6-31G*
  Basis Set:
  Basis Set: 6-31G*
  Basis Set:
  @DF-RHF Final Energy:  -501.04073568311549
    Total Energy =                       -501.0407356831152583
  Basis Set: 6-31G*
  Basis Set:
  Basis Set: 6-31G*
  Basis Set:
  @DF-RHF Final Energy:  -501.04130468668279
    Total Energy =                       -501.0413046866824516
  Basis Set: 6-31G*
  Basis Set:
  Basis Set: 6-31G*
  Basis Set:
  @DF-RHF Final Energy:  -501.04129349732966
    Total Energy =                       -501.0412934973296615
  Basis Set: 6-31G*
  Basis Set:
  Basis Set: 6-31G*
  Basis Set:
  @DF-RHF Final Energy:  -501.04139735746685
    Total Energy =                       -501.0413973574666215
  Basis Set: 6-31G*
  Basis Set:
  Basis Set: 6-31G*
  Basis Set:
  @DF-RHF Final Energy:  -501.04140652020374
    Total Energy =                       -501.0414065202038501
  Basis Set: 6-31G*
  Basis Set:
  Charge       = 0
  Multiplicity = 1
  Basis Set: 6-31G*
  Basis Set:

    Orbital Energies (a.u.)
    -----------------------

    Doubly Occupied:

       1A    -20.606418     2A    -20.539657     3A    -11.372182
       4A    -11.281456     5A    -11.234885     6A    -11.222851
       7A    -11.219750     8A    -11.217071     9A    -11.216261
      10A    -11.215235    11A    -11.209345    12A     -1.469991
      13A     -1.360366    14A     -1.099726    15A     -1.067744
      16A     -1.018452    17A     -0.973783    18A     -0.932485
      19A     -0.865032    20A     -0.799521    21A     -0.790918
      22A     -0.773418    23A     -0.697299    24A     -0.682629
      25A     -0.669628    26A     -0.651417    27A     -0.629122
      28A     -0.605346    29A     -0.591074    30A     -0.578001
      31A     -0.565265    32A     -0.548678    33A     -0.536205
      34A     -0.531433    35A     -0.520601    36A     -0.512521
      37A     -0.499343    38A     -0.482438    39A     -0.472582
      40A     -0.464637    41A     -0.462891    42A     -0.452440
      43A     -0.442932    44A     -0.425508

  @DF-RHF Final Energy:  -501.04140580318960

   => Energetics <=

    Nuclear Repulsion Energy =            612.2510616172795608
    One-Electron Energy =               -1895.5678597841333612
    Two-Electron Energy =                 782.2753923636647642
    DFT Exchange-Correlation Energy =       0.0000000000000000
    Empirical Dispersion Energy =           0.0000000000000000
    PCM Polarization Energy =               0.0000000000000000
    EFP Energy =                            0.0000000000000000
    Total Energy =                       -501.0414058031891500
    Molecular point group: c1
  Basis Set: 6-31G*
  Basis Set:

  -Total Gradient:
     Atom            X                  Y                   Z
    ------   -----------------  -----------------  -----------------
       1       -0.000076852254    -0.000032900767    -0.000133416174
       2        0.000056346894     0.000121325039     0.000112194554
       3       -0.000054887330     0.000098487162    -0.000318822931
       4        0.000137511501    -0.000070080219     0.000050894353
       5       -0.000035656248    -0.000044174922     0.000117182510
       6        0.000081186701    -0.000117773511     0.000183121633
       7        0.000011393446     0.000001846925    -0.000019250289
       8       -0.000009437024     0.000010589645    -0.000029413569
       9        0.000006041964    -0.000011393342     0.000007444762
      10       -0.000005470913     0.000040859513     0.000023473304
      11       -0.000024800465    -0.000005751098    -0.000010465355
      12       -0.000025049933     0.000020173621    -0.000009561868
      13       -0.000006704037     0.000005303003    -0.000016214236
      14        0.000007205322    -0.000003026638     0.000024301488
      15        0.000009526748     0.000016669461    -0.000016406579
      16       -0.000037271356    -0.000021373775     0.000009750332
      17        0.000000431209    -0.000011167707     0.000016374196
      18       -0.000004310551    -0.000010356084    -0.000005533471
      19        0.000009031861     0.000011106054     0.000004858775
      20        0.000001121270    -0.000000659694     0.000001451244
      21       -0.000000470931     0.000002780834     0.000002544012
      22        0.000001076983    -0.000002923161    -0.000002867672
      23        0.000000475642     0.000000204936    -0.000000903763
      24       -0.000000251349     0.000000139539     0.000000358266
      25       -0.000000355890    -0.000000237257    -0.000000728469
      26       -0.000022712640     0.000007706950    -0.000001138259
      27       -0.000005506722     0.000001527017     0.000004891343
      28       -0.000011849102    -0.000005953083     0.000007595660
      29        0.000000237185    -0.000000948439    -0.000001713792

  **** Optimization is complete! (in 7 steps) ****
    Final optimized geometry and variables:
    Molecular point group: c1

    Geometry (in Angstrom), charge = 0, multiplicity = 1:

    O            2.753154623779     1.322813791328    -1.993741556137
    C            2.312481769738     0.368174765754    -1.436643122964
    C            0.856459251512     0.242213586007    -1.041684442506
    O            3.049209501874    -0.683679449302    -1.115351886845
    C            0.469762689478    -0.989115621940    -0.221148149037
    H            0.616214243752     1.161381083473    -0.520061635747
    H            0.292625593736     0.272894402369    -1.970524519093
    C           -1.031730281589    -1.074799971718     0.077700841925
    H            1.027110995785    -0.995965555175     0.711226698548
    H            0.771196665811    -1.880480111019    -0.760161793818
    C           -1.568885637743     0.014434995569     1.010663107410
    H           -1.230410726768    -2.045025564426     0.527165004223
    H           -1.588496143641    -1.056514375496    -0.857988064870
    C           -3.042233865278    -0.185979883159     1.371498079640
    H           -0.974354363414     0.029044844759     1.922914424250
    H           -1.449866233571     0.993429190080     0.552727715077
    C           -3.590824959970     0.897381956887     2.301811200257
    H           -3.168566256817    -1.159883667706     1.841502340775
    H           -3.636244034298    -0.209440769308     0.459253648567
    C           -5.061884742659     0.688525814098     2.659626827792
    H           -2.997992551599     0.922656629996     3.213719963196
    H           -3.468900369586     1.871056545636     1.832043319559
    H           -5.421536593289     1.471999676427     3.319449810566
    H           -5.211817791107    -0.262453372276     3.163025470794
    H           -5.686073523312     0.692678181199     1.770469967052
    C            4.421111255353    -0.635963037822    -1.465106586523
    H            4.535983371017    -0.540980838557    -2.535061062796
    H            4.844549748500    -1.567488627725    -1.123269701639
    H            4.906790351519     0.198192759139    -0.980042822766

  Mulliken Charges: (a.u.)
   Center  Symbol    Alpha    Beta     Spin     Total
       1     O     4.28958  4.28958  0.00000 -0.57917
       2     C     2.60394  2.60394  0.00000  0.79211
       3     C     3.21397  3.21397  0.00000 -0.42794
       4     O     4.30431  4.30431  0.00000 -0.60862
       5     C     3.15232  3.15232  0.00000 -0.30464
       6     H     0.39590  0.39590  0.00000  0.20820
       7     H     0.39911  0.39911  0.00000  0.20177
       8     C     3.15711  3.15711  0.00000 -0.31423
       9     H     0.41614  0.41614  0.00000  0.16772
      10     H     0.41113  0.41113  0.00000  0.17773
      11     C     3.15531  3.15531  0.00000 -0.31062
      12     H     0.41867  0.41867  0.00000  0.16265
      13     H     0.42300  0.42300  0.00000  0.15400
      14     C     3.15040  3.15040  0.00000 -0.30081
      15     H     0.42307  0.42307  0.00000  0.15385
      16     H     0.42201  0.42201  0.00000  0.15598
      17     C     3.15158  3.15158  0.00000 -0.30317
      18     H     0.42371  0.42371  0.00000  0.15258
      19     H     0.42361  0.42361  0.00000  0.15279
      20     C     3.23940  3.23940  0.00000 -0.47879
      21     H     0.42293  0.42293  0.00000  0.15414
      22     H     0.42271  0.42271  0.00000  0.15458
      23     H     0.41901  0.41901  0.00000  0.16198
      24     H     0.42179  0.42179  0.00000  0.15643
      25     H     0.42164  0.42164  0.00000  0.15672
      26     C     3.09264  3.09264  0.00000 -0.18528
      27     H     0.40824  0.40824  0.00000  0.18353
      28     H     0.40863  0.40863  0.00000  0.18274
      29     H     0.40811  0.40811  0.00000  0.18377

   Total alpha = 44.00000, Total beta = 44.00000, Total charge =  0.00000
