                              Psi4 1.0.54 Driver

  ==> Input File <==

--------------------------------------------------------------------------
set {
	reference rhf
	basis cc-pvtz
}

set_num_threads( 4 )
memory 2 gb

molecule MOL {
0 1

O	 1.778406	 1.414595	 0.344784
C	 1.503356	 0.467941	 0.999944
C	 0.184701	 -0.261529	 0.974198
O	 2.341562	 -0.085037	 1.861362
C	 -0.824290	 0.329213	 -0.000115
H	 0.396846	 -1.299421	 0.739202
H	 -0.201629	 -0.261702	 1.988195
C	 -2.146151	 -0.432825	 -0.000068
H	 -0.399648	 0.329894	 -0.997588
H	 -0.998622	 1.368914	 0.252709
C	 -3.366283	 0.483552	 0.000557
H	 -2.189286	 -1.084450	 -0.869996
H	 -2.188867	 -1.085083	 0.869399
C	 -4.687436	 -0.278003	 0.000108
H	 -3.325150	 1.134819	 -0.867957
H	 -3.325087	 1.133730	 0.869885
H	 -4.773783	 -0.912098	 -0.876078
H	 -5.531922	 0.401392	 0.000363
H	 -4.773901	 -0.912898	 0.875703
C	 3.621644	 0.500303	 1.988217
H	 4.149230	 0.471257	 1.046399
H	 4.145013	 -0.085636	 2.726193
H	 3.541028	 1.526290	 2.315428

	symmetry c1
}
set optking {
	frozen_dihedral = ("
		9 5 8 12
	")
}

ee,wfn = optimize('scf', return_wfn=True)
oeprop( wfn, 'DIPOLE', 'QUADRUPOLE', 'MULLIKEN_CHARGES')
f=open( 'psi4out.xyz', 'w' )
f.write( "23  " )
f.write( str(ee) + "\n" )
f.write( MOL.save_string_xyz() )
f.close()
--------------------------------------------------------------------------

    Molecular point group: c1
  Charge       = 0
  Multiplicity = 1
  Basis Set: CC-PVTZ
  Basis Set:
  @DF-RHF Final Energy:  -423.12627815877750
    Total Energy =                       -423.1262781587776090
    Molecular point group: c1
  Basis Set: CC-PVTZ
  Basis Set:
  Basis Set: CC-PVTZ
  Basis Set:
  @DF-RHF Final Energy:  -423.12655020256466
    Total Energy =                       -423.1265502025644309
  Basis Set: CC-PVTZ
  Basis Set:
  Basis Set: CC-PVTZ
  Basis Set:
  @DF-RHF Final Energy:  -423.12643983610906
    Total Energy =                       -423.1264398361091708
  Basis Set: CC-PVTZ
  Basis Set:
  Basis Set: CC-PVTZ
  Basis Set:
  @DF-RHF Final Energy:  -423.12662700360966
    Total Energy =                       -423.1266270036097694
  Basis Set: CC-PVTZ
  Basis Set:
  Charge       = 0
  Multiplicity = 1
  Basis Set: CC-PVTZ
  Basis Set:

    Orbital Energies (a.u.)
    -----------------------

    Doubly Occupied:

       1A    -20.596180     2A    -20.534087     3A    -11.364251
       4A    -11.278403     5A    -11.233915     6A    -11.217115
       7A    -11.215722     8A    -11.214950     9A    -11.207726
      10A     -1.472046    11A     -1.365644    12A     -1.092874
      13A     -1.044625    14A     -0.987337    15A     -0.932104
      16A     -0.845012    17A     -0.795560    18A     -0.769258
      19A     -0.700993    20A     -0.685914    21A     -0.675782
      22A     -0.645406    23A     -0.615540    24A     -0.600493
      25A     -0.572903    26A     -0.560612    27A     -0.556149
      28A     -0.528268    29A     -0.522993    30A     -0.503249
      31A     -0.489768    32A     -0.470556    33A     -0.465328
      34A     -0.462320    35A     -0.455807    36A     -0.437736

  @DF-RHF Final Energy:  -423.12662739956062

   => Energetics <=

    Nuclear Repulsion Energy =            453.2281550618136521
    One-Electron Energy =               -1474.4763102164317843
    Two-Electron Energy =                 598.1215277550570590
    DFT Exchange-Correlation Energy =       0.0000000000000000
    Empirical Dispersion Energy =           0.0000000000000000
    PCM Polarization Energy =               0.0000000000000000
    EFP Energy =                            0.0000000000000000
    Total Energy =                       -423.1266273995611300
    Molecular point group: c1
  Basis Set: CC-PVTZ
  Basis Set:

  -Total Gradient:
     Atom            X                  Y                   Z
    ------   -----------------  -----------------  -----------------
       1       -0.000002084830     0.000004228126    -0.000019073912
       2       -0.000022572127     0.000041960955     0.000025200095
       3       -0.000064727332    -0.000026476171     0.000004665658
       4        0.000013048547    -0.000027209183     0.000008303852
       5       -0.002517655787     0.004270848931    -0.001494065330
       6        0.000001265767     0.000003207545     0.000007943766
       7        0.000018220020    -0.000017248249     0.000020935306
       8        0.002305457172    -0.003833665774     0.002523299930
       9        0.001726021395    -0.003032727013     0.000741416317
      10       -0.000051636783    -0.000011268416     0.000001737630
      11        0.000046627725     0.000005476911     0.000121699307
      12       -0.001467942975     0.002571021428    -0.001925078702
      13        0.000048569491     0.000042605422     0.000033244931
      14       -0.000006933391    -0.000014439524    -0.000063795596
      15        0.000002705223     0.000016012668     0.000018716887
      16       -0.000021554152     0.000006979847     0.000013099751
      17       -0.000011427721    -0.000022003229     0.000003861330
      18       -0.000000924507     0.000000837142    -0.000018115638
      19        0.000006149799     0.000019138456    -0.000001824864
      20       -0.000001010449     0.000010779722    -0.000007748156
      21        0.000002324310    -0.000001618119     0.000003389488
      22       -0.000004558170    -0.000004358977     0.000000488659
      23        0.000002638778    -0.000002082495     0.000001699295

  **** Optimization is complete! (in 5 steps) ****
    Final optimized geometry and variables:
    Molecular point group: c1

    Geometry (in Angstrom), charge = 0, multiplicity = 1:

    O            1.931336908185     1.147790899525    -0.389500298942
    C            1.659429700661     0.212700354134     0.283539625487
    C            0.326763859475    -0.491035580388     0.307103276956
    O            2.514165432144    -0.347824635612     1.123752532162
    C           -0.703850659574     0.111128680128    -0.640672921522
    H            0.510517687995    -1.535002237624     0.074373309737
    H           -0.026406138457    -0.475434166490     1.332968270237
    C           -2.036524907969    -0.657538850119    -0.620731196079
    H           -0.283879059780     0.101264560768    -1.638285403806
    H           -0.860103105598     1.149640182188    -0.377731108117
    C           -3.257264526840     0.260622668664    -0.665470605707
    H           -2.085594817239    -1.319118955754    -1.480229748321
    H           -2.100933350752    -1.284462638722     0.263729401206
    C           -4.578136889022    -0.499257111146    -0.710953297103
    H           -3.183463427640     0.909613383672    -1.533801554143
    H           -3.245192377307     0.913805148617     0.202837717276
    H           -4.635400523468    -1.133264754500    -1.589564256026
    H           -5.421706070952     0.180773009769    -0.739058345407
    H           -4.694694332021    -1.134516702575     0.161059417899
    C            3.808100919825     0.214548422027     1.204626370168
    H            4.305295729981     0.166783897306     0.247148584351
    H            4.343587959792    -0.374146885153     1.931668203041
    H            3.756916685434     1.244911288976     1.523972403171

  Mulliken Charges: (a.u.)
   Center  Symbol    Alpha    Beta     Spin     Total
       1     O     4.19686  4.19686  0.00000 -0.39372
       2     C     2.80879  2.80879  0.00000  0.38242
       3     C     3.10015  3.10015  0.00000 -0.20030
       4     O     4.14687  4.14687  0.00000 -0.29373
       5     C     3.08819  3.08819  0.00000 -0.17637
       6     H     0.43853  0.43853  0.00000  0.12294
       7     H     0.44014  0.44014  0.00000  0.11973
       8     C     3.09202  3.09202  0.00000 -0.18404
       9     H     0.44389  0.44389  0.00000  0.11223
      10     H     0.44587  0.44587  0.00000  0.10826
      11     C     3.08394  3.08394  0.00000 -0.16788
      12     H     0.45190  0.45190  0.00000  0.09619
      13     H     0.45585  0.45585  0.00000  0.08831
      14     C     3.15045  3.15045  0.00000 -0.30091
      15     H     0.45161  0.45161  0.00000  0.09678
      16     H     0.45469  0.45469  0.00000  0.09063
      17     H     0.45501  0.45501  0.00000  0.08998
      18     H     0.44795  0.44795  0.00000  0.10410
      19     H     0.45548  0.45548  0.00000  0.08904
      20     C     3.03780  3.03780  0.00000 -0.07561
      21     H     0.45435  0.45435  0.00000  0.09131
      22     H     0.44531  0.44531  0.00000  0.10938
      23     H     0.45437  0.45437  0.00000  0.09127

   Total alpha = 36.00000, Total beta = 36.00000, Total charge =  0.00000

*** Psi4 exiting successfully. Buy a developer a beer!
