  ==> Input File <==

--------------------------------------------------------------------------
set {
	reference rhf
	basis 6-31G*
}

set_num_threads( 4 )
memory 2 gb

molecule MOL {
0 1

H	 2.465338	 -2.224223	 0.000000
O	 2.784187	 -1.332015	 0.000000
C	 1.765313	 -0.449364	 0.000000
C	 1.282608	 -0.031197	 -1.236154
C	 1.203031	 0.037741	 1.163917
H	 1.736402	 -0.424318	 -2.126313
C	 0.241126	 0.871040	 -1.302109
H	 1.555032	 -0.267197	 2.129647
C	 0.158661	 0.942479	 1.061162
H	 -0.125315	 1.188488	 -2.260652
C	 -0.340811	 1.375172	 -0.146668
N	 -0.432574	 1.454667	 2.295500
H	 -1.149289	 2.075557	 -0.181717
O	 0.018564	 1.063846	 3.329795
O	 -1.330963	 2.232941	 2.198288

	symmetry c1
}
set optking {
	frozen_dihedral = ("
		4 3 2 1
	")
}

ee = optimize('scf')
oeprop('DIPOLE', 'QUADRUPOLE', 'MULLIKEN_CHARGES')
f=open( 'psi4out.xyz', 'w' )
f.write( "15  " )
f.write( str(ee) + "\n" )
f.write( MOL.save_string_xyz() )
f.close()
--------------------------------------------------------------------------

    Molecular point group: c1
  Charge       = 0
  Multiplicity = 1
  Basis Set: 6-31G*
  Basis Set:
  @DF-RHF Final Energy:  -509.02235610564594
    Total Energy =                       -509.0223561056461676
    Molecular point group: c1
  Basis Set: 6-31G*
  Basis Set:
  Basis Set: 6-31G*
  Basis Set:
  @DF-RHF Final Energy:  -509.02314337322315
    Total Energy =                       -509.0231433732232063
  Basis Set: 6-31G*
  Basis Set:
  Basis Set: 6-31G*
  Basis Set:
  @DF-RHF Final Energy:  -508.99288770761359
    Total Energy =                       -508.9928877076139315
  Basis Set: 6-31G*
  Basis Set:
  Basis Set: 6-31G*
  Basis Set:
  @DF-RHF Final Energy:  -509.02115655994515
    Total Energy =                       -509.0211565599452115
  Basis Set: 6-31G*
  Basis Set:
  Basis Set: 6-31G*
  Basis Set:
  @DF-RHF Final Energy:  -509.02339521776702
    Total Energy =                       -509.0233952177670744
  Basis Set: 6-31G*
  Basis Set:
  Basis Set: 6-31G*
  Basis Set:
  @DF-RHF Final Energy:  -509.02340724067204
    Total Energy =                       -509.0234072406719861
  Basis Set: 6-31G*
  Basis Set:
  Charge       = 0
  Multiplicity = 1
  Basis Set: 6-31G*
  Basis Set:

    Orbital Energies (a.u.)
    -----------------------

    Doubly Occupied:

       1A    -20.603487     2A    -20.603346     3A    -20.601065
       4A    -15.858313     5A    -11.320877     6A    -11.308977
       7A    -11.269684     8A    -11.267899     9A    -11.266612
      10A    -11.265311    11A     -1.637031    12A     -1.420361
      13A     -1.418157    14A     -1.200681    15A     -1.094568
      16A     -1.046545    17A     -0.964095    18A     -0.867311
      19A     -0.833291    20A     -0.792187    21A     -0.736532
      22A     -0.735020    23A     -0.720374    24A     -0.710055
      25A     -0.680507    26A     -0.642377    27A     -0.624647
      28A     -0.567902    29A     -0.555730    30A     -0.528229
      31A     -0.511133    32A     -0.489917    33A     -0.484440
      34A     -0.453674    35A     -0.377289    36A     -0.358671

  @DF-RHF Final Energy:  -509.02340935891061

   => Energetics <=

    Nuclear Repulsion Energy =            502.7644485769096718
    One-Electron Energy =               -1691.9431222643022465
    Two-Electron Energy =                 680.1552643284818487
    DFT Exchange-Correlation Energy =       0.0000000000000000
    Empirical Dispersion Energy =           0.0000000000000000
    PCM Polarization Energy =               0.0000000000000000
    EFP Energy =                            0.0000000000000000
    Total Energy =                       -509.0234093589107260
    Molecular point group: c1
  Basis Set: 6-31G*
  Basis Set:

  -Total Gradient:
     Atom            X                  Y                   Z
    ------   -----------------  -----------------  -----------------
       1       -0.000028363665     0.000040853416    -0.000167060282
       2        0.000015908042    -0.000020690156     0.000153911878
       3        0.000039464404     0.000076542537     0.000244614594
       4       -0.000182903862    -0.000007838870    -0.000132249199
       5        0.000138586644    -0.000140959243    -0.000090930797
       6        0.000005092118    -0.000000399206     0.000021044248
       7        0.000161839266    -0.000100970761    -0.000096726192
       8        0.000002752905     0.000003308599     0.000010643163
       9       -0.000151392725     0.000195139092    -0.000075928057
      10       -0.000016896750     0.000020193519     0.000008035417
      11       -0.000022504562    -0.000034897271     0.000216177005
      12       -0.000030396340     0.000039769989     0.000104700897
      13        0.000005620256    -0.000002657625    -0.000024132792
      14        0.000014709114    -0.000017636002    -0.000138261978
      15        0.000048485156    -0.000049758017    -0.000033837905

  **** Optimization is complete! (in 7 steps) ****
    Final optimized geometry and variables:
    Molecular point group: c1

    Geometry (in Angstrom), charge = 0, multiplicity = 1:

    H            1.965382961948    -2.835774180514    -0.769839581697
    O            2.271753497551    -1.938126347371    -0.765948743242
    C            1.218672297195    -1.070363536875    -0.825778917422
    C            0.740430257270    -0.643798620937    -2.055444500886
    C            0.667713374527    -0.582260477847     0.343917079991
    H            1.195939020897    -1.025338013857    -2.950581886761
    C           -0.299794087472     0.267900889064    -2.119820775435
    H            1.042853968752    -0.896309743833     1.296286553516
    C           -0.370408141784     0.326941727458     0.250535629862
    H           -0.665995055039     0.595477478019    -3.074952768228
    C           -0.870301236913     0.764932595707    -0.960593381094
    N           -0.958537915528     0.841980594410     1.483764394116
    H           -1.673988081277     1.471552988769    -0.988855744824
    O           -0.522815873859     0.435229265013     2.517504665877
    O           -1.842220545525     1.637996045336     1.384920185552

  Mulliken Charges: (a.u.)
   Center  Symbol    Alpha    Beta     Spin     Total
       1     H     0.26748  0.26748  0.00000  0.46504
       2     O     4.38472  4.38472  0.00000 -0.76943
       3     C     2.82128  2.82128  0.00000  0.35743
       4     C     3.10308  3.10308  0.00000 -0.20616
       5     C     3.10805  3.10805  0.00000 -0.21609
       6     H     0.38375  0.38375  0.00000  0.23250
       7     C     3.10587  3.10587  0.00000 -0.21175
       8     H     0.35964  0.35964  0.00000  0.28073
       9     C     2.91822  2.91822  0.00000  0.16355
      10     H     0.38658  0.38658  0.00000  0.22685
      11     C     3.08997  3.08997  0.00000 -0.17995
      12     N     3.24065  3.24065  0.00000  0.51870
      13     H     0.36400  0.36400  0.00000  0.27199
      14     O     4.23305  4.23305  0.00000 -0.46611
      15     O     4.23366  4.23366  0.00000 -0.46731

   Total alpha = 36.00000, Total beta = 36.00000, Total charge = -0.00000
