  ==> Input File <==

--------------------------------------------------------------------------
set {
	reference rhf
	basis cc-pvtz
}

set_num_threads( 4 )
memory 2 gb

molecule MOL {
0 1

H	 1.166964	 -1.062386	 0.758429
O	 1.324748	 -0.612467	 -0.052206
C	 0.706474	 0.636793	 -0.025501
C	 -0.795092	 0.592702	 -0.056934
H	 1.065673	 1.175403	 -0.894510
H	 1.023120	 1.207674	 0.845435
C	 -1.529886	 -0.486653	 -0.209830
H	 -1.274821	 1.550855	 0.057316
H	 -1.089004	 -1.456033	 -0.343612
H	 -2.601732	 -0.430770	 -0.219029

	symmetry c1
}
set optking {
	frozen_dihedral = ("
		5 3 2 1
	")
}

ee = optimize('scf')
oeprop('DIPOLE', 'QUADRUPOLE', 'MULLIKEN_CHARGES')
f=open( 'psi4out.xyz', 'w' )
f.write( "10  " )
f.write( str(ee) + "\n" )
f.write( MOL.save_string_xyz() )
f.close()
--------------------------------------------------------------------------

    Molecular point group: c1
  Charge       = 0
  Multiplicity = 1
  Basis Set: CC-PVTZ
  Basis Set:
  @DF-RHF Final Energy:  -191.99882222063809
    Total Energy =                       -191.9988222206381465
    Molecular point group: c1
  Basis Set: CC-PVTZ
  Basis Set:
  Basis Set: CC-PVTZ
  Basis Set:
  @DF-RHF Final Energy:  -191.99882649368351
    Total Energy =                       -191.9988264936834526
  Basis Set: CC-PVTZ
  Basis Set:
  Charge       = 0
  Multiplicity = 1
  Basis Set: CC-PVTZ
  Basis Set:

    Orbital Energies (a.u.)
    -----------------------

    Doubly Occupied:

       1A    -20.554592     2A    -11.278241     3A    -11.229628
       4A    -11.215811     5A     -1.374886     6A     -1.061795
       7A     -0.931881     8A     -0.770994     9A     -0.693531
      10A     -0.664858    11A     -0.620207    12A     -0.574526
      13A     -0.538252    14A     -0.498377    15A     -0.451948
      16A     -0.368460

  @DF-RHF Final Energy:  -191.99882714205467

   => Energetics <=

    Nuclear Repulsion Energy =            119.5177712975530540
    One-Electron Energy =                -497.3772190373789499
    Two-Electron Energy =                 185.8606205977713444
    DFT Exchange-Correlation Energy =       0.0000000000000000
    Empirical Dispersion Energy =           0.0000000000000000
    PCM Polarization Energy =               0.0000000000000000
    EFP Energy =                            0.0000000000000000
    Total Energy =                       -191.9988271420545516
    Molecular point group: c1
  Basis Set: CC-PVTZ
  Basis Set:

  -Total Gradient:
     Atom            X                  Y                   Z
    ------   -----------------  -----------------  -----------------
       1        0.000373180732     0.000180380147     0.000157921741
       2       -0.000378443102    -0.000209724262    -0.000150213476
       3       -0.000256277851    -0.000121196168    -0.000188274318
       4       -0.000041640667    -0.000009528448    -0.000030926124
       5        0.000284539919     0.000138652588     0.000218657225
       6        0.000018144652     0.000001115009    -0.000018689545
       7        0.000022517759     0.000009923100     0.000034921179
       8       -0.000014334857     0.000000116305    -0.000003621471
       9       -0.000002428230     0.000009567771    -0.000016036070
      10       -0.000005258352     0.000000693956    -0.000003739140

  **** Optimization is complete! (in 3 steps) ****
    Final optimized geometry and variables:
    Molecular point group: c1

    Geometry (in Angstrom), charge = 0, multiplicity = 1:

    H            1.161837239560    -1.070071291874     0.821532134644
    O            1.323265696215    -0.614380825234     0.015073211686
    C            0.705515142594     0.635405048119     0.047316652471
    C           -0.796036104802     0.591567617171     0.012556744803
    H            1.068572230236     1.180312041428    -0.816141110132
    H            1.020696257880     1.201080905776     0.922162956608
    C           -1.529431274770    -0.489396635252    -0.133780514397
    H           -1.276221861441     1.550499789502     0.118428655709
    H           -1.086255871997    -1.458763702584    -0.258682516146
    H           -2.601321101964    -0.434579631468    -0.146523546410

  Mulliken Charges: (a.u.)
   Center  Symbol    Alpha    Beta     Spin     Total
       1     H     0.39112  0.39112  0.00000  0.21776
       2     O     4.19912  4.19912  0.00000 -0.39824
       3     C     2.95104  2.95104  0.00000  0.09792
       4     C     3.08478  3.08478  0.00000 -0.16956
       5     H     0.45334  0.45334  0.00000  0.09331
       6     H     0.46840  0.46840  0.00000  0.06320
       7     C     3.17692  3.17692  0.00000 -0.35385
       8     H     0.42335  0.42335  0.00000  0.15330
       9     H     0.42379  0.42379  0.00000  0.15242
      10     H     0.42813  0.42813  0.00000  0.14373

   Total alpha = 16.00000, Total beta = 16.00000, Total charge = -0.00000
