                              Psi4 1.0.54 Driver

  ==> Input File <==

--------------------------------------------------------------------------
set {
	reference rhf
	basis cc-pvtz
}

set_num_threads( 4 )
memory 2 gb

molecule MOL {
0 1

H	 -2.171709	 0.882708	 0.500286
C	 -2.016894	 0.001719	 -0.114152
O	 -0.775228	 0.000056	 -0.739966
H	 -2.760846	 0.003757	 -0.898169
H	 -2.174774	 -0.879864	 0.498643
C	 0.145008	 1.042582	 -0.483870
C	 1.355012	 0.683253	 -1.339239
C	 -0.418452	 2.395736	 -0.922193
C	 0.543538	 1.076784	 0.992815
H	 1.072465	 0.633062	 -2.383150
H	 1.743365	 -0.284634	 -1.048583
H	 2.141706	 1.419960	 -1.228136
H	 -0.759282	 2.346159	 -1.949348
H	 0.347858	 3.158612	 -0.853789
H	 -1.247419	 2.712284	 -0.301571
H	 0.880035	 0.098455	 1.314271
H	 1.351876	 1.782069	 1.144605
H	 -0.277339	 1.382483	 1.629429

	symmetry c1
}
set optking {
	frozen_dihedral = ("
		6 3 2 5
	")
}

ee,wfn = optimize('scf', return_wfn=True)
oeprop( wfn, 'DIPOLE', 'QUADRUPOLE', 'MULLIKEN_CHARGES')
f=open( 'psi4out.xyz', 'w' )
f.write( "18  " )
f.write( str(ee) + "\n" )
f.write( MOL.save_string_xyz() )
f.close()
--------------------------------------------------------------------------

    Molecular point group: c1
  Charge       = 0
  Multiplicity = 1
  Basis Set: CC-PVTZ
  Basis Set:
  @DF-RHF Final Energy:  -271.27369344281499
    Total Energy =                       -271.2736934428149880
    Molecular point group: c1
  Basis Set: CC-PVTZ
  Basis Set:
  Basis Set: CC-PVTZ
  Basis Set:
  @DF-RHF Final Energy:  -271.27423757642418
    Total Energy =                       -271.2742375764241842
  Basis Set: CC-PVTZ
  Basis Set:
  Basis Set: CC-PVTZ
  Basis Set:
  @DF-RHF Final Energy:  -271.27437494703611
    Total Energy =                       -271.2743749470363355
  Basis Set: CC-PVTZ
  Basis Set:
  Basis Set: CC-PVTZ
  Basis Set:
  @DF-RHF Final Energy:  -271.27441542031818
    Total Energy =                       -271.2744154203184053
  Basis Set: CC-PVTZ
  Basis Set:
  Basis Set: CC-PVTZ
  Basis Set:
  @DF-RHF Final Energy:  -271.27442007936151
    Total Energy =                       -271.2744200793615050
  Basis Set: CC-PVTZ
  Basis Set:
  Charge       = 0
  Multiplicity = 1
  Basis Set: CC-PVTZ
  Basis Set:

    Orbital Energies (a.u.)
    -----------------------

    Doubly Occupied:

       1A    -20.538040     2A    -11.280844     3A    -11.258443
       4A    -11.207061     5A    -11.207042     6A    -11.201775
       7A     -1.371064     8A     -1.074125     9A     -0.946467
      10A     -0.940990    11A     -0.913527    12A     -0.753841
      13A     -0.656389    14A     -0.645474    15A     -0.640540
      16A     -0.590756    17A     -0.572047    18A     -0.552276
      19A     -0.539170    20A     -0.524733    21A     -0.515376
      22A     -0.491502    23A     -0.488337    24A     -0.439506
      25A     -0.404035

  @DF-RHF Final Energy:  -271.27442023950368

   => Energetics <=

    Nuclear Repulsion Energy =            272.4675001444376221
    One-Electron Energy =                -907.9771198476598784
    Two-Electron Energy =                 364.2351994637188000
    DFT Exchange-Correlation Energy =       0.0000000000000000
    Empirical Dispersion Energy =           0.0000000000000000
    PCM Polarization Energy =               0.0000000000000000
    EFP Energy =                            0.0000000000000000
    Total Energy =                       -271.2744202395034563
    Molecular point group: c1
  Basis Set: CC-PVTZ
  Basis Set:

  -Total Gradient:
     Atom            X                  Y                   Z
    ------   -----------------  -----------------  -----------------
       1       -0.000016616573    -0.000004198360     0.000004126633
       2        0.000016798519     0.000053295099     0.000014996679
       3        0.000046219456    -0.000111332742     0.000069063949
       4       -0.000010340947    -0.000010435322     0.000026734031
       5       -0.000038907643    -0.000030103758    -0.000069721460
       6       -0.000043477264     0.000045107909    -0.000041730381
       7       -0.000014681468     0.000008446216     0.000009876426
       8        0.000013642899     0.000027016912    -0.000000864454
       9        0.000030558687     0.000007309260    -0.000013253388
      10       -0.000002372157     0.000001610381    -0.000000392860
      11       -0.000001754532     0.000001512926     0.000003488834
      12        0.000002202739     0.000001520126     0.000002529789
      13        0.000001546002     0.000000601353     0.000001383115
      14        0.000000808032     0.000007909772    -0.000002440707
      15        0.000007352688     0.000008721947    -0.000005729048
      16       -0.000001308272    -0.000006019654     0.000006904160
      17        0.000003058421    -0.000007398982     0.000006911140
      18        0.000007271411     0.000006436919    -0.000011882460

  **** Optimization is complete! (in 6 steps) ****
    Final optimized geometry and variables:
    Molecular point group: c1

    Geometry (in Angstrom), charge = 0, multiplicity = 1:

    H           -1.965255052020    -0.004464990031     0.971998088574
    C           -1.812174785941    -0.853814911398     0.319895074290
    O           -0.565945241447    -0.851562732595    -0.306865207126
    H           -2.594226653176    -0.844357653178    -0.430683231849
    H           -1.918513592957    -1.754987566692     0.913080968373
    C            0.362882112457     0.183759060406    -0.055253316427
    C            1.568615407889    -0.183279390054    -0.913220982823
    C           -0.194232274993     1.538243515265    -0.497633332853
    C            0.766014023952     0.210254592888     1.420321675313
    H            1.284120593996    -0.230987271598    -1.956608995122
    H            1.951824687569    -1.153412539360    -0.623639450546
    H            2.359832891809     0.548879044872    -0.802885970094
    H           -0.501135907317     1.494222778671    -1.535518107517
    H            0.562019487309     2.307859880515    -0.397500710186
    H           -1.047676505842     1.841620443727     0.095970023534
    H            1.130624280836    -0.763221768834     1.724915570881
    H            1.553820978535     0.936236680817     1.583186479540
    H           -0.062336216586     0.478980588578     2.064088555374

  Mulliken Charges: (a.u.)
   Center  Symbol    Alpha    Beta     Spin     Total
       1     H     0.46838  0.46838  0.00000  0.06324
       2     C     3.04247  3.04247  0.00000 -0.08493
       3     O     4.19390  4.19390  0.00000 -0.38781
       4     H     0.45356  0.45356  0.00000  0.09288
       5     H     0.45395  0.45395  0.00000  0.09210
       6     C     2.87905  2.87905  0.00000  0.24191
       7     C     3.14297  3.14297  0.00000 -0.28595
       8     C     3.16061  3.16061  0.00000 -0.32123
       9     C     3.16059  3.16059  0.00000 -0.32118
      10     H     0.44901  0.44901  0.00000  0.10198
      11     H     0.44903  0.44903  0.00000  0.10195
      12     H     0.45923  0.45923  0.00000  0.08154
      13     H     0.44658  0.44658  0.00000  0.10685
      14     H     0.44872  0.44872  0.00000  0.10256
      15     H     0.44833  0.44833  0.00000  0.10335
      16     H     0.44658  0.44658  0.00000  0.10684
      17     H     0.44868  0.44868  0.00000  0.10264
      18     H     0.44837  0.44837  0.00000  0.10326

   Total alpha = 25.00000, Total beta = 25.00000, Total charge =  0.00000

*** Psi4 exiting successfully. Buy a developer a beer!
