                              Psi4 1.0.54 Driver

  ==> Input File <==

--------------------------------------------------------------------------
set {
	reference rhf
	basis cc-pvtz
}

set_num_threads( 4 )
memory 2 gb

molecule MOL {
0 1

H	 -0.939693	 0.000281	 1.681345
O	 -0.046262	 -0.000157	 1.387678
C	 -0.000837	 0.000006	 -0.025491
C	 0.014824	 -1.439261	 -0.536777
C	 -1.208052	 0.756913	 -0.575825
C	 1.293932	 0.714503	 -0.387784
H	 0.085981	 -1.471536	 -1.617836
H	 -0.893650	 -1.959812	 -0.249073
H	 0.857373	 -1.976426	 -0.119612
H	 -1.181623	 0.805082	 -1.658308
H	 -2.133367	 0.266566	 -0.288727
H	 -1.227083	 1.766986	 -0.186137
H	 1.419525	 0.765362	 -1.462925
H	 2.141891	 0.190366	 0.034659
H	 1.288832	 1.722447	 0.007485

	symmetry c1
}
set optking {
	frozen_dihedral = ("
		4 3 2 1
	")
}

ee,wfn = optimize('scf', return_wfn=True)
oeprop( wfn, 'DIPOLE', 'QUADRUPOLE', 'MULLIKEN_CHARGES')
f=open( 'psi4out.xyz', 'w' )
f.write( "15  " )
f.write( str(ee) + "\n" )
f.write( MOL.save_string_xyz() )
f.close()
--------------------------------------------------------------------------

    Molecular point group: c1
  Charge       = 0
  Multiplicity = 1
  Basis Set: CC-PVTZ
  Basis Set:
  @DF-RHF Final Energy:  -232.24573209861248
    Total Energy =                       -232.2457320986125069
    Molecular point group: c1
  Basis Set: CC-PVTZ
  Basis Set:
  Basis Set: CC-PVTZ
  Basis Set:
  @DF-RHF Final Energy:  -232.24580021448719
    Total Energy =                       -232.2458002144871898
  Basis Set: CC-PVTZ
  Basis Set:
  Basis Set: CC-PVTZ
  Basis Set:
  @DF-RHF Final Energy:  -232.24582154369097
    Total Energy =                       -232.2458215436910791
  Basis Set: CC-PVTZ
  Basis Set:
  Basis Set: CC-PVTZ
  Basis Set:
  @DF-RHF Final Energy:  -232.24582422428429
    Total Energy =                       -232.2458242242843198
  Basis Set: CC-PVTZ
  Basis Set:
  Charge       = 0
  Multiplicity = 1
  Basis Set: CC-PVTZ
  Basis Set:

    Orbital Energies (a.u.)
    -----------------------

    Doubly Occupied:

       1A    -20.541350     2A    -11.280926     3A    -11.214181
       4A    -11.205116     5A    -11.203399     6A     -1.363936
       7A     -1.065486     8A     -0.945125     9A     -0.937575
      10A     -0.778530    11A     -0.672355    12A     -0.624372
      13A     -0.622791    14A     -0.576238    15A     -0.557446
      16A     -0.533701    17A     -0.517032    18A     -0.511386
      19A     -0.503833    20A     -0.458558    21A     -0.427684

  @DF-RHF Final Energy:  -232.24582481048660

   => Energetics <=

    Nuclear Repulsion Energy =            200.6290444257045635
    One-Electron Energy =                -712.6677012377126630
    Two-Electron Energy =                 279.7928320015215604
    DFT Exchange-Correlation Energy =       0.0000000000000000
    Empirical Dispersion Energy =           0.0000000000000000
    PCM Polarization Energy =               0.0000000000000000
    EFP Energy =                            0.0000000000000000
    Total Energy =                       -232.2458248104865106
    Molecular point group: c1
  Basis Set: CC-PVTZ
  Basis Set:

  -Total Gradient:
     Atom            X                  Y                   Z
    ------   -----------------  -----------------  -----------------
       1       -0.000025436153     0.001885488977     0.000053141845
       2        0.000414766272    -0.002307773422    -0.000036859230
       3       -0.001532543243     0.000434851434     0.000007801933
       4        0.001150272110     0.000025802759    -0.000001529527
       5       -0.000020274193    -0.000018613796    -0.000002897172
       6        0.000005871111    -0.000009207390    -0.000009691654
       7       -0.000009873458    -0.000014624599     0.000014289414
       8        0.000008005824     0.000009036896    -0.000004546202
       9       -0.000000635568     0.000011715380    -0.000004958656
      10       -0.000003274101    -0.000000792748    -0.000013481777
      11        0.000007456099     0.000017178554     0.000002944664
      12        0.000014064886    -0.000024794566    -0.000002101562
      13        0.000001154552     0.000008354274     0.000002081023
      14       -0.000003011436     0.000003280669    -0.000000098593
      15       -0.000006542703    -0.000019902423    -0.000004094506

  **** Optimization is complete! (in 5 steps) ****
    Final optimized geometry and variables:
    Molecular point group: c1

    Geometry (in Angstrom), charge = 0, multiplicity = 1:

    H           -0.942158162234    -0.049502197447     1.686128889061
    O           -0.051032738291    -0.039351182011     1.389076544529
    C           -0.001332088026    -0.001983091349    -0.025376268694
    C            0.019798803219    -1.433674627924    -0.557235428621
    C           -1.203607392382     0.764873465574    -0.568490429838
    C            1.297336479393     0.713927027368    -0.376324749588
    H            0.101076967420    -1.452142287382    -1.638330317731
    H           -0.887384721711    -1.958846451068    -0.278106317557
    H            0.860588101619    -1.972051158212    -0.138775143634
    H           -1.167821864399     0.831610220366    -1.649036633647
    H           -2.131695929156     0.268227380773    -0.300262467179
    H           -1.225661331747     1.770322350366    -0.165136421203
    H            1.444191368025     0.749385890258    -1.449605740409
    H            2.138366140903     0.196926994666     0.068429744905
    H            1.284529825622     1.726907457630     0.005851765934

  Mulliken Charges: (a.u.)
   Center  Symbol    Alpha    Beta     Spin     Total
       1     H     0.39399  0.39399  0.00000  0.21203
       2     O     4.21312  4.21312  0.00000 -0.42623
       3     C     2.87871  2.87871  0.00000  0.24258
       4     C     3.14456  3.14456  0.00000 -0.28911
       5     C     3.15710  3.15710  0.00000 -0.31421
       6     C     3.14137  3.14137  0.00000 -0.28275
       7     H     0.45796  0.45796  0.00000  0.08407
       8     H     0.45496  0.45496  0.00000  0.09007
       9     H     0.44802  0.44802  0.00000  0.10396
      10     H     0.45238  0.45238  0.00000  0.09524
      11     H     0.45480  0.45480  0.00000  0.09040
      12     H     0.44553  0.44553  0.00000  0.10893
      13     H     0.45923  0.45923  0.00000  0.08154
      14     H     0.44727  0.44727  0.00000  0.10546
      15     H     0.45099  0.45099  0.00000  0.09802

   Total alpha = 21.00000, Total beta = 21.00000, Total charge =  0.00000

*** Psi4 exiting successfully. Buy a developer a beer!
