                              Psi4 1.0.54 Driver

  ==> Input File <==

--------------------------------------------------------------------------
set {
	reference rhf
	basis cc-pvtz
}

set_num_threads( 4 )
memory 2 gb

molecule MOL {
0 1

H	 -3.258660	 -0.290394	 1.471450
C	 -3.307964	 -0.275695	 0.374072
C	 -2.653809	 0.914422	 -0.273689
O	 -3.855140	 -1.148880	 -0.205112
C	 -3.080501	 1.104498	 -1.732277
H	 -2.867988	 1.792023	 0.322364
H	 -1.581116	 0.737893	 -0.235329
C	 -4.547253	 1.497175	 -1.895449
H	 -2.451407	 1.868029	 -2.176800
H	 -2.883101	 0.190428	 -2.286986
C	 -4.954726	 1.693630	 -3.353240
H	 -4.732877	 2.413510	 -1.341390
H	 -5.183398	 0.739930	 -1.444530
C	 -6.419070	 2.098044	 -3.512595
H	 -4.310694	 2.444487	 -3.800209
H	 -4.776889	 0.771831	 -3.902748
C	 -6.895750	 2.227064	 -4.960363
H	 -6.589625	 3.039195	 -2.994976
H	 -7.039179	 1.360684	 -3.010530
C	 -6.246750	 3.362892	 -5.747623
H	 -7.970608	 2.378830	 -4.954121
H	 -6.726675	 1.286755	 -5.478570
H	 -6.394049	 4.315756	 -5.249277
H	 -5.180509	 3.215103	 -5.869989
H	 -6.679497	 3.439485	 -6.738496

	symmetry c1
}
set optking {
	frozen_dihedral = ("
		6 3 2 4
	")
}

ee,wfn = optimize('scf', return_wfn=True)
oeprop( wfn, 'DIPOLE', 'QUADRUPOLE', 'MULLIKEN_CHARGES')
f=open( 'psi4out.xyz', 'w' )
f.write( "25  " )
f.write( str(ee) + "\n" )
f.write( MOL.save_string_xyz() )
f.close()
--------------------------------------------------------------------------

    Molecular point group: c1
  Charge       = 0
  Multiplicity = 1
  Basis Set: CC-PVTZ
  Basis Set:
  @DF-RHF Final Energy:  -387.26023127420433
    Total Energy =                       -387.2602312742047843
    Molecular point group: c1
  Basis Set: CC-PVTZ
  Basis Set:
  Basis Set: CC-PVTZ
  Basis Set:
  @DF-RHF Final Energy:  -387.25952698072319
    Total Energy =                       -387.2595269807228533
  Basis Set: CC-PVTZ
  Basis Set:
  Basis Set: CC-PVTZ
  Basis Set:
  @DF-RHF Final Energy:  -387.26063167193752
    Total Energy =                       -387.2606316719369488
  Basis Set: CC-PVTZ
  Basis Set:
  Basis Set: CC-PVTZ
  Basis Set:
  @DF-RHF Final Energy:  -387.26113742285304
    Total Energy =                       -387.2611374228524710
  Basis Set: CC-PVTZ
  Basis Set:
  Basis Set: CC-PVTZ
  Basis Set:
  @DF-RHF Final Energy:  -387.26115130374683
    Total Energy =                       -387.2611513037463737
  Basis Set: CC-PVTZ
  Basis Set:
  Basis Set: CC-PVTZ
  Basis Set:
  @DF-RHF Final Energy:  -387.26115345780676
    Total Energy =                       -387.2611534578069268
  Basis Set: CC-PVTZ
  Basis Set:
  Charge       = 0
  Multiplicity = 1
  Basis Set: CC-PVTZ
  Basis Set:

    Orbital Energies (a.u.)
    -----------------------

    Doubly Occupied:

       1A    -20.552705     2A    -11.323222     3A    -11.236221
       4A    -11.220625     5A    -11.212462     6A    -11.211690
       7A    -11.210219     8A    -11.209538     9A    -11.205076
      10A     -1.408420    11A     -1.097281    12A     -1.065507
      13A     -1.011228    14A     -0.942878    15A     -0.877224
      16A     -0.817745    17A     -0.777426    18A     -0.764256
      19A     -0.689781    20A     -0.649187    21A     -0.630874
      22A     -0.626428    23A     -0.606291    24A     -0.590808
      25A     -0.565504    26A     -0.546847    27A     -0.534578
      28A     -0.521458    29A     -0.502171    30A     -0.498015
      31A     -0.482277    32A     -0.472953    33A     -0.459181
      34A     -0.453554    35A     -0.437772    36A     -0.413422

  @DF-RHF Final Energy:  -387.26115416146888

   => Energetics <=

    Nuclear Repulsion Energy =            443.8383031030135726
    One-Electron Energy =               -1404.5492594926076890
    Two-Electron Energy =                 573.4498022281252361
    DFT Exchange-Correlation Energy =       0.0000000000000000
    Empirical Dispersion Energy =           0.0000000000000000
    PCM Polarization Energy =               0.0000000000000000
    EFP Energy =                            0.0000000000000000
    Total Energy =                       -387.2611541614688804
    Molecular point group: c1
  Basis Set: CC-PVTZ
  Basis Set:

  -Total Gradient:
     Atom            X                  Y                   Z
    ------   -----------------  -----------------  -----------------
       1        0.000024656932    -0.000001149886     0.000031197702
       2       -0.001172970941     0.000795885337     0.000257787832
       3       -0.000628977745    -0.000094122361    -0.000725820101
       4        0.000922826836    -0.000539871521    -0.000152202188
       5        0.000024788673    -0.000041494858     0.000053938736
       6        0.000829473024    -0.000118720847     0.000530432451
       7        0.000015876409     0.000003059599     0.000009562702
       8       -0.000018491509     0.000013335962    -0.000005837662
       9       -0.000009520066    -0.000019443341     0.000011927792
      10        0.000004840157    -0.000012502179    -0.000023397526
      11        0.000000658103     0.000016452544     0.000005229639
      12        0.000001179618    -0.000008000979    -0.000004901437
      13       -0.000007072772    -0.000002685587     0.000003653414
      14        0.000015219777     0.000014995459    -0.000001202647
      15       -0.000007064295    -0.000007106727     0.000024581937
      16        0.000002794020     0.000009145810     0.000005617249
      17        0.000018136069    -0.000025187460    -0.000008382241
      18        0.000013290737     0.000002124996    -0.000007702088
      19       -0.000005268108     0.000008107226     0.000004964150
      20       -0.000007685494     0.000007172634    -0.000001716191
      21       -0.000000189830    -0.000008398014     0.000000192664
      22        0.000007743630     0.000001109408    -0.000002857680
      23        0.000004275207     0.000003368092     0.000000450837
      24       -0.000022236350     0.000002157379    -0.000012291349
      25       -0.000006282084     0.000001769311     0.000006774005

  **** Optimization is complete! (in 7 steps) ****
    Final optimized geometry and variables:
    Molecular point group: c1

    Geometry (in Angstrom), charge = 0, multiplicity = 1:

    H            1.493029246947    -1.669935607405     3.863998643591
    C            1.369184419960    -1.629730890778     2.774660464031
    C            1.937090391011    -0.396766745363     2.121922653371
    O            0.858661203227    -2.530790469624     2.204006102793
    C            1.539096015065    -0.183831694715     0.665827684403
    H            1.681178914169     0.459512619590     2.740841587833
    H            3.017860085958    -0.499799211118     2.212852729698
    C            0.084902151361     0.245826112739     0.482899426345
    H            2.191113565960     0.573164365397     0.241263128718
    H            1.720200982513    -1.098936830650     0.114579350802
    C           -0.293136242887     0.453951061692    -0.981146017525
    H           -0.086042902669     1.169866654052     1.031491587229
    H           -0.569985237751    -0.500881190455     0.918611475933
    C           -1.744185131210     0.894491680336    -1.164020043315
    H            0.376492168357     1.188237797912    -1.418568509696
    H           -0.130176049934    -0.473035288902    -1.525531612352
    C           -2.197297545271     1.027218527960    -2.619005272243
    H           -1.899102267968     1.842955448434    -0.654180220828
    H           -2.389274147084     0.175151014504    -0.667415893943
    C           -1.510755762662     2.143453830259    -3.402484139107
    H           -3.268464542489     1.203975223255    -2.629468558666
    H           -2.042417848397     0.080583086357    -3.129812493147
    H           -1.641516071888     3.102010426520    -2.910218471223
    H           -0.446927001966     1.969255199560    -3.509624899000
    H           -1.928268947200     2.226031561424    -4.399499704322

  Mulliken Charges: (a.u.)
   Center  Symbol    Alpha    Beta     Spin     Total
       1     H     0.45175  0.45175  0.00000  0.09649
       2     C     2.91615  2.91615  0.00000  0.16770
       3     C     3.10692  3.10692  0.00000 -0.21385
       4     O     4.16833  4.16833  0.00000 -0.33666
       5     C     3.09215  3.09215  0.00000 -0.18430
       6     H     0.44589  0.44589  0.00000  0.10822
       7     H     0.43637  0.43637  0.00000  0.12726
       8     C     3.09079  3.09079  0.00000 -0.18159
       9     H     0.44601  0.44601  0.00000  0.10799
      10     H     0.44465  0.44465  0.00000  0.11069
      11     C     3.09365  3.09365  0.00000 -0.18729
      12     H     0.45730  0.45730  0.00000  0.08539
      13     H     0.44414  0.44414  0.00000  0.11173
      14     C     3.09492  3.09492  0.00000 -0.18984
      15     H     0.45383  0.45383  0.00000  0.09235
      16     H     0.45187  0.45187  0.00000  0.09626
      17     C     3.09051  3.09051  0.00000 -0.18102
      18     H     0.45532  0.45532  0.00000  0.08936
      19     H     0.44817  0.44817  0.00000  0.10365
      20     C     3.15270  3.15270  0.00000 -0.30540
      21     H     0.44864  0.44864  0.00000  0.10272
      22     H     0.45404  0.45404  0.00000  0.09191
      23     H     0.45551  0.45551  0.00000  0.08897
      24     H     0.45397  0.45397  0.00000  0.09205
      25     H     0.44640  0.44640  0.00000  0.10719

   Total alpha = 36.00000, Total beta = 36.00000, Total charge = -0.00000

*** Psi4 exiting successfully. Buy a developer a beer!
