  ==> Input File <==

--------------------------------------------------------------------------
set {
	reference rhf
	basis 6-31G*
}

set_num_threads( 4 )
memory 2 gb

molecule MOL {
0 1

H	 -1.810395	 -0.051506	 -2.225741
C	 -1.304871	 -0.060995	 -1.280351
C	 -1.944758	 0.393825	 -0.079847
C	 -0.044196	 -0.502103	 -1.182679
H	 -2.957238	 0.754160	 -0.125533
C	 -1.292112	 0.372390	 1.091074
H	 0.504758	 -0.859179	 -2.033297
N	 0.640212	 -0.532897	 -0.000111
H	 -1.738099	 0.704242	 2.008312
C	 0.079694	 -0.107700	 1.197096
C	 2.010177	 -1.032049	 0.000042
O	 0.700628	 -0.143153	 2.230242
H	 2.187698	 -1.635381	 -0.882279
H	 2.677579	 -0.189247	 -0.001871
H	 2.188882	 -1.632203	 0.884288

	symmetry c1
}
set optking {
	frozen_dihedral = ("
		10 8 11 13
	")
}

ee = optimize('scf')
oeprop('DIPOLE', 'QUADRUPOLE', 'MULLIKEN_CHARGES')
f=open( 'psi4out.xyz', 'w' )
f.write( "15  " )
f.write( str(ee) + "\n" )
f.write( MOL.save_string_xyz() )
f.close()
--------------------------------------------------------------------------

    Molecular point group: c1
  Charge       = 0
  Multiplicity = 1
  Basis Set: 6-31G*
  Basis Set:
  @DF-RHF Final Energy:  -360.59569582503099
    Total Energy =                       -360.5956958250310436
    Molecular point group: c1
  Basis Set: 6-31G*
  Basis Set:
  Basis Set: 6-31G*
  Basis Set:
  @DF-RHF Final Energy:  -360.59637031672145
    Total Energy =                       -360.5963703167213907
  Basis Set: 6-31G*
  Basis Set:
  Basis Set: 6-31G*
  Basis Set:
  @DF-RHF Final Energy:  -360.59645107918215
    Total Energy =                       -360.5964510791821453
  Basis Set: 6-31G*
  Basis Set:
  Basis Set: 6-31G*
  Basis Set:
  @DF-RHF Final Energy:  -360.59641459077744
    Total Energy =                       -360.5964145907773286
  Basis Set: 6-31G*
  Basis Set:
  Charge       = 0
  Multiplicity = 1
  Basis Set: 6-31G*
  Basis Set:

    Orbital Energies (a.u.)
    -----------------------

    Doubly Occupied:

       1A    -20.508830     2A    -15.622229     3A    -11.341907
       4A    -11.297752     5A    -11.266259     6A    -11.260370
       7A    -11.232976     8A    -11.228860     9A     -1.384966
      10A     -1.281015    11A     -1.114857    12A     -1.026196
      13A     -0.970246    14A     -0.872711    15A     -0.835669
      16A     -0.715894    17A     -0.697613    18A     -0.661244
      19A     -0.648658    20A     -0.622623    21A     -0.606519
      22A     -0.573082    23A     -0.549498    24A     -0.547161
      25A     -0.527493    26A     -0.477570    27A     -0.414075
      28A     -0.405669    29A     -0.304607

  @DF-RHF Final Energy:  -360.59646736802671

   => Energetics <=

    Nuclear Repulsion Energy =            357.8944386795182595
    One-Electron Energy =               -1198.9887154904486124
    Two-Electron Energy =                 480.4978094429036446
    DFT Exchange-Correlation Energy =       0.0000000000000000
    Empirical Dispersion Energy =           0.0000000000000000
    PCM Polarization Energy =               0.0000000000000000
    EFP Energy =                            0.0000000000000000
    Total Energy =                       -360.5964673680266515
    Molecular point group: c1
  Basis Set: 6-31G*
  Basis Set:

  -Total Gradient:
     Atom            X                  Y                   Z
    ------   -----------------  -----------------  -----------------
       1       -0.000002939979    -0.000002262385    -0.000000179341
       2        0.000187354083    -0.000039180572    -0.000029126188
       3       -0.000050631428     0.000031364853     0.000169910713
       4       -0.000215253161    -0.000015415285    -0.000204603771
       5        0.000008247274     0.000004437867    -0.000003243277
       6       -0.000151573950     0.000043790982    -0.000072205963
       7        0.000012348072     0.000014065902     0.000020850286
       8        0.000306884103     0.000850241936     0.000155868009
       9        0.000010333992     0.000006257979     0.000016361195
      10       -0.000035816523    -0.000806387330    -0.000077222335
      11        0.000188863675     0.000493408210    -0.000450655456
      12       -0.000040335119     0.000052865133     0.000071212634
      13       -0.000236705922    -0.000685932346     0.000421821345
      14        0.000012256911     0.000030784546     0.000011288791
      15        0.000006967968     0.000021960512    -0.000030076641

  **** Optimization is complete! (in 5 steps) ****
    Final optimized geometry and variables:
    Molecular point group: c1

    Geometry (in Angstrom), charge = 0, multiplicity = 1:

    H           -1.747519311414     0.180320210468    -2.494401457261
    C           -1.236111443454     0.164619635935    -1.552339951044
    C           -1.869770421958     0.609964440118    -0.345790684092
    C            0.024828065501    -0.281295889326    -1.466987666845
    H           -2.883058531540     0.968757924228    -0.384550970511
    C           -1.211481598800     0.581974020664     0.822598753317
    H            0.565071264568    -0.633904932407    -2.324062369696
    N            0.711536844212    -0.323167722809    -0.287346265548
    H           -1.652134445027     0.908338977371     1.744522003257
    C            0.162962990834     0.110210461990     0.910750316985
    C            2.086583240804    -0.805338887889    -0.251505010075
    O            0.810922425136     0.083819019404     1.927653802264
    H            2.268954065424    -1.420389815870    -1.121503213977
    H            2.784449375138     0.022544554930    -0.237301618484
    H            2.233490096701    -1.391917859612     0.640346343639

  Mulliken Charges: (a.u.)
   Center  Symbol    Alpha    Beta     Spin     Total
       1     H     0.39305  0.39305  0.00000  0.21389
       2     C     3.16224  3.16224  0.00000 -0.32448
       3     C     3.05825  3.05825  0.00000 -0.11649
       4     C     2.92151  2.92151  0.00000  0.15698
       5     H     0.39090  0.39090  0.00000  0.21820
       6     C     3.16967  3.16967  0.00000 -0.33933
       7     H     0.38762  0.38762  0.00000  0.22476
       8     N     3.86389  3.86389  0.00000 -0.72778
       9     H     0.38645  0.38645  0.00000  0.22710
      10     C     2.59633  2.59633  0.00000  0.80734
      11     C     3.14235  3.14235  0.00000 -0.28471
      12     O     4.32164  4.32164  0.00000 -0.64328
      13     H     0.41522  0.41522  0.00000  0.16956
      14     H     0.40347  0.40347  0.00000  0.19306
      15     H     0.38741  0.38741  0.00000  0.22518

   Total alpha = 29.00000, Total beta = 29.00000, Total charge =  0.00000
