  ==> Input File <==

--------------------------------------------------------------------------
set {
	reference rhf
	basis 6-31G*
}

set_num_threads( 4 )
memory 2 gb

molecule MOL {
0 1

O	 0.074228	 1.262779	 -0.000085
C	 0.028650	 0.075053	 -0.000277
C	 -1.233602	 -0.752807	 0.000328
O	 1.109162	 -0.694619	 -0.000298
C	 -2.501530	 0.091881	 0.000126
H	 -1.193807	 -1.406641	 -0.865785
H	 -1.193516	 -1.405779	 0.867015
H	 -2.545121	 0.729328	 -0.874513
H	 -3.377167	 -0.548497	 0.000561
H	 -2.544818	 0.730135	 0.874258
C	 1.998933	 -0.553134	 1.092349
H	 2.383775	 0.455324	 1.140548
H	 2.801205	 -1.251437	 0.911812
H	 1.499912	 -0.787853	 2.021519

	symmetry c1
}
set optking {
	frozen_dihedral = ("
		11 4 2 3
	")
}

ee = optimize('scf')
oeprop('DIPOLE', 'QUADRUPOLE', 'MULLIKEN_CHARGES')
f=open( 'psi4out.xyz', 'w' )
f.write( "14  " )
f.write( str(ee) + "\n" )
f.write( MOL.save_string_xyz() )
f.close()
--------------------------------------------------------------------------

    Molecular point group: c1
  Charge       = 0
  Multiplicity = 1
  Basis Set: 6-31G*
  Basis Set:
  @DF-RHF Final Energy:  -305.85708966758398
    Total Energy =                       -305.8570896675842050
    Molecular point group: c1
  Basis Set: 6-31G*
  Basis Set:
  Basis Set: 6-31G*
  Basis Set:
  @DF-RHF Final Energy:  -305.85594388509514
    Total Energy =                       -305.8559438850953711
  Basis Set: 6-31G*
  Basis Set:
  Basis Set: 6-31G*
  Basis Set:
  @DF-RHF Final Energy:  -305.85774827003962
    Total Energy =                       -305.8577482700394512
  Basis Set: 6-31G*
  Basis Set:
  Basis Set: 6-31G*
  Basis Set:
  @DF-RHF Final Energy:  -305.85793502685283
    Total Energy =                       -305.8579350268527151
  Basis Set: 6-31G*
  Basis Set:
  Basis Set: 6-31G*
  Basis Set:
  @DF-RHF Final Energy:  -305.85794624582223
    Total Energy =                       -305.8579462458220632
  Basis Set: 6-31G*
  Basis Set:
  Basis Set: 6-31G*
  Basis Set:
  @DF-RHF Final Energy:  -305.85794737710052
    Total Energy =                       -305.8579473771002881
  Basis Set: 6-31G*
  Basis Set:
  Charge       = 0
  Multiplicity = 1
  Basis Set: 6-31G*
  Basis Set:

    Orbital Energies (a.u.)
    -----------------------

    Doubly Occupied:

       1A    -20.590010     2A    -20.554755     3A    -11.375485
       4A    -11.287684     5A    -11.241459     6A    -11.218358
       7A     -1.462148     8A     -1.366141     9A     -1.063550
      10A     -0.977060    11A     -0.886444    12A     -0.766096
      13A     -0.700428    14A     -0.676767    15A     -0.672255
      16A     -0.620247    17A     -0.612058    18A     -0.555380
      19A     -0.540959    20A     -0.522388    21A     -0.509599
      22A     -0.495514    23A     -0.455220    24A     -0.437212

  @DF-RHF Final Energy:  -305.85794750945649

   => Energetics <=

    Nuclear Repulsion Energy =            246.6274197987169430
    One-Electron Energy =                -905.7963038889955669
    Two-Electron Energy =                 353.3109365808221582
    DFT Exchange-Correlation Energy =       0.0000000000000000
    Empirical Dispersion Energy =           0.0000000000000000
    PCM Polarization Energy =               0.0000000000000000
    EFP Energy =                            0.0000000000000000
    Total Energy =                       -305.8579475094564941
    Molecular point group: c1
  Basis Set: 6-31G*
  Basis Set:

  -Total Gradient:
     Atom            X                  Y                   Z
    ------   -----------------  -----------------  -----------------
       1       -0.000001795864    -0.000028015588    -0.000150762380
       2       -0.001878474828    -0.002029907443    -0.007151510760
       3        0.000135560743    -0.000261039439     0.006298021542
       4        0.005162200606     0.007516514145    -0.002429514225
       5       -0.000008450210    -0.000018475383     0.000005702507
       6        0.000002064686     0.000013598517     0.000007461994
       7        0.000004826597     0.000007894611     0.000009852282
       8       -0.000004459873     0.000003825649    -0.000010230099
       9        0.000002502276     0.000004290250    -0.000002158535
      10        0.000006760942    -0.000001212709     0.000005854447
      11       -0.003417777929    -0.005211050381     0.003415369094
      12        0.000002417802     0.000003493992    -0.000002107616
      13        0.000005028683     0.000001955483     0.000006270542
      14       -0.000010403631    -0.000001871703    -0.000002248795

  **** Optimization is complete! (in 7 steps) ****
    Final optimized geometry and variables:
    Molecular point group: c1

    Geometry (in Angstrom), charge = 0, multiplicity = 1:

    O            0.128321947183     1.350740379964    -0.068495731775
    C            0.083458897581     0.172801063985    -0.178677508323
    C           -1.180610729890    -0.649773096057    -0.182487616092
    O            1.188578983131    -0.593460765475    -0.234686552503
    C           -2.452022635867     0.184905068552    -0.264458085056
    H           -1.117730076197    -1.365858400936    -0.995899662163
    H           -1.154862531985    -1.240559025535     0.730558820605
    H           -2.479461123150     0.761950440748    -1.181392642730
    H           -3.325496297675    -0.457845095050    -0.241150264208
    H           -2.515597546586     0.880028705399     0.563448948489
    C            2.096002595132    -0.480296473619     0.844349267529
    H            2.427128233566     0.541278328023     0.965099239586
    H            2.935478427405    -1.114181446681     0.605033078096
    H            1.633036039384    -0.826991404614     1.761691645835

  Mulliken Charges: (a.u.)
   Center  Symbol    Alpha    Beta     Spin     Total
       1     O     4.26445  4.26445  0.00000 -0.52889
       2     C     2.61059  2.61059  0.00000  0.77881
       3     C     3.20694  3.20694  0.00000 -0.41388
       4     O     4.31485  4.31485  0.00000 -0.62969
       5     C     3.24033  3.24033  0.00000 -0.48066
       6     H     0.39912  0.39912  0.00000  0.20176
       7     H     0.40431  0.40431  0.00000  0.19137
       8     H     0.41054  0.41054  0.00000  0.17892
       9     H     0.41747  0.41747  0.00000  0.16506
      10     H     0.40844  0.40844  0.00000  0.18312
      11     C     3.09359  3.09359  0.00000 -0.18719
      12     H     0.40339  0.40339  0.00000  0.19322
      13     H     0.40515  0.40515  0.00000  0.18969
      14     H     0.42082  0.42082  0.00000  0.15837

   Total alpha = 24.00000, Total beta = 24.00000, Total charge = -0.00000
