                              Psi4 1.0.54 Driver

  ==> Input File <==

--------------------------------------------------------------------------
set {
	reference rhf
	basis cc-pvtz
}

set_num_threads( 4 )
memory 2 gb

molecule MOL {
0 1

H	 3.459101	 0.139266	 -0.762951
C	 2.749156	 -0.051729	 0.031265
C	 1.322304	 0.099773	 -0.484271
H	 2.929445	 -1.053887	 0.403481
H	 2.954281	 0.646699	 0.834672
C	 0.308557	 -0.162619	 0.622645
H	 1.143368	 -0.594400	 -1.295960
H	 1.169532	 1.100095	 -0.870217
N	 -1.069352	 -0.004081	 0.085342
H	 0.371632	 -1.172932	 0.991288
H	 0.400391	 0.548875	 1.426218
O	 -1.330017	 -0.579312	 -0.917524
O	 -1.805101	 0.709829	 0.680277

	symmetry c1
}
set optking {
	frozen_dihedral = ("
		12 9 6 3
	")
}

ee,wfn = optimize('scf', return_wfn=True)
oeprop( wfn, 'DIPOLE', 'QUADRUPOLE', 'MULLIKEN_CHARGES')
f=open( 'psi4out.xyz', 'w' )
f.write( "13  " )
f.write( str(ee) + "\n" )
f.write( MOL.save_string_xyz() )
f.close()
--------------------------------------------------------------------------

    Molecular point group: c1
  Charge       = 0
  Multiplicity = 1
  Basis Set: CC-PVTZ
  Basis Set:
  @DF-RHF Final Energy:  -321.86057748992334
    Total Energy =                       -321.8605774899232301
    Molecular point group: c1
  Basis Set: CC-PVTZ
  Basis Set:
  Basis Set: CC-PVTZ
  Basis Set:
  @DF-RHF Final Energy:  -321.85622796903533
    Total Energy =                       -321.8562279690352739
  Basis Set: CC-PVTZ
  Basis Set:
  Basis Set: CC-PVTZ
  Basis Set:
  @DF-RHF Final Energy:  -321.85991551999280
    Total Energy =                       -321.8599155199926258
  Basis Set: CC-PVTZ
  Basis Set:
  Basis Set: CC-PVTZ
  Basis Set:
  @DF-RHF Final Energy:  -321.86102009634646
    Total Energy =                       -321.8610200963464649
  Basis Set: CC-PVTZ
  Basis Set:
  Basis Set: CC-PVTZ
  Basis Set:
  @DF-RHF Final Energy:  -321.86095347547428
    Total Energy =                       -321.8609534754743322
  Basis Set: CC-PVTZ
  Basis Set:
  Basis Set: CC-PVTZ
  Basis Set:
  @DF-RHF Final Energy:  -321.86106486837849
    Total Energy =                       -321.8610648683783211
  Basis Set: CC-PVTZ
  Basis Set:
  Charge       = 0
  Multiplicity = 1
  Basis Set: CC-PVTZ
  Basis Set:

    Orbital Energies (a.u.)
    -----------------------

    Doubly Occupied:

       1A    -20.592255     2A    -20.589537     3A    -15.837729
       4A    -11.298072     5A    -11.250510     6A    -11.235971
       7A     -1.636665     8A     -1.420858     9A     -1.132747
      10A     -1.027352    11A     -0.884529    12A     -0.830869
      13A     -0.763259    14A     -0.743441    15A     -0.729675
      16A     -0.666809    17A     -0.605188    18A     -0.583629
      19A     -0.551398    20A     -0.522047    21A     -0.510886
      22A     -0.487721    23A     -0.474446    24A     -0.454318

  @DF-RHF Final Energy:  -321.86106530911667

   => Energetics <=

    Nuclear Repulsion Energy =            247.7538584345979302
    One-Electron Energy =                -929.5700274812091948
    Two-Electron Energy =                 359.9551037374945395
    DFT Exchange-Correlation Energy =       0.0000000000000000
    Empirical Dispersion Energy =           0.0000000000000000
    PCM Polarization Energy =               0.0000000000000000
    EFP Energy =                            0.0000000000000000
    Total Energy =                       -321.8610653091167819
    Molecular point group: c1
  Basis Set: CC-PVTZ
  Basis Set:

  -Total Gradient:
     Atom            X                  Y                   Z
    ------   -----------------  -----------------  -----------------
       1        0.000005910566     0.000009569148     0.000005392931
       2       -0.000011760183     0.000036660809     0.000002848170
       3        0.000007321502    -0.000464632962    -0.000130396358
       4       -0.000006197977     0.000000338542    -0.000012809755
       5        0.000007123131    -0.000005157248     0.000009993528
       6        0.000049925446     0.000723631280     0.000026758993
       7       -0.000004436255    -0.000016668670    -0.000000080176
       8        0.000001139981    -0.000005455695     0.000010958839
       9       -0.000256192691    -0.000780467610     0.000293484437
      10       -0.000003154733     0.000005758469    -0.000023001295
      11       -0.000027249423     0.000012672413     0.000013008389
      12        0.000236415666     0.000394207000    -0.000345470690
      13        0.000001154968     0.000089544524     0.000149312985

  **** Optimization is complete! (in 7 steps) ****
    Final optimized geometry and variables:
    Molecular point group: c1

    Geometry (in Angstrom), charge = 0, multiplicity = 1:

    H            3.463969361002     0.227240842999    -0.832344253085
    C            2.764010649239     0.020225168120    -0.033347222302
    C            1.330233271771     0.130542310837    -0.542103579137
    H            2.973606863740    -0.976052861056     0.340164598263
    H            2.957522383293     0.725006434327     0.767502611480
    C            0.338316503377    -0.151505384063     0.574059348996
    H            1.162726734932    -0.564766329891    -1.351624154252
    H            1.152388866361     1.126678045710    -0.931835440919
    N           -1.072605251305    -0.025327381844     0.108745876008
    H            0.423813333845    -1.168935316633     0.929506966072
    H            0.433707816533     0.530525927716     1.401010091543
    O           -1.372644625376    -0.602163225474    -0.882509583219
    O           -1.805680103565     0.631210219950     0.768036813597

  Mulliken Charges: (a.u.)
   Center  Symbol    Alpha    Beta     Spin     Total
       1     H     0.44150  0.44150  0.00000  0.11701
       2     C     3.15161  3.15161  0.00000 -0.30322
       3     C     3.09553  3.09553  0.00000 -0.19105
       4     H     0.45234  0.45234  0.00000  0.09532
       5     H     0.45224  0.45224  0.00000  0.09552
       6     C     3.04123  3.04123  0.00000 -0.08245
       7     H     0.43320  0.43320  0.00000  0.13359
       8     H     0.44358  0.44358  0.00000  0.11284
       9     N     3.27651  3.27651  0.00000  0.44698
      10     H     0.43753  0.43753  0.00000  0.12495
      11     H     0.43207  0.43207  0.00000  0.13586
      12     O     4.17350  4.17350  0.00000 -0.34700
      13     O     4.16918  4.16918  0.00000 -0.33836

   Total alpha = 24.00000, Total beta = 24.00000, Total charge =  0.00000

*** Psi4 exiting successfully. Buy a developer a beer!
