  ==> Input File <==

--------------------------------------------------------------------------
set {
	reference rhf
	basis 6-31G*
}

set_num_threads( 1 )
memory 2 gb

molecule MOL {
0 1

O	 2.212898	 -0.347224	 0.055713
C	 1.122059	 0.121804	 -0.000188
C	 -0.170150	 -0.657997	 -0.000612
O	 0.895525	 1.427393	 -0.071563
C	 -1.412532	 0.227344	 -0.000452
H	 -0.153702	 -1.313099	 -0.867402
H	 -0.153924	 -1.313811	 0.865644
C	 -2.706999	 -0.587347	 -0.000541
H	 -1.388000	 0.879466	 -0.868000
H	 -1.387972	 0.879138	 0.867341
C	 -3.956778	 0.291888	 0.000910
H	 -2.726114	 -1.239230	 -0.871609
H	 -2.725217	 -1.240844	 0.869333
H	 -3.985213	 0.933254	 -0.875158
H	 -4.860123	 -0.309979	 0.000519
H	 -3.984618	 0.931166	 0.878514
C	 2.028519	 2.276749	 -0.079270
H	 2.603838	 2.151078	 0.826657
H	 1.642974	 3.282484	 -0.140918
H	 2.657318	 2.063787	 -0.931775

	symmetry c1
}
set optking {
	frozen_dihedral = ("
		9 5 8 12,
		9 5 3 6,
		1 2 4 17
	")
}

ee = energy('scf')
oeprop('DIPOLE', 'QUADRUPOLE', 'MULLIKEN_CHARGES')
f=open( 'psi4out.xyz', 'w' )
f.write( "20  " )
f.write( str(ee) + "\n" )
f.write( MOL.save_string_xyz() )
f.close()
--------------------------------------------------------------------------

    Molecular point group: c1

    Geometry (in Angstrom), charge = 0, multiplicity = 1:

       Center              X                  Y                   Z               Mass
    ------------   -----------------  -----------------  -----------------  -----------------
           O          2.436921818443    -0.718460713667     0.068325801483    15.994914619560
           C          1.346082818443    -0.249432713667     0.012424801483    12.000000000000
           C          0.053873818443    -1.029233713667     0.012000801483    12.000000000000
           O          1.119548818443     1.056156286333    -0.058950198517    15.994914619560
           C         -1.188508181557    -0.143892713667     0.012160801483    12.000000000000
           H          0.070321818443    -1.684335713667    -0.854789198517     1.007825032070
           H          0.070099818443    -1.685047713667     0.878256801483     1.007825032070
           C         -2.482975181557    -0.958583713667     0.012071801483    12.000000000000
           H         -1.163976181557     0.508229286333    -0.855387198517     1.007825032070
           H         -1.163948181557     0.507901286333     0.879953801483     1.007825032070
           C         -3.732754181557    -0.079348713667     0.013522801483    12.000000000000
           H         -2.502090181557    -1.610466713667    -0.858996198517     1.007825032070
           H         -2.501193181557    -1.612080713667     0.881945801483     1.007825032070
           H         -3.761189181557     0.562017286333    -0.862545198517     1.007825032070
           H         -4.636099181557    -0.681215713667     0.013131801483     1.007825032070
           H         -3.760594181557     0.559929286333     0.891126801483     1.007825032070
           C          2.252542818443     1.905512286333    -0.066657198517    12.000000000000
           H          2.827861818443     1.779841286333     0.839269801483     1.007825032070
           H          1.866997818443     2.911247286333    -0.128305198517     1.007825032070
           H          2.881341818443     1.692550286333    -0.919162198517     1.007825032070

  Charge       = 0
  Multiplicity = 1
  Basis Set: 6-31G*
  Basis Set:

    Orbital Energies (a.u.)
    -----------------------

    Doubly Occupied:

       1A    -20.605495     2A    -20.542354     3A    -11.372822
       4A    -11.281359     5A    -11.235766     6A    -11.221368
       7A    -11.220769     8A    -11.212526     9A     -1.470153
      10A     -1.361980    11A     -1.092378    12A     -1.024958
      13A     -0.964834    14A     -0.891403    15A     -0.805360
      16A     -0.774523    17A     -0.694788    18A     -0.685276
      19A     -0.670942    20A     -0.645747    21A     -0.593305
      22A     -0.591769    23A     -0.579848    24A     -0.540688
      25A     -0.532701    26A     -0.524561    27A     -0.503204
      28A     -0.493933    29A     -0.477769    30A     -0.474919
      31A     -0.450903    32A     -0.427357

  @DF-RHF Final Energy:  -383.93750551785973

   => Energetics <=

    Nuclear Repulsion Energy =            386.0171194727890338
    One-Electron Energy =               -1287.9778593216688023
    Two-Electron Energy =                 518.0232343310196939
    DFT Exchange-Correlation Energy =       0.0000000000000000
    Empirical Dispersion Energy =           0.0000000000000000
    PCM Polarization Energy =               0.0000000000000000
    EFP Energy =                            0.0000000000000000
    Total Energy =                       -383.9375055178600178

  Mulliken Charges: (a.u.)
   Center  Symbol    Alpha    Beta     Spin     Total
       1     O     4.28834  4.28834  0.00000 -0.57667
       2     C     2.60078  2.60078  0.00000  0.79844
       3     C     3.21634  3.21634  0.00000 -0.43267
       4     O     4.30559  4.30559  0.00000 -0.61119
       5     C     3.14895  3.14895  0.00000 -0.29791
       6     H     0.39816  0.39816  0.00000  0.20368
       7     H     0.39803  0.39803  0.00000  0.20394
       8     C     3.15424  3.15424  0.00000 -0.30847
       9     H     0.41296  0.41296  0.00000  0.17407
      10     H     0.41449  0.41449  0.00000  0.17101
      11     C     3.23919  3.23919  0.00000 -0.47837
      12     H     0.42259  0.42259  0.00000  0.15482
      13     H     0.42255  0.42255  0.00000  0.15491
      14     H     0.42078  0.42078  0.00000  0.15844
      15     H     0.41819  0.41819  0.00000  0.16362
      16     H     0.42079  0.42079  0.00000  0.15841
      17     C     3.09203  3.09203  0.00000 -0.18405
      18     H     0.40858  0.40858  0.00000  0.18283
      19     H     0.40881  0.40881  0.00000  0.18238
      20     H     0.40861  0.40861  0.00000  0.18279

   Total alpha = 32.00000, Total beta = 32.00000, Total charge = -0.00000
