  ==> Input File <==

--------------------------------------------------------------------------
set {
	reference rhf
	basis 6-31G*
}

set_num_threads( 4 )
memory 2 gb

molecule MOL {
0 1

O	 -2.821601	 1.309235	 -0.001213
C	 -2.668563	 0.129746	 -0.000350
C	 -3.801572	 -0.864014	 -0.000442
O	 -1.481751	 -0.454642	 0.000584
H	 -4.417280	 -0.689587	 -0.874708
H	 -3.443784	 -1.883046	 -0.000565
H	 -4.417179	 -0.689832	 0.873954
C	 -0.334255	 0.388708	 0.000906
C	 0.891947	 -0.504646	 0.000751
H	 -0.365390	 1.025305	 -0.873475
H	 -0.365484	 1.024911	 0.875569
C	 2.191998	 0.301789	 0.000897
H	 0.855148	 -1.151283	 -0.871571
H	 0.855132	 -1.151660	 0.872805
C	 1.960908	 1.804797	 0.167896
H	 2.839335	 -0.051781	 0.801541
H	 2.730676	 0.123680	 -0.928181
C	 3.259516	 2.610080	 0.169381
H	 1.423021	 1.984605	 1.096024
H	 1.316082	 2.160240	 -0.632685
H	 3.912135	 2.300469	 0.980704
H	 3.063261	 3.670879	 0.289482
H	 3.804214	 2.477703	 -0.761098

	symmetry c1
}
set optking {
	frozen_dihedral = ("
		16 12 9 13
	")
}

ee = optimize('scf')
oeprop('DIPOLE', 'QUADRUPOLE', 'MULLIKEN_CHARGES')
f=open( 'psi4out.xyz', 'w' )
f.write( "23  " )
f.write( str(ee) + "\n" )
f.write( MOL.save_string_xyz() )
f.close()
--------------------------------------------------------------------------

    Molecular point group: c1
  Charge       = 0
  Multiplicity = 1
  Basis Set: 6-31G*
  Basis Set:
  @DF-RHF Final Energy:  -422.96527656673470
    Total Energy =                       -422.9652765667356107
    Molecular point group: c1
  Basis Set: 6-31G*
  Basis Set:
  Basis Set: 6-31G*
  Basis Set:
  @DF-RHF Final Energy:  -422.96535364179078
    Total Energy =                       -422.9653536417908981
  Basis Set: 6-31G*
  Basis Set:
  Basis Set: 6-31G*
  Basis Set:
  @DF-RHF Final Energy:  -422.96924970239075
    Total Energy =                       -422.9692497023904707
  Basis Set: 6-31G*
  Basis Set:
  Basis Set: 6-31G*
  Basis Set:
  @DF-RHF Final Energy:  -422.96986820660766
    Total Energy =                       -422.9698682066076572
  Basis Set: 6-31G*
  Basis Set:
  @DF-RHF Final Energy:  -422.96992522846796
    Total Energy =                       -422.9699252284686963
  @DF-RHF Final Energy:  -422.96995511040171
    Total Energy =                       -422.9699551104013153
  Basis Set: 6-31G*
  Basis Set:
  @DF-RHF Final Energy:  -422.96995940347131
    Total Energy =                       -422.9699594034718757
  Basis Set: 6-31G*
  Basis Set:
  Basis Set: 6-31G*
  Basis Set:
  @DF-RHF Final Energy:  -422.96996304006984
    Total Energy =                       -422.9699630400695014
  Basis Set: 6-31G*
  Basis Set:
  Basis Set: 6-31G*
  Basis Set:
  @DF-RHF Final Energy:  -422.96996451317841
    Total Energy =                       -422.9699645131784109
  Basis Set: 6-31G*
  Basis Set:
  Charge       = 0
  Multiplicity = 1
  Basis Set: 6-31G*
  Basis Set:

    Orbital Energies (a.u.)
    -----------------------

    Doubly Occupied:

       1A    -20.602474     2A    -20.540208     3A    -11.373791
       4A    -11.280829     5A    -11.232166     6A    -11.224532
       7A    -11.223946     8A    -11.222236     9A    -11.213109
      10A     -1.467471    11A     -1.360365    12A     -1.090321
      13A     -1.040105    14A     -1.001190    15A     -0.930979
      16A     -0.854042    17A     -0.788544    18A     -0.776674
      19A     -0.691549    20A     -0.684553    21A     -0.664925
      22A     -0.644503    23A     -0.605157    24A     -0.588124
      25A     -0.575645    26A     -0.569275    27A     -0.568162
      28A     -0.527256    29A     -0.524632    30A     -0.513287
      31A     -0.499793    32A     -0.473844    33A     -0.464140
      34A     -0.460155    35A     -0.446536    36A     -0.435542

  @DF-RHF Final Energy:  -422.96996486683832

   => Energetics <=

    Nuclear Repulsion Energy =            457.1315390281911846
    One-Electron Energy =               -1481.8828876437896724
    Two-Electron Energy =                 601.7813837487595947
    DFT Exchange-Correlation Energy =       0.0000000000000000
    Empirical Dispersion Energy =           0.0000000000000000
    PCM Polarization Energy =               0.0000000000000000
    EFP Energy =                            0.0000000000000000
    Total Energy =                       -422.9699648668389500
    Molecular point group: c1
  Basis Set: 6-31G*
  Basis Set:

  -Total Gradient:
     Atom            X                  Y                   Z
    ------   -----------------  -----------------  -----------------
       1        0.000002540000    -0.000000395678     0.000003351991
       2       -0.000000858811    -0.000004073639     0.000004039852
       3       -0.000000553417    -0.000000145802     0.000003870803
       4       -0.000007601396    -0.000001121328     0.000000134386
       5       -0.000003860106    -0.000006041841    -0.000003039746
       6       -0.000000148351     0.000000029633    -0.000001714780
       7        0.000003390522     0.000005851924    -0.000003109646
       8       -0.000009996177    -0.000007152904    -0.000025322937
       9        0.001051270636    -0.001791690386     0.001838102587
      10       -0.000003166805    -0.000010814147     0.000006342751
      11        0.000005005775     0.000003674527     0.000007286351
      12        0.000880898386    -0.001510715497    -0.002068720772
      13       -0.001036205345     0.001738274561    -0.001214195025
      14        0.000004506093    -0.000003689998    -0.000007293547
      15        0.000000923791     0.000015364142    -0.000041684750
      16       -0.000914781783     0.001572547235     0.001466316053
      17        0.000010280098     0.000008620951     0.000011582053
      18        0.000001932369    -0.000004826978     0.000011257122
      19        0.000007662636    -0.000011316630     0.000002798193
      20        0.000005516416     0.000006410394     0.000007090826
      21        0.000004930833     0.000000948833     0.000000402827
      22       -0.000000098265     0.000000135742     0.000001517204
      23       -0.000001587089     0.000000126886     0.000000988205

  **** Optimization is complete! (in 10 steps) ****
    Final optimized geometry and variables:
    Molecular point group: c1

    Geometry (in Angstrom), charge = 0, multiplicity = 1:

    O           -2.632532597409     0.688242066968    -0.053560364003
    C           -2.406388428634    -0.479509849384    -0.046356796420
    C           -3.475979513862    -1.541328742577    -0.048136494866
    O           -1.186056478245    -0.989657679972    -0.035744781725
    H           -4.096841662776    -1.408469786141    -0.926056958970
    H           -3.056040147977    -2.536350353731    -0.042380627014
    H           -4.105633172717    -1.402215292173     0.822541567948
    C           -0.091705898972    -0.076052100911    -0.031993742982
    C            1.173232634752    -0.921969812450    -0.022719018989
    H           -0.161132640124     0.549933791991    -0.910284242927
    H           -0.174695702361     0.558921561332     0.837977922084
    C            2.514127774731    -0.138599778002    -0.030038756251
    H            1.123913828526    -1.563836765666    -0.895928487741
    H            1.126564211750    -1.573290198990     0.843173541465
    C            2.440551257058     1.385124148514     0.143550061602
    H            3.139450166345    -0.521577526527     0.771209009656
    H            3.043107128114    -0.348276727033    -0.954888931761
    C            3.828802194701     2.024656359416     0.125664644786
    H            1.951244181813     1.630697386868     1.082362502338
    H            1.838468394236     1.828806027440    -0.644429835873
    H            4.451530833004     1.633587883336     0.925247778968
    H            3.765313218813     3.100800254255     0.251657075196
    H            4.337918651531     1.830620567498    -0.814118992362

  Mulliken Charges: (a.u.)
   Center  Symbol    Alpha    Beta     Spin     Total
       1     O     4.28410  4.28410  0.00000 -0.56820
       2     C     2.61546  2.61546  0.00000  0.76909
       3     C     3.28778  3.28778  0.00000 -0.57555
       4     O     4.31362  4.31362  0.00000 -0.62725
       5     H     0.39758  0.39758  0.00000  0.20484
       6     H     0.39992  0.39992  0.00000  0.20017
       7     H     0.39759  0.39759  0.00000  0.20482
       8     C     2.99989  2.99989  0.00000  0.00023
       9     C     3.16796  3.16796  0.00000 -0.33591
      10     H     0.40987  0.40987  0.00000  0.18026
      11     H     0.40915  0.40915  0.00000  0.18169
      12     C     3.15986  3.15986  0.00000 -0.31972
      13     H     0.41178  0.41178  0.00000  0.17644
      14     H     0.41174  0.41174  0.00000  0.17651
      15     C     3.16073  3.16073  0.00000 -0.32146
      16     H     0.41780  0.41780  0.00000  0.16439
      17     H     0.41783  0.41783  0.00000  0.16434
      18     C     3.23923  3.23923  0.00000 -0.47846
      19     H     0.41988  0.41988  0.00000  0.16024
      20     H     0.41935  0.41935  0.00000  0.16129
      21     H     0.42104  0.42104  0.00000  0.15793
      22     H     0.41692  0.41692  0.00000  0.16616
      23     H     0.42092  0.42092  0.00000  0.15816

   Total alpha = 36.00000, Total beta = 36.00000, Total charge = -0.00000
