  ==> Input File <==

--------------------------------------------------------------------------
set {
	reference rhf
	basis 6-31G*
}

set_num_threads( 1 )
memory 2 gb

molecule MOL {
0 1

H	 2.219699	 -3.448347	 -1.290881
C	 2.341329	 -2.543030	 -0.704914
C	 1.087556	 -1.672056	 -0.771417
H	 2.559831	 -2.839058	 0.317265
H	 3.210138	 -2.015813	 -1.088920
C	 1.217350	 -0.386724	 0.039429
H	 0.227250	 -2.225035	 -0.407444
H	 0.878121	 -1.421421	 -1.810027
N	 0.000003	 0.397874	 -0.023260
H	 1.400482	 -0.636932	 1.080977
H	 2.093214	 0.174991	 -0.302208
C	 -1.217365	 -0.386708	 0.039277
H	 -0.000031	 1.072115	 0.718656
C	 -2.452633	 0.504241	 -0.042481
H	 -1.215291	 -1.074557	 -0.802042
H	 -1.269739	 -1.003477	 0.942735
C	 -3.758029	 -0.289423	 -0.010781
H	 -2.394220	 1.093569	 -0.952170
H	 -2.440793	 1.210787	 0.785871
H	 -3.816659	 -0.981993	 -0.845726
H	 -4.617837	 0.370165	 -0.069296
H	 -3.847478	 -0.867502	 0.904682

	symmetry c1
}
set optking {
	frozen_dihedral = ("
		15 12 14 18
	")
}

ee = energy('scf')
oeprop('DIPOLE', 'QUADRUPOLE', 'MULLIKEN_CHARGES')
f=open( 'psi4out.xyz', 'w' )
f.write( "22  " )
f.write( str(ee) + "\n" )
f.write( MOL.save_string_xyz() )
f.close()
--------------------------------------------------------------------------

    Molecular point group: c1

    Geometry (in Angstrom), charge = 0, multiplicity = 1:

       Center              X                  Y                   Z               Mass
    ------------   -----------------  -----------------  -----------------  -----------------
           H          2.619713582566    -2.811443326808    -1.087391610090     1.007825032070
           C          2.741343582566    -1.906126326808    -0.501424610090    12.000000000000
           C          1.487570582566    -1.035152326808    -0.567927610090    12.000000000000
           H          2.959845582566    -2.202154326808     0.520754389910     1.007825032070
           H          3.610152582566    -1.378909326808    -0.885430610090     1.007825032070
           C          1.617364582566     0.250179673192     0.242918389910    12.000000000000
           H          0.627264582566    -1.588131326808    -0.203954610090     1.007825032070
           H          1.278135582566    -0.784517326808    -1.606537610090     1.007825032070
           N          0.400017582566     1.034777673192     0.180229389910    14.003074004780
           H          1.800496582566    -0.000028326808     1.284466389910     1.007825032070
           H          2.493228582566     0.811894673192    -0.098718610090     1.007825032070
           C         -0.817350417434     0.250195673192     0.242766389910    12.000000000000
           H          0.399983582566     1.709018673192     0.922145389910     1.007825032070
           C         -2.052618417434     1.141144673192     0.161008389910    12.000000000000
           H         -0.815276417434    -0.437653326808    -0.598552610090     1.007825032070
           H         -0.869724417434    -0.366573326808     1.146224389910     1.007825032070
           C         -3.358014417434     0.347480673192     0.192708389910    12.000000000000
           H         -1.994205417434     1.730472673192    -0.748680610090     1.007825032070
           H         -2.040778417434     1.847690673192     0.989360389910     1.007825032070
           H         -3.416644417434    -0.345089326808    -0.642236610090     1.007825032070
           H         -4.217822417434     1.007068673192     0.134193389910     1.007825032070
           H         -3.447463417434    -0.230598326808     1.108171389910     1.007825032070

  Charge       = 0
  Multiplicity = 1
  Basis Set: 6-31G*
  Basis Set:

    Orbital Energies (a.u.)
    -----------------------

    Doubly Occupied:

       1A    -15.531283     2A    -11.238506     3A    -11.236427
       4A    -11.213590     5A    -11.212482     6A    -11.209812
       7A    -11.209340     8A     -1.206562     9A     -1.055360
      10A     -1.027595    11A     -0.928280    12A     -0.879151
      13A     -0.816734    14A     -0.776034    15A     -0.663608
      16A     -0.639541    17A     -0.617026    18A     -0.612939
      19A     -0.571463    20A     -0.557225    21A     -0.549961
      22A     -0.529595    23A     -0.504077    24A     -0.485136
      25A     -0.478949    26A     -0.471155    27A     -0.467109
      28A     -0.453616    29A     -0.352916

  @DF-RHF Final Energy:  -290.37104952882044

   => Energetics <=

    Nuclear Repulsion Energy =            321.3219675356226617
    One-Electron Energy =               -1028.3951809186983155
    Two-Electron Energy =                 416.7021638542557866
    DFT Exchange-Correlation Energy =       0.0000000000000000
    Empirical Dispersion Energy =           0.0000000000000000
    PCM Polarization Energy =               0.0000000000000000
    EFP Energy =                            0.0000000000000000
    Total Energy =                       -290.3710495288198672

  Mulliken Charges: (a.u.)
   Center  Symbol    Alpha    Beta     Spin     Total
       1     H     0.41813  0.41813  0.00000  0.16374
       2     C     3.24068  3.24068  0.00000 -0.48135
       3     C     3.17045  3.17045  0.00000 -0.34089
       4     H     0.42155  0.42155  0.00000  0.15690
       5     H     0.42097  0.42097  0.00000  0.15806
       6     C     3.04295  3.04295  0.00000 -0.08590
       7     H     0.41508  0.41508  0.00000  0.16984
       8     H     0.41536  0.41536  0.00000  0.16928
       9     N     3.85628  3.85628  0.00000 -0.71256
      10     H     0.43612  0.43612  0.00000  0.12776
      11     H     0.41976  0.41976  0.00000  0.16048
      12     C     3.05866  3.05866  0.00000 -0.11733
      13     H     0.33366  0.33366  0.00000  0.33268
      14     C     3.15300  3.15300  0.00000 -0.30601
      15     H     0.41506  0.41506  0.00000  0.16989
      16     H     0.43768  0.43768  0.00000  0.12463
      17     C     3.24329  3.24329  0.00000 -0.48659
      18     H     0.41314  0.41314  0.00000  0.17372
      19     H     0.42738  0.42738  0.00000  0.14523
      20     H     0.42109  0.42109  0.00000  0.15782
      21     H     0.41773  0.41773  0.00000  0.16454
      22     H     0.42197  0.42197  0.00000  0.15606

   Total alpha = 29.00000, Total beta = 29.00000, Total charge = -0.00000
