  ==> Input File <==

--------------------------------------------------------------------------
set {
	reference rhf
	basis 6-31G*
}

set_num_threads( 4 )
memory 2 gb

molecule MOL {
0 1

H	 2.439398	 1.871376	 -1.433203
C	 2.071692	 1.102959	 -0.758989
C	 0.553234	 0.993436	 -0.855998
H	 2.362598	 1.363367	 0.252606
H	 2.568340	 0.174560	 -1.019665
N	 -0.000257	 -0.000071	 0.054619
H	 0.130727	 1.958570	 -0.606234
H	 0.256507	 0.790415	 -1.889159
C	 -1.363055	 0.315058	 0.462241
C	 0.129068	 -1.358236	 -0.456574
C	 -2.412078	 -0.285320	 -0.468531
H	 -1.482241	 1.391144	 0.451970
H	 -1.549931	 -0.001174	 1.492681
C	 0.223492	 -2.400953	 0.652961
H	 1.033979	 -1.415497	 -1.048193
H	 -0.693124	 -1.604691	 -1.134843
H	 -2.262839	 0.075384	 -1.480151
H	 -2.369300	 -1.368867	 -0.491760
H	 -3.410332	 -0.003975	 -0.144961
H	 1.074576	 -2.190310	 1.290863
H	 -0.663645	 -2.419099	 1.276827
H	 0.346204	 -3.393920	 0.229542

	symmetry c1
}
set optking {
	frozen_dihedral = ("
		3 6 9 11
	")
}

ee = optimize('scf')
oeprop('DIPOLE', 'QUADRUPOLE', 'MULLIKEN_CHARGES')
f=open( 'psi4out.xyz', 'w' )
f.write( "22  " )
f.write( str(ee) + "\n" )
f.write( MOL.save_string_xyz() )
f.close()
--------------------------------------------------------------------------

    Molecular point group: c1
  Charge       = 0
  Multiplicity = 1
  Basis Set: 6-31G*
  Basis Set:
  @DF-RHF Final Energy:  -290.36046622870754
    Total Energy =                       -290.3604662287078781
    Molecular point group: c1
  Basis Set: 6-31G*
  Basis Set:
  Basis Set: 6-31G*
  Basis Set:
  @DF-RHF Final Energy:  -290.36501397744280
    Total Energy =                       -290.3650139774426862
  Basis Set: 6-31G*
  Basis Set:
  Basis Set: 6-31G*
  Basis Set:
  @DF-RHF Final Energy:  -290.36756752561053
    Total Energy =                       -290.3675675256105251
  Basis Set: 6-31G*
  Basis Set:
  Basis Set: 6-31G*
  Basis Set:
  @DF-RHF Final Energy:  -290.36861196696736
    Total Energy =                       -290.3686119669673076
  Basis Set: 6-31G*
  Basis Set:
  @DF-RHF Final Energy:  -290.36874753930863
    Total Energy =                       -290.3687475393084583
  @DF-RHF Final Energy:  -290.36878795620413
    Total Energy =                       -290.3687879562038461
  @DF-RHF Final Energy:  -290.36879550466222
    Total Energy =                       -290.3687955046621028
  Basis Set: 6-31G*
  Basis Set:
  @DF-RHF Final Energy:  -290.36880033341913
    Total Energy =                       -290.3688003334189034
  Basis Set: 6-31G*
  Basis Set:
  Basis Set: 6-31G*
  Basis Set:
  @DF-RHF Final Energy:  -290.36879693760466
    Total Energy =                       -290.3687969376047704
  Basis Set: 6-31G*
  Basis Set:
  Basis Set: 6-31G*
  Basis Set:
  @DF-RHF Final Energy:  -290.36880637586859
    Total Energy =                       -290.3688063758684166
  Basis Set: 6-31G*
  Basis Set:
  Charge       = 0
  Multiplicity = 1
  Basis Set: 6-31G*
  Basis Set:

    Orbital Energies (a.u.)
    -----------------------

    Doubly Occupied:

       1A    -15.532642     2A    -11.240513     3A    -11.240234
       4A    -11.239270     5A    -11.206550     6A    -11.205723
       7A    -11.203324     8A     -1.219566     9A     -1.025421
      10A     -1.018584    11A     -0.955610    12A     -0.863129
      13A     -0.840173    14A     -0.758707    15A     -0.658776
      16A     -0.644000    17A     -0.616680    18A     -0.594577
      19A     -0.568529    20A     -0.548666    21A     -0.543720
      22A     -0.526158    23A     -0.515328    24A     -0.502323
      25A     -0.490575    26A     -0.482166    27A     -0.470308
      28A     -0.460853    29A     -0.327862

  @DF-RHF Final Energy:  -290.36880773206883

   => Energetics <=

    Nuclear Repulsion Energy =            338.6359426336431397
    One-Electron Energy =               -1063.0095676394050770
    Two-Electron Energy =                 434.0048172736928791
    DFT Exchange-Correlation Energy =       0.0000000000000000
    Empirical Dispersion Energy =           0.0000000000000000
    PCM Polarization Energy =               0.0000000000000000
    EFP Energy =                            0.0000000000000000
    Total Energy =                       -290.3688077320690581
    Molecular point group: c1
  Basis Set: 6-31G*
  Basis Set:

  -Total Gradient:
     Atom            X                  Y                   Z
    ------   -----------------  -----------------  -----------------
       1       -0.000009488097    -0.000000520027    -0.000012174830
       2       -0.000011500973    -0.000028145407     0.000009714594
       3        0.001675637061     0.001960243128     0.003332333401
       4       -0.000000309914     0.000002330736     0.000001693328
       5        0.000011478240     0.000008903166    -0.000005839369
       6       -0.002389245902    -0.004350243511    -0.003665321864
       7        0.000019182940     0.000015794339    -0.000004078601
       8        0.000006710489    -0.000011720504     0.000003681869
       9        0.000821588192     0.005753192181    -0.001501914354
      10       -0.000091362304     0.000017156993    -0.000100052646
      11       -0.000001189431    -0.003453778849     0.001999190861
      12        0.000014482983    -0.000007024345    -0.000111017669
      13       -0.000063500938     0.000103472989     0.000045227269
      14       -0.000019936939    -0.000022341751    -0.000006758593
      15        0.000011952364     0.000009201713    -0.000000486902
      16        0.000027213721     0.000011267402     0.000018681572
      17       -0.000019980658    -0.000005309222    -0.000016514250
      18        0.000009332769     0.000012278079     0.000017489929
      19        0.000002278072     0.000003403578    -0.000004757322
      20       -0.000000849234     0.000001170804    -0.000009285879
      21        0.000015611464    -0.000012160623     0.000005590213
      22       -0.000008103904    -0.000007170866     0.000004599244

  **** Optimization is complete! (in 11 steps) ****
    Final optimized geometry and variables:
    Molecular point group: c1

    Geometry (in Angstrom), charge = 0, multiplicity = 1:

    H            2.561481984828     2.196038649406    -1.183077425022
    C            2.186784661908     1.416234900726    -0.525492413132
    C            0.689059655340     1.212803133947    -0.743861448720
    H            2.378923725993     1.707796910867     0.501183526647
    H            2.756853497204     0.516317516803    -0.729286513221
    N            0.123096515015     0.210856009614     0.144415643809
    H            0.190550810178     2.155829430236    -0.555050241958
    H            0.504211610694     0.976799913688    -1.795764341795
    C           -1.197702518018     0.505828187511     0.677219348020
    C            0.362551705670    -1.157572481098    -0.268877227390
    C           -2.401547918514     0.020129391498    -0.139548389157
    H           -1.265455644809     1.577973692778     0.812020301157
    H           -1.271949365367     0.077939689095     1.673220427988
    C            0.259678528116    -2.158798221591     0.878451693808
    H            1.368488454167    -1.208676458068    -0.666732818406
    H           -0.298239351228    -1.463217711929    -1.083921093837
    H           -2.380298508660     0.406712592175    -1.154842916300
    H           -2.446373700241    -1.061535997177    -0.196273323848
    H           -3.322337974814     0.360160628273     0.325938640959
    H            0.926092479322    -1.875119741958     1.685780280960
    H           -0.745671858029    -2.224863164587     1.280065826802
    H            0.538061679907    -3.150397664733     0.534102365657

  Mulliken Charges: (a.u.)
   Center  Symbol    Alpha    Beta     Spin     Total
       1     H     0.42464  0.42464  0.00000  0.15071
       2     C     3.23399  3.23399  0.00000 -0.46799
       3     C     3.05268  3.05268  0.00000 -0.10535
       4     H     0.41664  0.41664  0.00000  0.16671
       5     H     0.42172  0.42172  0.00000  0.15656
       6     N     3.79407  3.79407  0.00000 -0.58814
       7     H     0.42085  0.42085  0.00000  0.15831
       8     H     0.43263  0.43263  0.00000  0.13473
       9     C     3.05410  3.05410  0.00000 -0.10820
      10     C     3.05247  3.05247  0.00000 -0.10494
      11     C     3.24961  3.24961  0.00000 -0.49923
      12     H     0.41869  0.41869  0.00000  0.16262
      13     H     0.41846  0.41846  0.00000  0.16309
      14     C     3.24244  3.24244  0.00000 -0.48487
      15     H     0.41848  0.41848  0.00000  0.16305
      16     H     0.43174  0.43174  0.00000  0.13653
      17     H     0.42044  0.42044  0.00000  0.15911
      18     H     0.41881  0.41881  0.00000  0.16238
      19     H     0.42083  0.42083  0.00000  0.15834
      20     H     0.41449  0.41449  0.00000  0.17103
      21     H     0.42066  0.42066  0.00000  0.15868
      22     H     0.42156  0.42156  0.00000  0.15688

   Total alpha = 29.00000, Total beta = 29.00000, Total charge =  0.00000
