                              Psi4 1.0.54 Driver

  ==> Input File <==

--------------------------------------------------------------------------
set {
	reference rhf
	basis cc-pvtz
}

set_num_threads( 4 )
memory 2 gb

molecule MOL {
0 1

H	 -1.835082	 1.385983	 0.000069
C	 -1.300516	 0.441153	 -0.000028
O	 -0.006604	 0.654344	 -0.000106
O	 -1.828920	 -0.612308	 0.000113
C	 0.515183	 1.561920	 -0.966474
C	 2.010241	 1.638286	 -0.767294
H	 0.044706	 2.525324	 -0.830597
H	 0.261894	 1.204040	 -1.954264
H	 2.249029	 1.994223	 0.226818
H	 2.439387	 2.322765	 -1.489220
H	 2.467311	 0.666286	 -0.902471

	symmetry c1
}
set optking {
	frozen_dihedral = ("
		5 3 2 4
	")
}

ee,wfn = optimize('scf', return_wfn=True)
oeprop( wfn, 'DIPOLE', 'QUADRUPOLE', 'MULLIKEN_CHARGES')
f=open( 'psi4out.xyz', 'w' )
f.write( "11  " )
f.write( str(ee) + "\n" )
f.write( MOL.save_string_xyz() )
f.close()
--------------------------------------------------------------------------

    Molecular point group: c1
  Charge       = 0
  Multiplicity = 1
  Basis Set: CC-PVTZ
  Basis Set:
  @DF-RHF Final Energy:  -266.91655492322502
    Total Energy =                       -266.9165549232250783
    Molecular point group: c1
  Basis Set: CC-PVTZ
  Basis Set:
  Basis Set: CC-PVTZ
  Basis Set:
  @DF-RHF Final Energy:  -266.91740298921388
    Total Energy =                       -266.9174029892139970
  Basis Set: CC-PVTZ
  Basis Set:
  Basis Set: CC-PVTZ
  Basis Set:
  @DF-RHF Final Energy:  -266.91511015227314
    Total Energy =                       -266.9151101522732574
  Basis Set: CC-PVTZ
  Basis Set:
  Basis Set: CC-PVTZ
  Basis Set:
  @DF-RHF Final Energy:  -266.91785553444879
    Total Energy =                       -266.9178555344487904
  Basis Set: CC-PVTZ
  Basis Set:
  Basis Set: CC-PVTZ
  Basis Set:
  @DF-RHF Final Energy:  -266.91788320479145
    Total Energy =                       -266.9178832047914511
  Basis Set: CC-PVTZ
  Basis Set:
  Basis Set: CC-PVTZ
  Basis Set:
  @DF-RHF Final Energy:  -266.91789840614865
    Total Energy =                       -266.9178984061487654
  Basis Set: CC-PVTZ
  Basis Set:
  Charge       = 0
  Multiplicity = 1
  Basis Set: CC-PVTZ
  Basis Set:

    Orbital Energies (a.u.)
    -----------------------

    Doubly Occupied:

       1A    -20.596010     2A    -20.553431     3A    -11.373050
       4A    -11.303526     5A    -11.230374     6A     -1.473442
       7A     -1.384946     8A     -1.053538     9A     -0.888380
      10A     -0.842277    11A     -0.743427    12A     -0.694071
      13A     -0.661505    14A     -0.628559    15A     -0.569237
      16A     -0.550336    17A     -0.539277    18A     -0.512708
      19A     -0.466534    20A     -0.455605

  @DF-RHF Final Energy:  -266.91789898896769

   => Energetics <=

    Nuclear Repulsion Energy =            176.8209235533411174
    One-Electron Energy =                -714.4371785397967187
    Two-Electron Energy =                 270.6983559974877949
    DFT Exchange-Correlation Energy =       0.0000000000000000
    Empirical Dispersion Energy =           0.0000000000000000
    PCM Polarization Energy =               0.0000000000000000
    EFP Energy =                            0.0000000000000000
    Total Energy =                       -266.9178989889678064
    Molecular point group: c1
  Basis Set: CC-PVTZ
  Basis Set:

  -Total Gradient:
     Atom            X                  Y                   Z
    ------   -----------------  -----------------  -----------------
       1       -0.000004147333     0.000036609795    -0.000031335213
       2        0.000685130322    -0.002678428577     0.007330341646
       3       -0.000145953269     0.005047320441     0.002135552333
       4       -0.000524133608     0.000684784208    -0.005980565318
       5       -0.000027183745    -0.003105777355    -0.003431741960
       6       -0.000015658653    -0.000005005221    -0.000006297483
       7        0.000017282188     0.000004422498    -0.000003160412
       8        0.000031431929     0.000017005572    -0.000008253726
       9       -0.000011873858     0.000000666070    -0.000004194133
      10       -0.000002107844    -0.000000479289     0.000000332629
      11       -0.000002786131    -0.000001118145    -0.000000678364

  **** Optimization is complete! (in 7 steps) ****
    Final optimized geometry and variables:
    Molecular point group: c1

    Geometry (in Angstrom), charge = 0, multiplicity = 1:

    H           -1.665518466316     0.712991388707     0.510635672309
    C           -1.183251549174    -0.256285206187     0.373137716975
    O            0.139435070469    -0.178759434073     0.291045087392
    O           -1.785013474722    -1.258053772404     0.293227366024
    C            0.672305034193     0.779601900146    -0.606478543181
    C            2.153499998535     0.910916285733    -0.342700689912
    H            0.169735904848     1.732116879113    -0.465271139299
    H            0.487149419108     0.446135513590    -1.620499046868
    H            2.332048157144     1.252130115173     0.668811229986
    H            2.588294217940     1.625218470747    -1.031609948361
    H            2.647211277124    -0.042490492589    -0.476066952423

  Mulliken Charges: (a.u.)
   Center  Symbol    Alpha    Beta     Spin     Total
       1     H     0.47437  0.47437  0.00000  0.05126
       2     C     2.84120  2.84120  0.00000  0.31760
       3     O     4.13965  4.13965  0.00000 -0.27929
       4     O     4.16684  4.16684  0.00000 -0.33367
       5     C     2.97400  2.97400  0.00000  0.05200
       6     C     3.13291  3.13291  0.00000 -0.26583
       7     H     0.46460  0.46460  0.00000  0.07079
       8     H     0.45653  0.45653  0.00000  0.08693
       9     H     0.44933  0.44933  0.00000  0.10134
      10     H     0.45556  0.45556  0.00000  0.08888
      11     H     0.44501  0.44501  0.00000  0.10998

   Total alpha = 20.00000, Total beta = 20.00000, Total charge = -0.00000

*** Psi4 exiting successfully. Buy a developer a beer!
