  ==> Input File <==

--------------------------------------------------------------------------
set {
	reference rhf
	basis cc-pvtz
}

set_num_threads( 4 )
memory 2 gb

molecule MOL {
0 1

H	 -0.939693	 0.000281	 1.681345
O	 -0.046262	 -0.000157	 1.387678
C	 -0.000837	 0.000006	 -0.025491
C	 0.940884	 1.102155	 -0.506717
C	 0.466718	 -1.366662	 -0.522236
C	 -1.428783	 0.277101	 -0.475353
H	 0.968625	 1.150490	 -1.589162
H	 1.953250	 0.923143	 -0.157230
H	 0.618402	 2.063484	 -0.126827
H	 0.477041	 -1.408716	 -1.605247
H	 1.472585	 -1.579644	 -0.173030
H	 -0.189786	 -2.144681	 -0.153245
H	 -1.496388	 0.296846	 -1.556708
H	 -1.764067	 1.232033	 -0.090775
H	 -2.094883	 -0.490223	 -0.101537

	symmetry c1
}
set optking {
	frozen_dihedral = ("
		4 3 2 1
	")
}

ee = optimize('scf')
oeprop('DIPOLE', 'QUADRUPOLE', 'MULLIKEN_CHARGES')
f=open( 'psi4out.xyz', 'w' )
f.write( "15  " )
f.write( str(ee) + "\n" )
f.write( MOL.save_string_xyz() )
f.close()
--------------------------------------------------------------------------

    Molecular point group: c1
  Charge       = 0
  Multiplicity = 1
  Basis Set: CC-PVTZ
  Basis Set:
  @DF-RHF Final Energy:  -232.24294767061880
    Total Energy =                       -232.2429476706184914
    Molecular point group: c1
  Basis Set: CC-PVTZ
  Basis Set:
  Basis Set: CC-PVTZ
  Basis Set:
  @DF-RHF Final Energy:  -232.24440854573029
    Total Energy =                       -232.2444085457303800
  Basis Set: CC-PVTZ
  Basis Set:
  Basis Set: CC-PVTZ
  Basis Set:
  @DF-RHF Final Energy:  -232.24484913081872
    Total Energy =                       -232.2448491308185794
  Basis Set: CC-PVTZ
  Basis Set:
  Basis Set: CC-PVTZ
  Basis Set:
  @DF-RHF Final Energy:  -232.24485456254007
    Total Energy =                       -232.2448545625400129
  Basis Set: CC-PVTZ
  Basis Set:
  Charge       = 0
  Multiplicity = 1
  Basis Set: CC-PVTZ
  Basis Set:

    Orbital Energies (a.u.)
    -----------------------

    Doubly Occupied:

       1A    -20.540356     2A    -11.281108     3A    -11.216094
       4A    -11.203694     5A    -11.203285     6A     -1.362903
       7A     -1.065770     8A     -0.946152     9A     -0.936850
      10A     -0.778595    11A     -0.671885    12A     -0.624592
      13A     -0.622914    14A     -0.576400    15A     -0.557462
      16A     -0.534706    17A     -0.517068    18A     -0.511350
      19A     -0.503320    20A     -0.458090    21A     -0.426761

  @DF-RHF Final Energy:  -232.24485497564478

   => Energetics <=

    Nuclear Repulsion Energy =            200.5839912338192335
    One-Electron Energy =                -712.5789779049839581
    Two-Electron Energy =                 279.7501316955199400
    DFT Exchange-Correlation Energy =       0.0000000000000000
    Empirical Dispersion Energy =           0.0000000000000000
    PCM Polarization Energy =               0.0000000000000000
    EFP Energy =                            0.0000000000000000
    Total Energy =                       -232.2448549756447846
    Molecular point group: c1
  Basis Set: CC-PVTZ
  Basis Set:

  -Total Gradient:
     Atom            X                  Y                   Z
    ------   -----------------  -----------------  -----------------
       1        0.000012860028     0.000944516152    -0.000026740358
       2       -0.000124724425    -0.001025492167    -0.000003694522
       3        0.000516087965    -0.000288819632     0.000101906861
       4       -0.000452004344     0.000323504982    -0.000032458716
       5        0.000014953522     0.000064698975    -0.000050826730
       6       -0.000020080988     0.000019069102     0.000027698619
       7        0.000011893886     0.000006112781    -0.000002977685
       8        0.000008408805    -0.000018244443     0.000006084832
       9       -0.000022994745    -0.000019989185     0.000005323985
      10        0.000028844480    -0.000010009086    -0.000001277546
      11        0.000019950672    -0.000027675198     0.000012645546
      12       -0.000025178824     0.000054717364     0.000000498972
      13       -0.000006600429     0.000006879023    -0.000051096554
      14        0.000007925055    -0.000048982304     0.000012411000
      15        0.000030659342     0.000019713637     0.000002502296

  **** Optimization is complete! (in 5 steps) ****
    Final optimized geometry and variables:
    Molecular point group: c1

    Geometry (in Angstrom), charge = 0, multiplicity = 1:

    H           -0.811917172509     0.006034072250     1.756738632713
    O            0.052291303554    -0.009738369714     1.391726161688
    C            0.002019867037    -0.001990592433    -0.025114331276
    C            0.946226813895     1.099254034177    -0.495044243579
    C            0.474277369080    -1.366151693197    -0.519962738460
    C           -1.422858475338     0.278014010604    -0.494584787794
    H            1.001611881976     1.132989086598    -1.577273115036
    H            1.941749677895     0.925385375969    -0.105995263770
    H            0.609042487842     2.063698771784    -0.135498607576
    H            0.506049842973    -1.403371358193    -1.603213329712
    H            1.466207819404    -1.575489830829    -0.139615958194
    H           -0.190711899278    -2.146903148565    -0.169572623724
    H           -1.478633642724     0.301060233267    -1.575860128582
    H           -1.767532204718     1.235678016181    -0.119854271031
    H           -2.101785780068    -0.493185074959    -0.144076846153

  Mulliken Charges: (a.u.)
   Center  Symbol    Alpha    Beta     Spin     Total
       1     H     0.39193  0.39193  0.00000  0.21614
       2     O     4.21519  4.21519  0.00000 -0.43038
       3     C     2.88035  2.88035  0.00000  0.23930
       4     C     3.13949  3.13949  0.00000 -0.27899
       5     C     3.14034  3.14034  0.00000 -0.28068
       6     C     3.16289  3.16289  0.00000 -0.32577
       7     H     0.45959  0.45959  0.00000  0.08081
       8     H     0.44766  0.44766  0.00000  0.10468
       9     H     0.45288  0.45288  0.00000  0.09423
      10     H     0.45924  0.45924  0.00000  0.08152
      11     H     0.44811  0.44811  0.00000  0.10377
      12     H     0.45431  0.45431  0.00000  0.09138
      13     H     0.45048  0.45048  0.00000  0.09905
      14     H     0.44705  0.44705  0.00000  0.10591
      15     H     0.45048  0.45048  0.00000  0.09904

   Total alpha = 21.00000, Total beta = 21.00000, Total charge = -0.00000
