  ==> Input File <==

--------------------------------------------------------------------------
set {
	reference rhf
	basis 6-31G*
}

set_num_threads( 4 )
memory 2 gb

molecule MOL {
0 1

O	 -1.185657	 0.819706	 2.618208
C	 -0.544246	 1.439030	 1.824821
C	 0.719374	 0.854047	 1.218713
C	 -0.969368	 2.814098	 1.360241
C	 0.379448	 -0.143569	 0.099626
H	 1.256627	 0.341640	 2.009347
H	 1.358239	 1.642751	 0.831643
C	 1.631333	 -0.777471	 -0.511575
H	 -0.271748	 -0.905754	 0.512425
H	 -0.184601	 0.361761	 -0.682829
C	 2.915987	 -0.544314	 0.291766
H	 1.766672	 -0.399098	 -1.523130
H	 1.471257	 -1.849544	 -0.605828
C	 3.373361	 0.914346	 0.347591
H	 3.708709	 -1.142521	 -0.150311
H	 2.780642	 -0.921148	 1.303579
H	 3.506512	 1.320010	 -0.651625
H	 4.322697	 0.999599	 0.867103
H	 2.660624	 1.545032	 0.868198
H	 -0.246680	 3.552920	 1.696586
H	 -1.943443	 3.055951	 1.762074
H	 -0.995205	 2.862439	 0.275437

	symmetry c1
}
set optking {
	frozen_dihedral = ("
		3 5 8 12
	")
}

ee = optimize('scf')
oeprop('DIPOLE', 'QUADRUPOLE', 'MULLIKEN_CHARGES')
f=open( 'psi4out.xyz', 'w' )
f.write( "22  " )
f.write( str(ee) + "\n" )
f.write( MOL.save_string_xyz() )
f.close()
--------------------------------------------------------------------------

    Molecular point group: c1
  Charge       = 0
  Multiplicity = 1
  Basis Set: 6-31G*
  Basis Set:
  @DF-RHF Final Energy:  -348.05628331660620
    Total Energy =                       -348.0562833166060273
    Molecular point group: c1
  Basis Set: 6-31G*
  Basis Set:
  Basis Set: 6-31G*
  Basis Set:
  @DF-RHF Final Energy:  -348.07903806787635
    Total Energy =                       -348.0790380678763540
  Basis Set: 6-31G*
  Basis Set:
  Basis Set: 6-31G*
  Basis Set:
  @DF-RHF Final Energy:  -348.08432199313813
    Total Energy =                       -348.0843219931380759
  Basis Set: 6-31G*
  Basis Set:
  Basis Set: 6-31G*
  Basis Set:
  @DF-RHF Final Energy:  -348.08561108844378
    Total Energy =                       -348.0856110884437840
  Basis Set: 6-31G*
  Basis Set:
  @DF-RHF Final Energy:  -348.08400356181590
    Total Energy =                       -348.0840035618159050
  @DF-RHF Final Energy:  -348.08640735434233
    Total Energy =                       -348.0864073543423274
  @DF-RHF Final Energy:  -348.08501299013341
    Total Energy =                       -348.0850129901333503
  @DF-RHF Final Energy:  -348.08662829621170
    Total Energy =                       -348.0866282962115292
  Basis Set: 6-31G*
  Basis Set:
  @DF-RHF Final Energy:  -348.08670334337734
    Total Energy =                       -348.0867033433771667
  Basis Set: 6-31G*
  Basis Set:
  Basis Set: 6-31G*
  Basis Set:
  @DF-RHF Final Energy:  -348.08663487834946
    Total Energy =                       -348.0866348783496278
  Basis Set: 6-31G*
  Basis Set:
  Basis Set: 6-31G*
  Basis Set:
  @DF-RHF Final Energy:  -348.08672142345586
    Total Energy =                       -348.0867214234555718
  Basis Set: 6-31G*
  Basis Set:
  Charge       = 0
  Multiplicity = 1
  Basis Set: 6-31G*
  Basis Set:

    Orbital Energies (a.u.)
    -----------------------

    Doubly Occupied:

       1A    -20.547478     2A    -11.324474     3A    -11.230519
       4A    -11.228707     5A    -11.228255     6A    -11.222914
       7A    -11.221989     8A    -11.213619     9A     -1.393300
      10A     -1.091207    11A     -1.042162    12A     -0.998661
      13A     -0.944979    14A     -0.859873    15A     -0.780947
      16A     -0.734039    17A     -0.658298    18A     -0.653784
      19A     -0.619963    20A     -0.607878    21A     -0.603028
      22A     -0.587280    23A     -0.558889    24A     -0.549944
      25A     -0.536285    26A     -0.519971    27A     -0.505290
      28A     -0.489045    29A     -0.464873    30A     -0.456999
      31A     -0.455406    32A     -0.396650

  @DF-RHF Final Energy:  -348.08672191722201

   => Energetics <=

    Nuclear Repulsion Energy =            378.6851926463151585
    One-Electron Energy =               -1222.0904209339016688
    Two-Electron Energy =                 495.3185063703643891
    DFT Exchange-Correlation Energy =       0.0000000000000000
    Empirical Dispersion Energy =           0.0000000000000000
    PCM Polarization Energy =               0.0000000000000000
    EFP Energy =                            0.0000000000000000
    Total Energy =                       -348.0867219172221212
    Molecular point group: c1
  Basis Set: 6-31G*
  Basis Set:

  -Total Gradient:
     Atom            X                  Y                   Z
    ------   -----------------  -----------------  -----------------
       1        0.000003466594     0.000000972221     0.000000124459
       2        0.000011486563    -0.000000563632    -0.000004212017
       3       -0.000253116032    -0.002244226231     0.001981796095
       4       -0.000000415166    -0.000004294543    -0.000008476068
       5       -0.000198855627     0.002680012777    -0.003273793874
       6        0.000020300051    -0.000005141212    -0.000000454965
       7       -0.000013921982    -0.000035773835     0.000023390611
       8        0.002713450296     0.002527664247     0.002810738747
       9       -0.000000820608    -0.000004131178    -0.000003083932
      10        0.000004589484     0.000002340094    -0.000004258908
      11        0.000000579561    -0.000029314895    -0.000005839447
      12       -0.002278796396    -0.002923070549    -0.001521223556
      13        0.000007962781     0.000004593933     0.000018037829
      14        0.000006146828     0.000069730561     0.000006888776
      15       -0.000031515709    -0.000022559371    -0.000016871181
      16        0.000008914406     0.000009189690     0.000008199584
      17        0.000005387715     0.000001401943     0.000001662771
      18       -0.000030735971     0.000008447787     0.000005338980
      19        0.000029138164    -0.000032817469    -0.000022242021
      20       -0.000001270068    -0.000007107553     0.000002386336
      21       -0.000001036053     0.000001574783     0.000000702301
      22       -0.000000938823     0.000003072432     0.000001189480

  **** Optimization is complete! (in 12 steps) ****
    Final optimized geometry and variables:
    Molecular point group: c1

    Geometry (in Angstrom), charge = 0, multiplicity = 1:

    O           -2.107013235941     0.042068288329     1.696929434869
    C           -1.510711171317     0.749081059501     0.942739572756
    C           -0.159048158445     0.332674528537     0.386663886672
    C           -2.072900234880     2.077767804554     0.488176523316
    C           -0.357875209829    -0.658865163889    -0.774310812628
    H            0.389271412414    -0.136895644621     1.193381239450
    H            0.392099317497     1.207518598262     0.060584271787
    C            0.905132835429    -1.322380611820    -1.391238107686
    H           -1.004272941752    -1.442945021744    -0.395221673434
    H           -0.916076234997    -0.168547699607    -1.567189927798
    C            2.230519044570    -1.292298375441    -0.614021982874
    H            1.068025933203    -0.928138080180    -2.391225460951
    H            0.650663119098    -2.366060320405    -1.552219849609
    C            3.045337875766    -0.004504507372    -0.757028640037
    H            2.840757379174    -2.111764652737    -0.984429263980
    H            2.057098954690    -1.508967374095     0.436278898934
    H            3.262803409845     0.197280991510    -1.802194248413
    H            3.993457454309    -0.092320324027    -0.235227854621
    H            2.533282161562     0.861586017056    -0.355348146898
    H           -1.461016705359     2.885960905258     0.880169191027
    H           -3.087380301367     2.191347779692     0.844096135787
    H           -2.050504928521     2.155550597793    -0.594883463443

  Mulliken Charges: (a.u.)
   Center  Symbol    Alpha    Beta     Spin     Total
       1     O     4.26227  4.26227  0.00000 -0.52454
       2     C     2.73729  2.73729  0.00000  0.52543
       3     C     3.20252  3.20252  0.00000 -0.40504
       4     C     3.28939  3.28939  0.00000 -0.57878
       5     C     3.16684  3.16684  0.00000 -0.33367
       6     H     0.39976  0.39976  0.00000  0.20049
       7     H     0.41591  0.41591  0.00000  0.16818
       8     C     3.15722  3.15722  0.00000 -0.31444
       9     H     0.40420  0.40420  0.00000  0.19160
      10     H     0.41829  0.41829  0.00000  0.16342
      11     C     3.15805  3.15805  0.00000 -0.31609
      12     H     0.42045  0.42045  0.00000  0.15911
      13     H     0.41590  0.41590  0.00000  0.16820
      14     C     3.24071  3.24071  0.00000 -0.48141
      15     H     0.41808  0.41808  0.00000  0.16385
      16     H     0.41903  0.41903  0.00000  0.16194
      17     H     0.42132  0.42132  0.00000  0.15736
      18     H     0.41826  0.41826  0.00000  0.16348
      19     H     0.42097  0.42097  0.00000  0.15806
      20     H     0.40682  0.40682  0.00000  0.18635
      21     H     0.39704  0.39704  0.00000  0.20592
      22     H     0.40971  0.40971  0.00000  0.18058

   Total alpha = 32.00000, Total beta = 32.00000, Total charge = -0.00000
