  ==> Input File <==

--------------------------------------------------------------------------
set {
	reference rhf
	basis cc-pvtz
}

set_num_threads( 4 )
memory 2 gb

molecule MOL {
0 1

H	 -1.974766	 0.482924	 2.283599
O	 -1.574520	 1.314763	 2.108248
C	 -0.815951	 1.248900	 0.933355
C	 0.468726	 0.472382	 1.144110
H	 -1.379640	 0.805246	 0.118766
H	 -0.579962	 2.265412	 0.652833
O	 1.172093	 0.457955	 -0.054438
H	 0.240106	 -0.545049	 1.465766
H	 1.051357	 0.941187	 1.934260
C	 2.395478	 -0.199028	 -0.000366
H	 2.505946	 -0.901710	 -0.823354
H	 3.174616	 0.545641	 -0.071768
H	 2.513730	 -0.742241	 0.934223

	symmetry c1
}
set optking {
	frozen_dihedral = ("
		4 7 10 13
	")
}

ee = optimize('scf')
oeprop('DIPOLE', 'QUADRUPOLE', 'MULLIKEN_CHARGES')
f=open( 'psi4out.xyz', 'w' )
f.write( "13  " )
f.write( str(ee) + "\n" )
f.write( MOL.save_string_xyz() )
f.close()
--------------------------------------------------------------------------

    Molecular point group: c1
  Charge       = 0
  Multiplicity = 1
  Basis Set: CC-PVTZ
  Basis Set:
  @DF-RHF Final Energy:  -268.05835569806186
    Total Energy =                       -268.0583556980619164
    Molecular point group: c1
  Basis Set: CC-PVTZ
  Basis Set:
  Basis Set: CC-PVTZ
  Basis Set:
  @DF-RHF Final Energy:  -268.05882355456970
    Total Energy =                       -268.0588235545698126
  Basis Set: CC-PVTZ
  Basis Set:
  Basis Set: CC-PVTZ
  Basis Set:
  @DF-RHF Final Energy:  -268.05893008703606
    Total Energy =                       -268.0589300870360603
  Basis Set: CC-PVTZ
  Basis Set:
  Charge       = 0
  Multiplicity = 1
  Basis Set: CC-PVTZ
  Basis Set:

    Orbital Energies (a.u.)
    -----------------------

    Doubly Occupied:

       1A    -20.552639     2A    -20.552531     3A    -11.269704
       4A    -11.267376     5A    -11.266922     6A     -1.387813
       7A     -1.368397     8A     -1.019385     9A     -0.914228
      10A     -0.842492    11A     -0.711051    12A     -0.673693
      13A     -0.661044    14A     -0.637970    15A     -0.598370
      16A     -0.569278    17A     -0.551111    18A     -0.490810
      19A     -0.483511    20A     -0.441144    21A     -0.419281

  @DF-RHF Final Energy:  -268.05893093427454

   => Energetics <=

    Nuclear Repulsion Energy =            190.1873393270156498
    One-Electron Energy =                -743.1350418324253724
    Two-Electron Energy =                 284.8887715711351234
    DFT Exchange-Correlation Energy =       0.0000000000000000
    Empirical Dispersion Energy =           0.0000000000000000
    PCM Polarization Energy =               0.0000000000000000
    EFP Energy =                            0.0000000000000000
    Total Energy =                       -268.0589309342746560
    Molecular point group: c1
  Basis Set: CC-PVTZ
  Basis Set:

  -Total Gradient:
     Atom            X                  Y                   Z
    ------   -----------------  -----------------  -----------------
       1        0.000004808199     0.000005448676    -0.000005473183
       2       -0.000033124744     0.000032748453     0.000042288372
       3       -0.000000910429    -0.000028281869     0.000012378864
       4       -0.000553188566    -0.001016431949    -0.000274246895
       5        0.000026869295     0.000006408118    -0.000006066348
       6       -0.000016239774     0.000005742738     0.000002330258
       7        0.001016030425     0.001643263326     0.000563017712
       8       -0.000003717015     0.000010207363     0.000016708402
       9        0.000007878439    -0.000005101842    -0.000049606888
      10       -0.000950135576    -0.001757937330    -0.000878444461
      11       -0.000036715301    -0.000008231834     0.000000877263
      12        0.000015260511    -0.000005055313    -0.000006297212
      13        0.000523184530     0.001117221462     0.000582534121

  **** Optimization is complete! (in 4 steps) ****
    Final optimized geometry and variables:
    Molecular point group: c1

    Geometry (in Angstrom), charge = 0, multiplicity = 1:

    H           -2.302788118007    -0.164576137614     1.424068108922
    O           -1.900999983818     0.666758633625     1.249902561537
    C           -1.129730284181     0.596316831860     0.083318166810
    C            0.153094617623    -0.178074710041     0.311496522258
    H           -1.683924900432     0.148295398955    -0.735380518587
    H           -0.891801809816     1.611738127115    -0.199491222548
    O            0.864860912684    -0.196773779779    -0.883174509000
    H           -0.079631080941    -1.192982594776     0.635919971563
    H            0.724694766438     0.297052242546     1.105407557574
    C            2.099458957734    -0.846459115867    -0.855584215750
    H            2.158797509727    -1.537843084647    -1.686518373601
    H            2.904382673708    -0.124678109252    -0.945620266242
    H            2.245285355729    -1.397300144902     0.067678238041

  Mulliken Charges: (a.u.)
   Center  Symbol    Alpha    Beta     Spin     Total
       1     H     0.39416  0.39416  0.00000  0.21167
       2     O     4.20212  4.20212  0.00000 -0.40424
       3     C     2.97528  2.97528  0.00000  0.04945
       4     C     2.96482  2.96482  0.00000  0.07036
       5     H     0.46715  0.46715  0.00000  0.06570
       6     H     0.45278  0.45278  0.00000  0.09444
       7     O     4.18021  4.18021  0.00000 -0.36042
       8     H     0.48137  0.48137  0.00000  0.03726
       9     H     0.46983  0.46983  0.00000  0.06035
      10     C     3.02730  3.02730  0.00000 -0.05461
      11     H     0.45462  0.45462  0.00000  0.09077
      12     H     0.45872  0.45872  0.00000  0.08257
      13     H     0.47165  0.47165  0.00000  0.05670

   Total alpha = 21.00000, Total beta = 21.00000, Total charge =  0.00000
