                              Psi4 1.0.54 Driver

  ==> Input File <==

--------------------------------------------------------------------------
set {
	reference rhf
	basis cc-pvtz
}

set_num_threads( 4 )
memory 2 gb

molecule MOL {
0 1

O	 -2.817697	 1.304178	 0.001046
C	 -2.664672	 0.129869	 0.003507
C	 -3.797908	 -0.860100	 -0.001145
O	 -1.481217	 -0.452708	 0.001092
H	 -4.408836	 -0.679689	 -0.875387
H	 -3.443486	 -1.878443	 -0.002770
H	 -4.412123	 -0.683688	 0.871605
C	 -0.332055	 0.384012	 -0.000250
C	 0.892252	 -0.506059	 -0.000295
H	 -0.360822	 1.020205	 -0.874146
H	 -0.359817	 1.021310	 0.872861
C	 1.619353	 -0.483052	 1.341031
H	 1.562091	 -0.182983	 -0.790616
H	 0.590035	 -1.520207	 -0.240782
C	 2.857967	 -1.374339	 1.364873
H	 1.909206	 0.537435	 1.578873
H	 0.938256	 -0.797219	 2.128038
C	 3.584177	 -1.352552	 2.705452
H	 3.540141	 -1.060254	 0.579987
H	 2.569536	 -2.394410	 1.127493
H	 3.915734	 -0.350179	 2.954780
H	 4.457089	 -1.994624	 2.688887
H	 2.937492	 -1.694369	 3.506583

	symmetry c1
}
set optking {
	frozen_dihedral = ("
		13 9 8 10
	")
}

ee,wfn = optimize('scf', return_wfn=True)
oeprop( wfn, 'DIPOLE', 'QUADRUPOLE', 'MULLIKEN_CHARGES')
f=open( 'psi4out.xyz', 'w' )
f.write( "23  " )
f.write( str(ee) + "\n" )
f.write( MOL.save_string_xyz() )
f.close()
--------------------------------------------------------------------------

    Molecular point group: c1
  Charge       = 0
  Multiplicity = 1
  Basis Set: CC-PVTZ
  Basis Set:
  @DF-RHF Final Energy:  -423.12926144390258
    Total Energy =                       -423.1292614439025783
    Molecular point group: c1
  Basis Set: CC-PVTZ
  Basis Set:
  Basis Set: CC-PVTZ
  Basis Set:
  @DF-RHF Final Energy:  -423.12954258451771
    Total Energy =                       -423.1295425845173668
  Basis Set: CC-PVTZ
  Basis Set:
  Basis Set: CC-PVTZ
  Basis Set:
  @DF-RHF Final Energy:  -423.12962514053908
    Total Energy =                       -423.1296251405391331
  Basis Set: CC-PVTZ
  Basis Set:
  Basis Set: CC-PVTZ
  Basis Set:
  @DF-RHF Final Energy:  -423.12978520340641
    Total Energy =                       -423.1297852034062998
  Basis Set: CC-PVTZ
  Basis Set:
  Basis Set: CC-PVTZ
  Basis Set:
  @DF-RHF Final Energy:  -423.12978654791925
    Total Energy =                       -423.1297865479193661
  Basis Set: CC-PVTZ
  Basis Set:
  Charge       = 0
  Multiplicity = 1
  Basis Set: CC-PVTZ
  Basis Set:

    Orbital Energies (a.u.)
    -----------------------

    Doubly Occupied:

       1A    -20.596475     2A    -20.529775     3A    -11.366501
       4A    -11.279600     5A    -11.231016     6A    -11.222154
       7A    -11.219383     8A    -11.218172     9A    -11.210307
      10A     -1.471212    11A     -1.364131    12A     -1.092725
      13A     -1.042060    14A     -1.003377    15A     -0.931784
      16A     -0.843635    17A     -0.800294    18A     -0.783148
      19A     -0.691073    20A     -0.683944    21A     -0.670232
      22A     -0.645506    23A     -0.609138    24A     -0.584592
      25A     -0.580007    26A     -0.573621    27A     -0.559728
      28A     -0.536087    29A     -0.528814    30A     -0.501791
      31A     -0.500012    32A     -0.475033    33A     -0.471123
      34A     -0.466230    35A     -0.447096    36A     -0.439573

  @DF-RHF Final Energy:  -423.12978750191240

   => Energetics <=

    Nuclear Repulsion Energy =            453.7362218405039016
    One-Electron Energy =               -1475.3933267514271392
    Two-Electron Energy =                 598.5273174090104931
    DFT Exchange-Correlation Energy =       0.0000000000000000
    Empirical Dispersion Energy =           0.0000000000000000
    PCM Polarization Energy =               0.0000000000000000
    EFP Energy =                            0.0000000000000000
    Total Energy =                       -423.1297875019126877
    Molecular point group: c1
  Basis Set: CC-PVTZ
  Basis Set:

  -Total Gradient:
     Atom            X                  Y                   Z
    ------   -----------------  -----------------  -----------------
       1       -0.000046915602     0.000093054494    -0.000011748214
       2        0.000011563404    -0.000109706882     0.000009606172
       3       -0.000012020316     0.000043934742    -0.000010997334
       4        0.000026338953     0.000009860361     0.000002442682
       5       -0.000030074423     0.000006391711    -0.000025619932
       6        0.000022831481    -0.000025500922     0.000001827484
       7       -0.000023446315    -0.000000258363     0.000030937247
       8       -0.002330809240    -0.003501928266    -0.002503454844
       9        0.002215337707     0.003204896784     0.002978009840
      10        0.001658373362     0.002372525973     0.001628049979
      11       -0.000033732516    -0.000017585606     0.000000433131
      12       -0.000036721051     0.000036395093    -0.000030488499
      13       -0.001436437320    -0.002082642690    -0.002064952405
      14        0.000003721879    -0.000014403779     0.000000005747
      15       -0.000016120866    -0.000001203401    -0.000007379311
      16       -0.000006435665    -0.000001330892    -0.000000279440
      17        0.000004130528     0.000000971975    -0.000016101588
      18        0.000025339761    -0.000011287003     0.000004539855
      19       -0.000003542662    -0.000001936823     0.000006003394
      20        0.000002522344     0.000003894660     0.000000818557
      21       -0.000002269966    -0.000001527351    -0.000001880533
      22        0.000009966827    -0.000001569202     0.000012576325
      23       -0.000001600308    -0.000001044612    -0.000002348313

  **** Optimization is complete! (in 6 steps) ****
    Final optimized geometry and variables:
    Molecular point group: c1

    Geometry (in Angstrom), charge = 0, multiplicity = 1:

    O           -2.551535733336     1.691140760716    -0.608805881162
    C           -2.406668587562     0.515854782109    -0.590075456992
    C           -3.547401074141    -0.465044098185    -0.549531698378
    O           -1.227756096112    -0.075900681958    -0.603526877342
    H           -4.175459033209    -0.298007616512    -1.414365260820
    H           -3.201045079697    -1.486193362791    -0.537241944152
    H           -4.141496121218    -0.265388535950     0.332223538589
    C           -0.072672773293     0.753494793560    -0.641178221711
    C            1.169636450478    -0.134852128592    -0.614701978076
    H           -0.107336992478     1.378283241339    -1.521360797339
    H           -0.100672761688     1.417555103900     0.211627812826
    C            1.887594783725    -0.152751514284     0.731130019527
    H            1.848658329884     0.175223702560    -1.401891357565
    H            0.864051967902    -1.141692071670    -0.875874543719
    C            3.099812068745    -1.078260421095     0.753700568318
    H            2.201753586476     0.856534913152     0.985669513092
    H            1.185952376747    -0.457944269009     1.503542922684
    C            3.818533823236    -1.090492741208     2.098622023629
    H            3.796017606786    -0.776181552435    -0.024065573914
    H            2.784356945939    -2.087542559097     0.504168380899
    H            4.177169362702    -0.100486800250     2.359852002607
    H            4.672818818890    -1.757236621301     2.080923514683
    H            3.157236722614    -1.421263637141     2.892493648644

  Mulliken Charges: (a.u.)
   Center  Symbol    Alpha    Beta     Spin     Total
       1     O     4.20238  4.20238  0.00000 -0.40476
       2     C     2.81196  2.81196  0.00000  0.37607
       3     C     3.13900  3.13900  0.00000 -0.27800
       4     O     4.14745  4.14745  0.00000 -0.29489
       5     H     0.44193  0.44193  0.00000  0.11614
       6     H     0.44230  0.44230  0.00000  0.11539
       7     H     0.44217  0.44217  0.00000  0.11567
       8     C     2.98431  2.98431  0.00000  0.03138
       9     C     3.09217  3.09217  0.00000 -0.18433
      10     H     0.44880  0.44880  0.00000  0.10241
      11     H     0.45482  0.45482  0.00000  0.09037
      12     C     3.09112  3.09112  0.00000 -0.18224
      13     H     0.44804  0.44804  0.00000  0.10392
      14     H     0.44791  0.44791  0.00000  0.10418
      15     C     3.08651  3.08651  0.00000 -0.17301
      16     H     0.45338  0.45338  0.00000  0.09325
      17     H     0.45140  0.45140  0.00000  0.09720
      18     C     3.14959  3.14959  0.00000 -0.29918
      19     H     0.45421  0.45421  0.00000  0.09157
      20     H     0.45334  0.45334  0.00000  0.09332
      21     H     0.45469  0.45469  0.00000  0.09062
      22     H     0.44789  0.44789  0.00000  0.10423
      23     H     0.45464  0.45464  0.00000  0.09072

   Total alpha = 36.00000, Total beta = 36.00000, Total charge =  0.00000

*** Psi4 exiting successfully. Buy a developer a beer!
