  ==> Input File <==

--------------------------------------------------------------------------
set {
	reference rhf
	basis 6-31G*
}

set_num_threads( 1 )
memory 2 gb

molecule MOL {
0 1

H	 -0.000158	 1.970498	 0.756846
O	 -0.000074	 1.880206	 -0.189275
C	 -0.000015	 0.544847	 -0.545111
C	 -1.278788	 -0.123820	 -0.051541
C	 1.278802	 -0.123718	 -0.051505
H	 -0.000001	 0.490777	 -1.623619
F	 -2.316438	 0.624144	 -0.360373
F	 -1.459246	 -1.312282	 -0.587593
F	 -1.258905	 -0.263335	 1.264414
F	 2.323327	 0.466644	 -0.591854
F	 1.326242	 -1.401483	 -0.363667
F	 1.388946	 -0.015632	 1.262939

	symmetry c1
}
set optking {
	frozen_dihedral = ("
		6 3 2 1
	")
}

ee = energy('scf')
oeprop('DIPOLE', 'QUADRUPOLE', 'MULLIKEN_CHARGES')
f=open( 'psi4out.xyz', 'w' )
f.write( "12  " )
f.write( str(ee) + "\n" )
f.write( MOL.save_string_xyz() )
f.close()
--------------------------------------------------------------------------

    Molecular point group: c1

    Geometry (in Angstrom), charge = 0, multiplicity = 1:

       Center              X                  Y                   Z               Mass
    ------------   -----------------  -----------------  -----------------  -----------------
           H         -0.000593901394     1.970568964040     0.755812786798     1.007825032070
           O         -0.000509901394     1.880276964040    -0.190308213202    15.994914619560
           C         -0.000450901394     0.544917964040    -0.546144213202    12.000000000000
           C         -1.279223901394    -0.123749035960    -0.052574213202    12.000000000000
           C          1.278366098606    -0.123647035960    -0.052538213202    12.000000000000
           H         -0.000436901394     0.490847964040    -1.624652213202     1.007825032070
           F         -2.316873901394     0.624214964040    -0.361406213202    18.998403224000
           F         -1.459681901394    -1.312211035960    -0.588626213202    18.998403224000
           F         -1.259340901394    -0.263264035960     1.263380786798    18.998403224000
           F          2.322891098606     0.466714964040    -0.592887213202    18.998403224000
           F          1.325806098606    -1.401412035960    -0.364700213202    18.998403224000
           F          1.388510098606    -0.015561035960     1.261905786798    18.998403224000

  Charge       = 0
  Multiplicity = 1
  Basis Set: 6-31G*
  Basis Set:

    Orbital Energies (a.u.)
    -----------------------

    Doubly Occupied:

       1A    -26.363126     2A    -26.361933     3A    -26.361678
       4A    -26.361646     5A    -26.358273     6A    -26.357661
       7A    -20.617000     8A    -11.526232     9A    -11.525420
      10A    -11.349146    11A     -1.764572    12A     -1.758601
      13A     -1.661748    14A     -1.657952    15A     -1.656839
      16A     -1.654777    17A     -1.435524    18A     -1.101793
      19A     -0.996832    20A     -0.938262    21A     -0.863914
      22A     -0.862462    23A     -0.852006    24A     -0.844437
      25A     -0.831886    26A     -0.814911    27A     -0.742845
      28A     -0.726892    29A     -0.724788    30A     -0.717806
      31A     -0.689122    32A     -0.685952    33A     -0.682966
      34A     -0.675146    35A     -0.669488    36A     -0.662392
      37A     -0.656912    38A     -0.653871    39A     -0.618681
      40A     -0.550662    41A     -0.506632

  @DF-RHF Final Energy:  -786.27705251431007

   => Energetics <=

    Nuclear Repulsion Energy =            670.5986780844323221
    One-Electron Energy =               -2428.0660216420146753
    Two-Electron Energy =                 971.1902910432739873
    DFT Exchange-Correlation Energy =       0.0000000000000000
    Empirical Dispersion Energy =           0.0000000000000000
    PCM Polarization Energy =               0.0000000000000000
    EFP Energy =                            0.0000000000000000
    Total Energy =                       -786.2770525143083660

  Mulliken Charges: (a.u.)
   Center  Symbol    Alpha    Beta     Spin     Total
       1     H     0.26669  0.26669  0.00000  0.46663
       2     O     4.36126  4.36126  0.00000 -0.72252
       3     C     3.04486  3.04486  0.00000 -0.08973
       4     C     2.44890  2.44890  0.00000  1.10220
       5     C     2.44575  2.44575  0.00000  1.10849
       6     H     0.37549  0.37549  0.00000  0.24901
       7     F     4.67397  4.67397  0.00000 -0.34795
       8     F     4.67397  4.67397  0.00000 -0.34793
       9     F     4.67998  4.67998  0.00000 -0.35997
      10     F     4.67476  4.67476  0.00000 -0.34953
      11     F     4.67392  4.67392  0.00000 -0.34784
      12     F     4.68043  4.68043  0.00000 -0.36086

   Total alpha = 41.00000, Total beta = 41.00000, Total charge = -0.00000
