  ==> Input File <==

--------------------------------------------------------------------------
set {
	reference rhf
	basis cc-pvtz
}

set_num_threads( 4 )
memory 2 gb

molecule MOL {
0 1

O	 -0.107439	 0.851462	 1.403520
C	 -0.348997	 -0.103208	 0.747673
C	 -1.693556	 -0.765722	 0.653388
O	 0.550743	 -0.719877	 0.000412
H	 -2.026348	 -0.766543	 -0.376493
H	 -2.400577	 -0.237902	 1.272307
H	 -1.613389	 -1.796437	 0.973754
C	 1.863204	 -0.194033	 0.000410
H	 2.031502	 0.409177	 -0.879273
H	 2.524488	 -1.045142	 0.000793
H	 2.031291	 0.409823	 0.879686

	symmetry c1
}
set optking {
	frozen_dihedral = ("
		2 4 8 9
	")
}

ee = optimize('scf')
oeprop('DIPOLE', 'QUADRUPOLE', 'MULLIKEN_CHARGES')
f=open( 'psi4out.xyz', 'w' )
f.write( "11  " )
f.write( str(ee) + "\n" )
f.write( MOL.save_string_xyz() )
f.close()
--------------------------------------------------------------------------

    Molecular point group: c1
  Charge       = 0
  Multiplicity = 1
  Basis Set: CC-PVTZ
  Basis Set:
  @DF-RHF Final Energy:  -266.93721849710477
    Total Energy =                       -266.9372184971047091
    Molecular point group: c1
  Basis Set: CC-PVTZ
  Basis Set:
  Basis Set: CC-PVTZ
  Basis Set:
  @DF-RHF Final Energy:  -266.93741832879044
    Total Energy =                       -266.9374183287902724
  Basis Set: CC-PVTZ
  Basis Set:
  Basis Set: CC-PVTZ
  Basis Set:
  @DF-RHF Final Energy:  -266.93760228465601
    Total Energy =                       -266.9376022846558953
  Basis Set: CC-PVTZ
  Basis Set:
  Basis Set: CC-PVTZ
  Basis Set:
  @DF-RHF Final Energy:  -266.93751497850735
    Total Energy =                       -266.9375149785074655
  Basis Set: CC-PVTZ
  Basis Set:
  Basis Set: CC-PVTZ
  Basis Set:
  @DF-RHF Final Energy:  -266.93768341583234
    Total Energy =                       -266.9376834158323959
  Basis Set: CC-PVTZ
  Basis Set:
  Charge       = 0
  Multiplicity = 1
  Basis Set: CC-PVTZ
  Basis Set:

    Orbital Energies (a.u.)
    -----------------------

    Doubly Occupied:

       1A    -20.597972     2A    -20.534695     3A    -11.369832
       4A    -11.278921     5A    -11.232748     6A     -1.472250
       7A     -1.368106     8A     -1.037005     9A     -0.954103
      10A     -0.779296    11A     -0.699151    12A     -0.682626
      13A     -0.681046    14A     -0.597539    15A     -0.592879
      16A     -0.561701    17A     -0.529959    18A     -0.521788
      19A     -0.459509    20A     -0.445866

  @DF-RHF Final Energy:  -266.93768396249936

   => Energetics <=

    Nuclear Repulsion Energy =            183.3366350024687961
    One-Electron Energy =                -727.7546533383887208
    Two-Electron Energy =                 277.4803343734206464
    DFT Exchange-Correlation Energy =       0.0000000000000000
    Empirical Dispersion Energy =           0.0000000000000000
    PCM Polarization Energy =               0.0000000000000000
    EFP Energy =                            0.0000000000000000
    Total Energy =                       -266.9376839624992499
    Molecular point group: c1
  Basis Set: CC-PVTZ
  Basis Set:

  -Total Gradient:
     Atom            X                  Y                   Z
    ------   -----------------  -----------------  -----------------
       1        0.000009213375    -0.000014065857    -0.000024770935
       2        0.000269600330    -0.000688115453     0.000930794414
       3        0.000000468269    -0.000008480556    -0.000000374268
       4       -0.000277727206     0.000786471860    -0.001522257019
       5        0.000001758247     0.000003576033     0.000000468728
       6       -0.000002108826     0.000000190338     0.000001986051
       7        0.000000269665     0.000002311135    -0.000002086394
       8       -0.000395748859     0.000982472145     0.001265174570
       9        0.000365949039    -0.001092685537    -0.000659290791
      10        0.000025914878     0.000014818437     0.000000696765
      11        0.000002411090     0.000013507455     0.000009658880

  **** Optimization is complete! (in 6 steps) ****
    Final optimized geometry and variables:
    Molecular point group: c1

    Geometry (in Angstrom), charge = 0, multiplicity = 1:

    O           -0.211876184441     1.050145862402     0.849566375322
    C           -0.426942866267     0.089615796993     0.193657262673
    C           -1.759546607547    -0.596299933694     0.091310646932
    O            0.482407713130    -0.519758255343    -0.549710094078
    H           -2.083838974432    -0.605437804357    -0.941220999691
    H           -2.480246969844    -0.078648761679     0.702997657799
    H           -1.664165287936    -1.624628188492     0.414982521448
    C            1.808842185953    -0.026991184637    -0.555898313155
    H            1.963172753892     0.571826209777    -1.442681122697
    H            2.460262412008    -0.886581299273    -0.591078849347
    H            2.007865945544     0.560214251097     0.323985909072

  Mulliken Charges: (a.u.)
   Center  Symbol    Alpha    Beta     Spin     Total
       1     O     4.19708  4.19708  0.00000 -0.39415
       2     C     2.79884  2.79884  0.00000  0.40233
       3     C     3.13930  3.13930  0.00000 -0.27860
       4     O     4.14942  4.14942  0.00000 -0.29884
       5     H     0.44537  0.44537  0.00000  0.10926
       6     H     0.43795  0.43795  0.00000  0.12410
       7     H     0.44580  0.44580  0.00000  0.10840
       8     C     3.03562  3.03562  0.00000 -0.07123
       9     H     0.45578  0.45578  0.00000  0.08845
      10     H     0.44960  0.44960  0.00000  0.10079
      11     H     0.44525  0.44525  0.00000  0.10951

   Total alpha = 20.00000, Total beta = 20.00000, Total charge = -0.00000
