  ==> Input File <==

--------------------------------------------------------------------------
set {
	reference rhf
	basis cc-pvtz
}

set_num_threads( 4 )
memory 2 gb

molecule MOL {
0 1

H	 0.085699	 1.927757	 0.541520
O	 0.057669	 1.301365	 -0.158528
C	 0.004145	 -0.005141	 0.363049
C	 1.199168	 -0.827145	 -0.096690
C	 -1.316386	 -0.602081	 -0.083515
H	 0.012026	 0.043363	 1.450619
H	 1.216685	 -0.896776	 -1.178167
H	 2.129940	 -0.372354	 0.228035
H	 1.160783	 -1.829622	 0.314294
H	 -1.357882	 -0.655920	 -1.165207
H	 -2.140147	 0.011735	 0.257253
H	 -1.440790	 -1.601175	 0.317669

	symmetry c1
}
set optking {
	frozen_dihedral = ("
		1 2 3 4
	")
}

ee = optimize('scf')
oeprop('DIPOLE', 'QUADRUPOLE', 'MULLIKEN_CHARGES')
f=open( 'psi4out.xyz', 'w' )
f.write( "12  " )
f.write( str(ee) + "\n" )
f.write( MOL.save_string_xyz() )
f.close()
--------------------------------------------------------------------------

    Molecular point group: c1
  Charge       = 0
  Multiplicity = 1
  Basis Set: CC-PVTZ
  Basis Set:
  @DF-RHF Final Energy:  -193.19355236801809
    Total Energy =                       -193.1935523680180040
    Molecular point group: c1
  Basis Set: CC-PVTZ
  Basis Set:
  Basis Set: CC-PVTZ
  Basis Set:
  @DF-RHF Final Energy:  -193.19403911110535
    Total Energy =                       -193.1940391111052122
  Basis Set: CC-PVTZ
  Basis Set:
  Basis Set: CC-PVTZ
  Basis Set:
  @DF-RHF Final Energy:  -193.19413305388181
    Total Energy =                       -193.1941330538818420
  Basis Set: CC-PVTZ
  Basis Set:
  Basis Set: CC-PVTZ
  Basis Set:
  @DF-RHF Final Energy:  -193.19413431108717
    Total Energy =                       -193.1941343110872253
  Basis Set: CC-PVTZ
  Basis Set:
  Charge       = 0
  Multiplicity = 1
  Basis Set: CC-PVTZ
  Basis Set:

    Orbital Energies (a.u.)
    -----------------------

    Doubly Occupied:

       1A    -20.542674     2A    -11.274769     3A    -11.204978
       4A    -11.204895     5A     -1.362488     6A     -1.042695
       7A     -0.936189     8A     -0.799868     9A     -0.714963
      10A     -0.609282    11A     -0.599116    12A     -0.559714
      13A     -0.538436    14A     -0.525351    15A     -0.506616
      16A     -0.464930    17A     -0.432285

  @DF-RHF Final Energy:  -193.19413450519428

   => Energetics <=

    Nuclear Repulsion Energy =            135.4802736313486378
    One-Electron Energy =                -530.7103165594739949
    Two-Electron Energy =                 202.0359084229309303
    DFT Exchange-Correlation Energy =       0.0000000000000000
    Empirical Dispersion Energy =           0.0000000000000000
    PCM Polarization Energy =               0.0000000000000000
    EFP Energy =                            0.0000000000000000
    Total Energy =                       -193.1941345051944552
    Molecular point group: c1
  Basis Set: CC-PVTZ
  Basis Set:

  -Total Gradient:
     Atom            X                  Y                   Z
    ------   -----------------  -----------------  -----------------
       1        0.000134825088    -0.000008627952     0.000004714195
       2       -0.000156015182    -0.000009378883     0.000017801044
       3       -0.000023745527     0.000015406600    -0.000088578403
       4        0.000027835608     0.000005321982     0.000076450301
       5        0.000010175355    -0.000005849858    -0.000006210271
       6        0.000000018461    -0.000010765045     0.000004873836
       7       -0.000002607503    -0.000001753952    -0.000010882408
       8       -0.000007744013     0.000007530347     0.000005161500
       9        0.000001142427     0.000005336330    -0.000006566996
      10        0.000000998783     0.000005745441    -0.000001352907
      11        0.000013545802    -0.000001078143    -0.000001259449
      12        0.000001570699    -0.000001886863     0.000005849557

  **** Optimization is complete! (in 5 steps) ****
    Final optimized geometry and variables:
    Molecular point group: c1

    Geometry (in Angstrom), charge = 0, multiplicity = 1:

    H            0.138558072373     1.935309090345     0.511296077249
    O            0.105664635276     1.297802336029    -0.175353513591
    C            0.001121873070    -0.006325759531     0.358124767248
    C            1.199916197405    -0.820877884863    -0.098378027092
    C           -1.317410653427    -0.618265061435    -0.085228270327
    H            0.011512411326     0.047757346242     1.443730284620
    H            1.228693235484    -0.866450329946    -1.180966272121
    H            2.120923401413    -0.365019262743     0.243750252571
    H            1.152520701636    -1.833189737108     0.287438056066
    H           -1.363413222658    -0.659859087839    -1.167343902952
    H           -2.150241215632    -0.020154754657     0.264020856200
    H           -1.429899416014    -1.624509881086     0.303100637576

  Mulliken Charges: (a.u.)
   Center  Symbol    Alpha    Beta     Spin     Total
       1     H     0.39023  0.39023  0.00000  0.21954
       2     O     4.21209  4.21209  0.00000 -0.42418
       3     C     2.92616  2.92616  0.00000  0.14767
       4     C     3.13670  3.13670  0.00000 -0.27341
       5     C     3.13667  3.13667  0.00000 -0.27334
       6     H     0.46787  0.46787  0.00000  0.06426
       7     H     0.45248  0.45248  0.00000  0.09504
       8     H     0.45272  0.45272  0.00000  0.09456
       9     H     0.45974  0.45974  0.00000  0.08052
      10     H     0.45251  0.45251  0.00000  0.09499
      11     H     0.45310  0.45310  0.00000  0.09379
      12     H     0.45972  0.45972  0.00000  0.08057

   Total alpha = 17.00000, Total beta = 17.00000, Total charge =  0.00000
