  ==> Input File <==

--------------------------------------------------------------------------
set {
	reference rhf
	basis 6-31G*
}

set_num_threads( 4 )
memory 2 gb

molecule MOL {
0 1

O	 3.225979	 0.970355	 -0.599647
C	 2.701189	 0.057885	 -0.047330
C	 1.245376	 -0.013843	 0.345420
O	 3.347903	 -1.046386	 0.304773
C	 0.455112	 1.231400	 -0.050772
H	 0.838542	 -0.913825	 -0.103701
H	 1.208210	 -0.175333	 1.419774
C	 -0.998893	 1.219485	 0.433193
H	 0.482531	 1.345121	 -1.130325
H	 0.957290	 2.103070	 0.354729
C	 -1.883438	 0.145884	 -0.207175
H	 -1.431207	 2.195402	 0.224832
H	 -1.019646	 1.105716	 1.516076
C	 -3.347647	 0.245583	 0.225435
H	 -1.822183	 0.231698	 -1.291012
H	 -1.510341	 -0.844814	 0.042401
C	 -4.239992	 -0.825570	 -0.404234
H	 -3.732888	 1.230466	 -0.033079
H	 -3.408585	 0.170602	 1.310038
C	 -4.494831	 -0.591433	 -1.892837
H	 -3.781518	 -1.802503	 -0.266225
H	 -5.190948	 -0.858005	 0.123414
H	 -5.130064	 -1.366564	 -2.310279
H	 -3.564662	 -0.588391	 -2.454061
H	 -4.984386	 0.363664	 -2.061358
C	 4.728119	 -1.109107	 -0.004993
H	 4.882018	 -1.033965	 -1.071845
H	 5.068212	 -2.067527	 0.355250
H	 5.265056	 -0.311663	 0.488280

	symmetry c1
}
set optking {
	frozen_dihedral = ("
		21 17 14 11
	")
}

ee = optimize('scf')
oeprop('DIPOLE', 'QUADRUPOLE', 'MULLIKEN_CHARGES')
f=open( 'psi4out.xyz', 'w' )
f.write( "29  " )
f.write( str(ee) + "\n" )
f.write( MOL.save_string_xyz() )
f.close()
--------------------------------------------------------------------------

    Molecular point group: c1
  Charge       = 0
  Multiplicity = 1
  Basis Set: 6-31G*
  Basis Set:
  @DF-RHF Final Energy:  -501.04208297225205
    Total Energy =                       -501.0420829722526150
    Molecular point group: c1
  Basis Set: 6-31G*
  Basis Set:
  Basis Set: 6-31G*
  Basis Set:
  @DF-RHF Final Energy:  -501.04228291373875
    Total Energy =                       -501.0422829137385179
  Basis Set: 6-31G*
  Basis Set:
  Basis Set: 6-31G*
  Basis Set:
  @DF-RHF Final Energy:  -501.04236318029052
    Total Energy =                       -501.0423631802900672
  Basis Set: 6-31G*
  Basis Set:
  Basis Set: 6-31G*
  Basis Set:
  @DF-RHF Final Energy:  -501.04235124399963
    Total Energy =                       -501.0423512439995193
  Basis Set: 6-31G*
  Basis Set:
  @DF-RHF Final Energy:  -501.04236901239108
    Total Energy =                       -501.0423690123909637
  @DF-RHF Final Energy:  -501.04237119290610
    Total Energy =                       -501.0423711929056481
  @DF-RHF Final Energy:  -501.04236818487141
    Total Energy =                       -501.0423681848712931
  Basis Set: 6-31G*
  Basis Set:
  @DF-RHF Final Energy:  -501.04233385543057
    Total Energy =                       -501.0423338554312522
  Basis Set: 6-31G*
  Basis Set:
  Basis Set: 6-31G*
  Basis Set:
  @DF-RHF Final Energy:  -501.04237197907889
    Total Energy =                       -501.0423719790783252
  Basis Set: 6-31G*
  Basis Set:
  Basis Set: 6-31G*
  Basis Set:
  @DF-RHF Final Energy:  -501.04237352757843
    Total Energy =                       -501.0423735275779791
  Basis Set: 6-31G*
  Basis Set:
  Charge       = 0
  Multiplicity = 1
  Basis Set: 6-31G*
  Basis Set:

    Orbital Energies (a.u.)
    -----------------------

    Doubly Occupied:

       1A    -20.603399     2A    -20.545223     3A    -11.372033
       4A    -11.280685     5A    -11.234776     6A    -11.219110
       7A    -11.217640     8A    -11.216145     9A    -11.215726
      10A    -11.214622    11A    -11.208667    12A     -1.469095
      13A     -1.362538    14A     -1.098046    15A     -1.066263
      16A     -1.018212    17A     -0.975930    18A     -0.928231
      19A     -0.868798    20A     -0.802432    21A     -0.781600
      22A     -0.763942    23A     -0.700485    24A     -0.682392
      25A     -0.672119    26A     -0.644050    27A     -0.626547
      28A     -0.610351    29A     -0.600968    30A     -0.583340
      31A     -0.559427    32A     -0.554710    33A     -0.537138
      34A     -0.525419    35A     -0.516606    36A     -0.506053
      37A     -0.502187    38A     -0.476578    39A     -0.473012
      40A     -0.459918    41A     -0.456735    42A     -0.453111
      43A     -0.441735    44A     -0.435660

  @DF-RHF Final Energy:  -501.04237369502698

   => Energetics <=

    Nuclear Repulsion Energy =            615.3093498824196104
    One-Electron Energy =               -1901.7401379675482076
    Two-Electron Energy =                 785.3884143901022981
    DFT Exchange-Correlation Energy =       0.0000000000000000
    Empirical Dispersion Energy =           0.0000000000000000
    PCM Polarization Energy =               0.0000000000000000
    EFP Energy =                            0.0000000000000000
    Total Energy =                       -501.0423736950262992
    Molecular point group: c1
  Basis Set: 6-31G*
  Basis Set:

  -Total Gradient:
     Atom            X                  Y                   Z
    ------   -----------------  -----------------  -----------------
       1       -0.000001104626    -0.000002998232    -0.000000270233
       2        0.000002847723    -0.000001730522     0.000000715589
       3        0.000000140515     0.000000276365    -0.000006555968
       4       -0.000000565943     0.000000752684    -0.000001970666
       5        0.000008587050     0.000005343866     0.000001698886
       6        0.000003465476    -0.000000836576     0.000001619778
       7       -0.000000290249     0.000001338967     0.000000960582
       8       -0.000012125900    -0.000002454633     0.000020873623
       9        0.000005101775     0.000005523976    -0.000002421013
      10        0.000004717338    -0.000006584797    -0.000001218968
      11        0.000124438428    -0.000537772878     0.000689419317
      12       -0.000012949297    -0.000017751680    -0.000005105076
      13        0.000002230190     0.000007069598     0.000004962003
      14       -0.000127353272     0.000767486970    -0.001247984386
      15       -0.000003671964    -0.000004826688    -0.000016818867
      16       -0.000011783768    -0.000000715278    -0.000007945649
      17       -0.000551953362    -0.000385283980     0.001583844834
      18        0.000007920185     0.000000172730    -0.000024716381
      19       -0.000018816050     0.000009190446     0.000020112722
      20       -0.000041887864     0.000080095440     0.000045199998
      21        0.000597423173     0.000097328663    -0.001053462947
      22        0.000006868414     0.000008891325    -0.000009215443
      23       -0.000012052494    -0.000012507851     0.000001292577
      24        0.000026382811    -0.000012433385     0.000027899210
      25        0.000003941699     0.000002786274    -0.000020899271
      26        0.000000092540    -0.000000531343    -0.000000600323
      27       -0.000000059434     0.000000095833     0.000000243484
      28        0.000000328582     0.000000047475     0.000000244148
      29        0.000000128327     0.000000027233     0.000000098441

  **** Optimization is complete! (in 11 steps) ****
    Final optimized geometry and variables:
    Molecular point group: c1

    Geometry (in Angstrom), charge = 0, multiplicity = 1:

    O            3.125411676304     0.972018160925    -0.381689655131
    C            2.594204981734     0.048597502757     0.145733941400
    C            1.134859232868    -0.028957023130     0.523983240172
    O            3.235861218791    -1.064423552384     0.479021392793
    C            0.350220436599     1.226218037347     0.148465438316
    H            0.730461046023    -0.918044752066     0.051565642020
    H            1.087884215076    -0.214050537855     1.594138698151
    C           -1.108113138670     1.205995215541     0.618920337225
    H            0.387782148861     1.363979174112    -0.927984623005
    H            0.850059123195     2.087736259923     0.577844364513
    C           -1.988085191332     0.146445997758    -0.051201942321
    H           -1.537711408246     2.186335323454     0.426270373007
    H           -1.138787697039     1.070627599396     1.699087572925
    C           -3.454350175420     0.242487601480     0.380322830622
    H           -1.908590719141     0.254388208201    -1.130601529126
    H           -1.621048806443    -0.849719865520     0.185617021233
    C           -4.365632239077    -0.832318364797    -0.224789197110
    H           -3.844023878535     1.227766485213     0.130303817755
    H           -3.498638093758     0.166064919181     1.464996000152
    C           -4.660943544386    -0.636958856740    -1.713501336703
    H           -3.914026983595    -1.811221644610    -0.077278651046
    H           -5.306577732213    -0.841847478766     0.319118618308
    H           -5.339248517422    -1.402820902053    -2.077162556268
    H           -3.759569356796    -0.688517382823    -2.315592587984
    H           -5.125387217525     0.328377761006    -1.895324421437
    C            4.618662767445    -1.122958767806     0.180125981344
    H            4.782135962612    -1.024640668385    -0.883417076085
    H            4.953876795500    -2.089726674468     0.522155968418
    H            5.152574491042    -0.337603457734     0.695577439469

  Mulliken Charges: (a.u.)
   Center  Symbol    Alpha    Beta     Spin     Total
       1     O     4.28595  4.28595  0.00000 -0.57191
       2     C     2.60484  2.60484  0.00000  0.79032
       3     C     3.20967  3.20967  0.00000 -0.41934
       4     O     4.30747  4.30747  0.00000 -0.61494
       5     C     3.15372  3.15372  0.00000 -0.30743
       6     H     0.39888  0.39888  0.00000  0.20223
       7     H     0.40123  0.40123  0.00000  0.19755
       8     C     3.15640  3.15640  0.00000 -0.31280
       9     H     0.41315  0.41315  0.00000  0.17369
      10     H     0.40878  0.40878  0.00000  0.18244
      11     C     3.15653  3.15653  0.00000 -0.31307
      12     H     0.41814  0.41814  0.00000  0.16371
      13     H     0.42393  0.42393  0.00000  0.15213
      14     C     3.15251  3.15251  0.00000 -0.30502
      15     H     0.42101  0.42101  0.00000  0.15797
      16     H     0.42381  0.42381  0.00000  0.15238
      17     C     3.15287  3.15287  0.00000 -0.30575
      18     H     0.42327  0.42327  0.00000  0.15347
      19     H     0.42226  0.42226  0.00000  0.15549
      20     C     3.24072  3.24072  0.00000 -0.48145
      21     H     0.42360  0.42360  0.00000  0.15279
      22     H     0.42048  0.42048  0.00000  0.15903
      23     H     0.41929  0.41929  0.00000  0.16142
      24     H     0.42052  0.42052  0.00000  0.15895
      25     H     0.42182  0.42182  0.00000  0.15637
      26     C     3.09241  3.09241  0.00000 -0.18482
      27     H     0.40908  0.40908  0.00000  0.18183
      28     H     0.40851  0.40851  0.00000  0.18298
      29     H     0.40912  0.40912  0.00000  0.18177

   Total alpha = 44.00000, Total beta = 44.00000, Total charge = -0.00000
