                              Psi4 1.0.54 Driver

  ==> Input File <==

--------------------------------------------------------------------------
set {
	reference rhf
	basis cc-pvtz
}

set_num_threads( 4 )
memory 2 gb

molecule MOL {
0 1

O	 -2.081319	 -0.951530	 -0.502732
N	 -1.613558	 0.006676	 0.014756
C	 -0.329345	 -0.171618	 0.743966
O	 -2.068523	 1.100482	 -0.024385
C	 0.835904	 0.041968	 -0.213982
H	 -0.346048	 -1.174374	 1.137184
H	 -0.333613	 0.555559	 1.538590
C	 0.475352	 -0.389205	 -1.633228
H	 1.112287	 1.089855	 -0.203831
H	 1.690144	 -0.523797	 0.139459
C	 1.627930	 -0.192428	 -2.611657
H	 -0.388038	 0.174886	 -1.973515
H	 0.179394	 -1.434096	 -1.628818
H	 1.923761	 0.849491	 -2.662499
H	 2.496155	 -0.769714	 -2.313927
H	 1.346695	 -0.506624	 -3.609329

	symmetry c1
}
set optking {
	frozen_dihedral = ("
		9 5 3 2
	")
}

ee,wfn = optimize('scf', return_wfn=True)
oeprop( wfn, 'DIPOLE', 'QUADRUPOLE', 'MULLIKEN_CHARGES')
f=open( 'psi4out.xyz', 'w' )
f.write( "16  " )
f.write( str(ee) + "\n" )
f.write( MOL.save_string_xyz() )
f.close()
--------------------------------------------------------------------------

    Molecular point group: c1
  Charge       = 0
  Multiplicity = 1
  Basis Set: CC-PVTZ
  Basis Set:
  @DF-RHF Final Energy:  -360.90131640257204
    Total Energy =                       -360.9013164025722062
    Molecular point group: c1
  Basis Set: CC-PVTZ
  Basis Set:
  Basis Set: CC-PVTZ
  Basis Set:
  @DF-RHF Final Energy:  -360.90062259730041
    Total Energy =                       -360.9006225973004689
  Basis Set: CC-PVTZ
  Basis Set:
  Basis Set: CC-PVTZ
  Basis Set:
  @DF-RHF Final Energy:  -360.90295131917151
    Total Energy =                       -360.9029513191717342
  Basis Set: CC-PVTZ
  Basis Set:
  Basis Set: CC-PVTZ
  Basis Set:
  @DF-RHF Final Energy:  -360.90507602212841
    Total Energy =                       -360.9050760221283554
  Basis Set: CC-PVTZ
  Basis Set:
  @DF-RHF Final Energy:  -360.90565485228291
    Total Energy =                       -360.9056548522826802
  @DF-RHF Final Energy:  -360.90578133694260
    Total Energy =                       -360.9057813369424821
  Basis Set: CC-PVTZ
  Basis Set:
  @DF-RHF Final Energy:  -360.90587623238213
    Total Energy =                       -360.9058762323821838
  Basis Set: CC-PVTZ
  Basis Set:
  Basis Set: CC-PVTZ
  Basis Set:
  @DF-RHF Final Energy:  -360.90593182537339
    Total Energy =                       -360.9059318253729316
  Basis Set: CC-PVTZ
  Basis Set:
  Basis Set: CC-PVTZ
  Basis Set:
  @DF-RHF Final Energy:  -360.90595107143986
    Total Energy =                       -360.9059510714399721
  Basis Set: CC-PVTZ
  Basis Set:
  Charge       = 0
  Multiplicity = 1
  Basis Set: CC-PVTZ
  Basis Set:

    Orbital Energies (a.u.)
    -----------------------

    Doubly Occupied:

       1A    -20.592349     2A    -20.588058     3A    -15.836046
       4A    -11.296826     5A    -11.250720     6A    -11.233371
       7A    -11.221209     8A     -1.635624     9A     -1.419815
      10A     -1.133203    11A     -1.054648    12A     -0.947741
      13A     -0.857201    14A     -0.814791    15A     -0.752423
      16A     -0.738786    17A     -0.729850    18A     -0.668347
      19A     -0.617522    20A     -0.600247    21A     -0.576069
      22A     -0.541005    23A     -0.508161    24A     -0.495472
      25A     -0.493170    26A     -0.481140    27A     -0.472953
      28A     -0.453332

  @DF-RHF Final Energy:  -360.90595175288246

   => Energetics <=

    Nuclear Repulsion Energy =            321.9057147976574811
    One-Electron Energy =               -1129.6031845462557612
    Two-Electron Energy =                 446.7915179957160490
    DFT Exchange-Correlation Energy =       0.0000000000000000
    Empirical Dispersion Energy =           0.0000000000000000
    PCM Polarization Energy =               0.0000000000000000
    EFP Energy =                            0.0000000000000000
    Total Energy =                       -360.9059517528821743
    Molecular point group: c1
  Basis Set: CC-PVTZ
  Basis Set:

  -Total Gradient:
     Atom            X                  Y                   Z
    ------   -----------------  -----------------  -----------------
       1       -0.000055960013    -0.000149363370    -0.000007858591
       2       -0.000335466944    -0.003828957026    -0.001542326990
       3        0.001479377270     0.005112084121     0.002984725868
       4        0.000022981595    -0.000038940807    -0.000001059884
       5       -0.005420631460     0.000841878469    -0.005165067286
       6        0.000026579051    -0.000017901303     0.000007622000
       7       -0.000010283661    -0.000013453540     0.000006767389
       8        0.000043001180    -0.000167279133     0.000000475042
       9        0.004311774599    -0.001789134988     0.003693605641
      10       -0.000058446828    -0.000027666251     0.000005280987
      11       -0.000011877549     0.000069888122    -0.000022286914
      12       -0.000048004527     0.000010323521     0.000067237660
      13        0.000001243397    -0.000047637802    -0.000008948549
      14        0.000055131039     0.000058666362    -0.000015982690
      15        0.000009843007    -0.000032369353    -0.000002812614
      16       -0.000009260157     0.000019862979     0.000000628935

  **** Optimization is complete! (in 10 steps) ****
    Final optimized geometry and variables:
    Molecular point group: c1

    Geometry (in Angstrom), charge = 0, multiplicity = 1:

    O           -1.824877818508    -0.845201818415     0.528801321165
    N           -1.110730218773     0.064366807834     0.783100519897
    C            0.264856397232    -0.248072954171     1.260048992965
    O           -1.394582633020     1.211459826812     0.676184952417
    C            1.317758171969     0.054577555518     0.188889224575
    H            0.240927994952    -1.294574918921     1.509830009983
    H            0.414892017397     0.348729198597     2.144470892692
    C            0.915641530799    -0.254952436444    -1.250236849626
    H            1.657808013778     1.077081738859     0.294943386498
    H            2.175514456886    -0.557106180211     0.452572926882
    C            2.063317149390    -0.013417685909    -2.224741474514
    H            0.069946403719     0.359531232085    -1.535725984821
    H            0.587907525950    -1.287063046447    -1.320773177753
    H            2.394940669652     1.018679682790    -2.190918740404
    H            2.915396052950    -0.644051476153    -1.994534929004
    H            1.756844040000    -0.228987950940    -3.240831445989

  Mulliken Charges: (a.u.)
   Center  Symbol    Alpha    Beta     Spin     Total
       1     O     4.17133  4.17133  0.00000 -0.34266
       2     N     3.27876  3.27876  0.00000  0.44247
       3     C     3.04652  3.04652  0.00000 -0.09303
       4     O     4.17496  4.17496  0.00000 -0.34993
       5     C     3.09903  3.09903  0.00000 -0.19805
       6     H     0.43227  0.43227  0.00000  0.13546
       7     H     0.42815  0.42815  0.00000  0.14369
       8     C     3.09322  3.09322  0.00000 -0.18643
       9     H     0.44167  0.44167  0.00000  0.11666
      10     H     0.44791  0.44791  0.00000  0.10418
      11     C     3.15033  3.15033  0.00000 -0.30065
      12     H     0.44000  0.44000  0.00000  0.12001
      13     H     0.44421  0.44421  0.00000  0.11158
      14     H     0.45267  0.45267  0.00000  0.09466
      15     H     0.45502  0.45502  0.00000  0.08995
      16     H     0.44396  0.44396  0.00000  0.11208

   Total alpha = 28.00000, Total beta = 28.00000, Total charge = -0.00000

*** Psi4 exiting successfully. Buy a developer a beer!
