  ==> Input File <==

--------------------------------------------------------------------------
set {
	reference rhf
	basis 6-31G*
}

set_num_threads( 4 )
memory 2 gb

molecule MOL {
0 1

O	 1.675226	 -0.368710	 0.577590
C	 0.861134	 0.272526	 -0.014869
C	 -0.623889	 -0.118271	 -0.003699
C	 1.295079	 1.496672	 -0.801739
C	 -0.895332	 -1.256461	 -1.002431
C	 -1.473649	 1.103340	 -0.370799
C	 -0.983900	 -0.581483	 1.422328
H	 -0.615301	 -0.972064	 -2.012700
H	 -1.954261	 -1.493213	 -1.010207
H	 -0.360539	 -2.164946	 -0.747760
H	 -1.227476	 1.468527	 -1.361691
H	 -2.526716	 0.838935	 -0.358521
H	 -1.314819	 1.915855	 0.325860
H	 -2.039679	 -0.828001	 1.472951
H	 -0.427637	 -1.464071	 1.720694
H	 -0.789023	 0.202493	 2.147048
H	 1.071499	 2.392265	 -0.229562
H	 2.363722	 1.446878	 -0.958712
H	 0.787892	 1.583921	 -1.754823

	symmetry c1
}
set optking {
	frozen_dihedral = ("
		1 2 3 5
	")
}

ee = optimize('scf')
oeprop('DIPOLE', 'QUADRUPOLE', 'MULLIKEN_CHARGES')
f=open( 'psi4out.xyz', 'w' )
f.write( "19  " )
f.write( str(ee) + "\n" )
f.write( MOL.save_string_xyz() )
f.close()
--------------------------------------------------------------------------

    Molecular point group: c1
  Charge       = 0
  Multiplicity = 1
  Basis Set: 6-31G*
  Basis Set:
  @DF-RHF Final Energy:  -309.05947026991544
    Total Energy =                       -309.0594702699152094
    Molecular point group: c1
  Basis Set: 6-31G*
  Basis Set:
  Basis Set: 6-31G*
  Basis Set:
  @DF-RHF Final Energy:  -309.06057908501441
    Total Energy =                       -309.0605790850144672
  Basis Set: 6-31G*
  Basis Set:
  Basis Set: 6-31G*
  Basis Set:
  @DF-RHF Final Energy:  -309.06206675276678
    Total Energy =                       -309.0620667527667251
  Basis Set: 6-31G*
  Basis Set:
  Basis Set: 6-31G*
  Basis Set:
  @DF-RHF Final Energy:  -309.06162616043110
    Total Energy =                       -309.0616261604311035
  Basis Set: 6-31G*
  Basis Set:
  @DF-RHF Final Energy:  -309.06196692103265
    Total Energy =                       -309.0619669210327629
  @DF-RHF Final Energy:  -309.06241509912508
    Total Energy =                       -309.0624150991250190
  Basis Set: 6-31G*
  Basis Set:
  @DF-RHF Final Energy:  -309.06243244631753
    Total Energy =                       -309.0624324463177572
  Basis Set: 6-31G*
  Basis Set:
  Basis Set: 6-31G*
  Basis Set:
  @DF-RHF Final Energy:  -309.06242340240669
    Total Energy =                       -309.0624234024064663
  Basis Set: 6-31G*
  Basis Set:
  Basis Set: 6-31G*
  Basis Set:
  @DF-RHF Final Energy:  -309.06243581858450
    Total Energy =                       -309.0624358185842766
  Basis Set: 6-31G*
  Basis Set:
  Charge       = 0
  Multiplicity = 1
  Basis Set: 6-31G*
  Basis Set:

    Orbital Energies (a.u.)
    -----------------------

    Doubly Occupied:

       1A    -20.547709     2A    -11.323319     3A    -11.246333
       4A    -11.227398     5A    -11.222755     6A    -11.221951
       7A    -11.211001     8A     -1.394565     9A     -1.108578
      10A     -1.003143    11A     -0.944563    12A     -0.936407
      13A     -0.833979    14A     -0.703820    15A     -0.664682
      16A     -0.631380    17A     -0.621711    18A     -0.590639
      19A     -0.587805    20A     -0.569735    21A     -0.548993
      22A     -0.546103    23A     -0.524499    24A     -0.512654
      25A     -0.500021    26A     -0.471972    27A     -0.461838
      28A     -0.391872

  @DF-RHF Final Energy:  -309.06243587695042

   => Energetics <=

    Nuclear Repulsion Energy =            326.2628304951153950
    One-Electron Energy =               -1065.5516868776308002
    Two-Electron Energy =                 430.2264205055649313
    DFT Exchange-Correlation Energy =       0.0000000000000000
    Empirical Dispersion Energy =           0.0000000000000000
    PCM Polarization Energy =               0.0000000000000000
    EFP Energy =                            0.0000000000000000
    Total Energy =                       -309.0624358769504738
    Molecular point group: c1
  Basis Set: 6-31G*
  Basis Set:

  -Total Gradient:
     Atom            X                  Y                   Z
    ------   -----------------  -----------------  -----------------
       1        0.000148271324    -0.000711743377    -0.001067944613
       2       -0.000154162664     0.000830085125     0.001652078383
       3       -0.000125743563     0.000511287779    -0.001227174410
       4        0.000009654253     0.000001003058     0.000001896785
       5        0.000142203879    -0.000614517301     0.000632239496
       6       -0.000003470486    -0.000016657060    -0.000000426505
       7       -0.000013689264     0.000006151435     0.000001812162
       8       -0.000002657138    -0.000002403662    -0.000003609778
       9       -0.000002800962    -0.000001701677     0.000000350495
      10        0.000003406313     0.000010173935    -0.000000017455
      11       -0.000000045033    -0.000004402919     0.000002670028
      12       -0.000002151052     0.000000751021     0.000000017846
      13        0.000006303070    -0.000004147815    -0.000001636768
      14       -0.000008237733    -0.000004837618     0.000006261130
      15       -0.000004113010     0.000006152834    -0.000001577994
      16       -0.000001431382    -0.000003461348     0.000001234532
      17        0.000002881486    -0.000003339603     0.000002517866
      18        0.000005321438     0.000003925655    -0.000005091610
      19        0.000000460519    -0.000002318463     0.000006400409

  **** Optimization is complete! (in 10 steps) ****
    Final optimized geometry and variables:
    Molecular point group: c1

    Geometry (in Angstrom), charge = 0, multiplicity = 1:

    O            1.670109416824    -0.502601286662     0.592113583611
    C            0.885994059965     0.187739451417     0.013807833791
    C           -0.615176076235    -0.149294424050     0.050108240723
    C            1.374800587949     1.357591359814    -0.817423622223
    C           -0.834380818306    -1.270996082772    -0.984599944551
    C           -1.507985474782     1.052850528987    -0.289960419062
    C           -0.971582368929    -0.671638786615     1.449512912675
    H           -0.580186885051    -0.946678261658    -1.990188365352
    H           -1.876997371979    -1.573268893781    -0.990669104448
    H           -0.228403637539    -2.136830280903    -0.745281818181
    H           -1.333448414800     1.428567202945    -1.292282550463
    H           -2.551063961494     0.759833931791    -0.231056875174
    H           -1.360802450022     1.872209828441     0.407525532710
    H           -2.014009429579    -0.974122737753     1.479582040616
    H           -0.356940942922    -1.520322320144     1.715616799101
    H           -0.825236435996     0.096137901378     2.203365406530
    H            1.006486356816     2.296468232633    -0.417235129320
    H            2.455587213777     1.363334072748    -0.806196720736
    H            1.023688118771     1.283462080600    -1.841696220445

  Mulliken Charges: (a.u.)
   Center  Symbol    Alpha    Beta     Spin     Total
       1     O     4.26667  4.26667  0.00000 -0.53333
       2     C     2.72630  2.72630  0.00000  0.54741
       3     C     3.06351  3.06351  0.00000 -0.12703
       4     C     3.28999  3.28999  0.00000 -0.57998
       5     C     3.23960  3.23960  0.00000 -0.47920
       6     C     3.24075  3.24075  0.00000 -0.48150
       7     C     3.23239  3.23239  0.00000 -0.46478
       8     H     0.41989  0.41989  0.00000  0.16023
       9     H     0.41467  0.41467  0.00000  0.17065
      10     H     0.40487  0.40487  0.00000  0.19026
      11     H     0.41788  0.41788  0.00000  0.16424
      12     H     0.41399  0.41399  0.00000  0.17203
      13     H     0.41738  0.41738  0.00000  0.16523
      14     H     0.42141  0.42141  0.00000  0.15717
      15     H     0.40117  0.40117  0.00000  0.19766
      16     H     0.41929  0.41929  0.00000  0.16142
      17     H     0.40602  0.40602  0.00000  0.18796
      18     H     0.39557  0.39557  0.00000  0.20886
      19     H     0.40866  0.40866  0.00000  0.18269

   Total alpha = 28.00000, Total beta = 28.00000, Total charge = -0.00000
