  ==> Input File <==

--------------------------------------------------------------------------
set {
	reference rhf
	basis cc-pvtz
}

set_num_threads( 4 )
memory 2 gb

molecule MOL {
0 1

H	 1.651322	 -0.822465	 0.000000
O	 0.729993	 -1.034364	 0.000000
C	 0.037305	 0.100061	 0.000000
C	 0.912666	 1.293192	 -0.241371
O	 -1.131444	 0.127983	 0.173320
H	 1.673298	 1.344564	 0.526919
H	 0.313204	 2.188350	 -0.233414
H	 1.414239	 1.186381	 -1.194515

	symmetry c1
}
set optking {
	frozen_dihedral = ("
		4 3 2 1
	")
}

ee = optimize('scf')
oeprop('DIPOLE', 'QUADRUPOLE', 'MULLIKEN_CHARGES')
f=open( 'psi4out.xyz', 'w' )
f.write( "8  " )
f.write( str(ee) + "\n" )
f.write( MOL.save_string_xyz() )
f.close()
--------------------------------------------------------------------------

    Molecular point group: c1
  Charge       = 0
  Multiplicity = 1
  Basis Set: CC-PVTZ
  Basis Set:
  @DF-RHF Final Energy:  -227.89320318359944
    Total Energy =                       -227.8932031835994962
    Molecular point group: c1
  Basis Set: CC-PVTZ
  Basis Set:
  Basis Set: CC-PVTZ
  Basis Set:
  @DF-RHF Final Energy:  -227.89413203686291
    Total Energy =                       -227.8941320368628283
  Basis Set: CC-PVTZ
  Basis Set:
  Basis Set: CC-PVTZ
  Basis Set:
  @DF-RHF Final Energy:  -227.89285237884192
    Total Energy =                       -227.8928523788419227
  Basis Set: CC-PVTZ
  Basis Set:
  Basis Set: CC-PVTZ
  Basis Set:
  @DF-RHF Final Energy:  -227.89472456284977
    Total Energy =                       -227.8947245628496887
  Basis Set: CC-PVTZ
  Basis Set:
  Basis Set: CC-PVTZ
  Basis Set:
  @DF-RHF Final Energy:  -227.89473781498060
    Total Energy =                       -227.8947378149806866
  Basis Set: CC-PVTZ
  Basis Set:
  Basis Set: CC-PVTZ
  Basis Set:
  @DF-RHF Final Energy:  -227.89473899329994
    Total Energy =                       -227.8947389933000238
  Basis Set: CC-PVTZ
  Basis Set:
  Basis Set: CC-PVTZ
  Basis Set:
  @DF-RHF Final Energy:  -227.89474059547334
    Total Energy =                       -227.8947405954733654
  Basis Set: CC-PVTZ
  Basis Set:
  Charge       = 0
  Multiplicity = 1
  Basis Set: CC-PVTZ
  Basis Set:

    Orbital Energies (a.u.)
    -----------------------

    Doubly Occupied:

       1A    -20.607482     2A    -20.538299     3A    -11.377903
       4A    -11.250426     5A     -1.474319     6A     -1.376131
       7A     -1.027890     8A     -0.843558     9A     -0.722970
      10A     -0.672563    11A     -0.659213    12A     -0.604856
      13A     -0.573006    14A     -0.557034    15A     -0.483325
      16A     -0.449571

  @DF-RHF Final Energy:  -227.89474063866425

   => Energetics <=

    Nuclear Repulsion Energy =            122.6003009192128985
    One-Electron Energy =                -554.5529856273124096
    Two-Electron Energy =                 204.0579440694352797
    DFT Exchange-Correlation Energy =       0.0000000000000000
    Empirical Dispersion Energy =           0.0000000000000000
    PCM Polarization Energy =               0.0000000000000000
    EFP Energy =                            0.0000000000000000
    Total Energy =                       -227.8947406386642456
    Molecular point group: c1
  Basis Set: CC-PVTZ
  Basis Set:

  -Total Gradient:
     Atom            X                  Y                   Z
    ------   -----------------  -----------------  -----------------
       1       -0.000007677657     0.000027825601     0.002000355385
       2       -0.000045146724    -0.000057435889    -0.003048342813
       3        0.000176836040     0.000161803972     0.002097775166
       4       -0.000161150455    -0.000143829862    -0.001163121716
       5        0.000041364869     0.000025115217     0.000113726222
       6        0.000006525923     0.000001914637    -0.000001614480
       7       -0.000012279158    -0.000011560750     0.000002999974
       8        0.000001527162    -0.000003832929    -0.000001777739

  **** Optimization is complete! (in 8 steps) ****
    Final optimized geometry and variables:
    Molecular point group: c1

    Geometry (in Angstrom), charge = 0, multiplicity = 1:

    H            1.474768569627    -1.042111058052     0.044254489501
    O            0.541508372526    -1.161805416093     0.038679819854
    C           -0.115296467286     0.000942759999     0.022173414174
    C            0.738810040768     1.219158664625    -0.220648992662
    O           -1.282022263138     0.026215124318     0.160961747478
    H            1.515335815702     1.295402868381     0.532510565790
    H            0.121500620248     2.101285120765    -0.191738744965
    H            1.216818514733     1.140526437218    -1.190268149234

  Mulliken Charges: (a.u.)
   Center  Symbol    Alpha    Beta     Spin     Total
       1     H     0.38910  0.38910  0.00000  0.22180
       2     O     4.14313  4.14313  0.00000 -0.28627
       3     C     2.80910  2.80910  0.00000  0.38179
       4     C     3.15376  3.15376  0.00000 -0.30752
       5     O     4.17568  4.17568  0.00000 -0.35137
       6     H     0.45135  0.45135  0.00000  0.09730
       7     H     0.43311  0.43311  0.00000  0.13379
       8     H     0.44476  0.44476  0.00000  0.11048

   Total alpha = 16.00000, Total beta = 16.00000, Total charge = -0.00000
