  ==> Input File <==

--------------------------------------------------------------------------
set {
	reference rhf
	basis 6-31G*
}

set_num_threads( 1 )
memory 2 gb

molecule MOL {
0 1

O	 -2.042549	 -1.228399	 -0.269030
C	 -1.653912	 -0.146171	 0.050137
C	 -0.332303	 0.024011	 0.778412
C	 -2.438579	 1.106236	 -0.272369
C	 0.091491	 -1.286278	 1.460623
H	 0.442710	 0.350202	 0.090418
H	 -0.466724	 0.796149	 1.527850
C	 1.404763	 -1.150297	 2.232541
H	 0.193762	 -2.072957	 0.715130
H	 -0.700861	 -1.597561	 2.134731
C	 1.823997	 -2.449410	 2.919385
H	 2.191791	 -0.829450	 1.553519
H	 1.302448	 -0.364049	 2.976795
H	 1.967499	 -3.247379	 2.196401
H	 1.070403	 -2.777989	 3.629015
H	 2.755976	 -2.322592	 3.461010
H	 -3.277823	 0.863061	 -0.908988
H	 -1.806773	 1.843019	 -0.759671
H	 -2.802853	 1.554979	 0.648059

	symmetry c1
}
set optking {
	frozen_dihedral = ("
		11 8 5 9,
		9 5 3 2
	")
}

ee = energy('scf')
oeprop('DIPOLE', 'QUADRUPOLE', 'MULLIKEN_CHARGES')
f=open( 'psi4out.xyz', 'w' )
f.write( "19  " )
f.write( str(ee) + "\n" )
f.write( MOL.save_string_xyz() )
f.close()
--------------------------------------------------------------------------

    Molecular point group: c1

    Geometry (in Angstrom), charge = 0, multiplicity = 1:

       Center              X                  Y                   Z               Mass
    ------------   -----------------  -----------------  -----------------  -----------------
           O         -1.592463208061    -0.485691804320    -1.259360423775    15.994914619560
           C         -1.203826208061     0.596536195680    -0.940193423775    12.000000000000
           C          0.117782791939     0.766718195680    -0.211918423775    12.000000000000
           C         -1.988493208061     1.848943195680    -1.262699423775    12.000000000000
           C          0.541576791939    -0.543570804320     0.470292576225    12.000000000000
           H          0.892795791939     1.092909195680    -0.899912423775     1.007825032070
           H         -0.016638208061     1.538856195680     0.537519576225     1.007825032070
           C          1.854848791939    -0.407589804320     1.242210576225    12.000000000000
           H          0.643847791939    -1.330249804320    -0.275200423775     1.007825032070
           H         -0.250775208061    -0.854853804320     1.144400576225     1.007825032070
           C          2.274082791939    -1.706702804320     1.929054576225    12.000000000000
           H          2.641876791939    -0.086742804320     0.563188576225     1.007825032070
           H          1.752533791939     0.378658195680     1.986464576225     1.007825032070
           H          2.417584791939    -2.504671804320     1.206070576225     1.007825032070
           H          1.520488791939    -2.035281804320     2.638684576225     1.007825032070
           H          3.206061791939    -1.579884804320     2.470679576225     1.007825032070
           H         -2.827737208061     1.605768195680    -1.899318423775     1.007825032070
           H         -1.356687208061     2.585726195680    -1.750001423775     1.007825032070
           H         -2.352767208061     2.297686195680    -0.342271423775     1.007825032070

  Charge       = 0
  Multiplicity = 1
  Basis Set: 6-31G*
  Basis Set:

    Orbital Energies (a.u.)
    -----------------------

    Doubly Occupied:

       1A    -20.549815     2A    -11.326106     3A    -11.231205
       4A    -11.229331     5A    -11.218007     6A    -11.216779
       7A    -11.209411     8A     -1.395767     9A     -1.083873
      10A     -1.028736    11A     -0.983816    12A     -0.884940
      13A     -0.799043    14A     -0.731245    15A     -0.657639
      16A     -0.651269    17A     -0.624921    18A     -0.610887
      19A     -0.579189    20A     -0.571773    21A     -0.554540
      22A     -0.528900    23A     -0.511757    24A     -0.488956
      25A     -0.473202    26A     -0.470399    27A     -0.466501
      28A     -0.400589

  @DF-RHF Final Energy:  -309.06563212780594

   => Energetics <=

    Nuclear Repulsion Energy =            301.4584920551854452
    One-Electron Energy =               -1016.0910789218692116
    Two-Electron Energy =                 405.5669547388762339
    DFT Exchange-Correlation Energy =       0.0000000000000000
    Empirical Dispersion Energy =           0.0000000000000000
    PCM Polarization Energy =               0.0000000000000000
    EFP Energy =                            0.0000000000000000
    Total Energy =                       -309.0656321278075893

  Mulliken Charges: (a.u.)
   Center  Symbol    Alpha    Beta     Spin     Total
       1     O     4.26082  4.26082  0.00000 -0.52164
       2     C     2.73633  2.73633  0.00000  0.52735
       3     C     3.20988  3.20988  0.00000 -0.41976
       4     C     3.28679  3.28679  0.00000 -0.57359
       5     C     3.14920  3.14920  0.00000 -0.29841
       6     H     0.40394  0.40394  0.00000  0.19213
       7     H     0.41407  0.41407  0.00000  0.17186
       8     C     3.15283  3.15283  0.00000 -0.30566
       9     H     0.40763  0.40763  0.00000  0.18474
      10     H     0.41740  0.41740  0.00000  0.16519
      11     C     3.23920  3.23920  0.00000 -0.47839
      12     H     0.42404  0.42404  0.00000  0.15193
      13     H     0.42497  0.42497  0.00000  0.15006
      14     H     0.41975  0.41975  0.00000  0.16051
      15     H     0.42058  0.42058  0.00000  0.15884
      16     H     0.41941  0.41941  0.00000  0.16118
      17     H     0.39659  0.39659  0.00000  0.20682
      18     H     0.40935  0.40935  0.00000  0.18130
      19     H     0.40724  0.40724  0.00000  0.18553

   Total alpha = 28.00000, Total beta = 28.00000, Total charge = -0.00000
