  ==> Input File <==

--------------------------------------------------------------------------
set {
	reference rhf
	basis 6-31G*
}

set_num_threads( 4 )
memory 2 gb

molecule MOL {
0 1

O	 0.749854	 1.307668	 -0.000040
C	 0.576249	 0.131685	 -0.000108
C	 -0.766779	 -0.556801	 -0.000461
O	 1.568443	 -0.749345	 -0.000005
C	 -1.945214	 0.412366	 0.000161
H	 -0.796911	 -1.211249	 -0.867467
H	 -0.796854	 -1.212390	 0.865687
C	 -3.287791	 -0.317055	 0.000105
H	 -1.876087	 1.060580	 -0.866812
H	 -1.875822	 1.059691	 0.867761
H	 -3.394745	 -0.949193	 -0.877058
H	 -4.111778	 0.388953	 0.000015
H	 -3.394954	 -0.949187	 0.877259
C	 1.903349	 -1.339953	 1.242664
H	 2.211346	 -0.584825	 1.951509
H	 2.719118	 -2.015558	 1.037859
H	 1.059956	 -1.882249	 1.645298

	symmetry c1
}
set optking {
	frozen_dihedral = ("
		14 4 2 1
	")
}

ee = optimize('scf')
oeprop('DIPOLE', 'QUADRUPOLE', 'MULLIKEN_CHARGES')
f=open( 'psi4out.xyz', 'w' )
f.write( "17  " )
f.write( str(ee) + "\n" )
f.write( MOL.save_string_xyz() )
f.close()
--------------------------------------------------------------------------

    Molecular point group: c1
  Charge       = 0
  Multiplicity = 1
  Basis Set: 6-31G*
  Basis Set:
  @DF-RHF Final Energy:  -344.88378009808326
    Total Energy =                       -344.8837800980830366
    Molecular point group: c1
  Basis Set: 6-31G*
  Basis Set:
  Basis Set: 6-31G*
  Basis Set:
  @DF-RHF Final Energy:  -344.88214271837103
    Total Energy =                       -344.8821427183707442
  Basis Set: 6-31G*
  Basis Set:
  Basis Set: 6-31G*
  Basis Set:
  @DF-RHF Final Energy:  -344.88496910503090
    Total Energy =                       -344.8849691050309048
  Basis Set: 6-31G*
  Basis Set:
  Basis Set: 6-31G*
  Basis Set:
  @DF-RHF Final Energy:  -344.88588148186659
    Total Energy =                       -344.8858814818664200
  Basis Set: 6-31G*
  Basis Set:
  Basis Set: 6-31G*
  Basis Set:
  @DF-RHF Final Energy:  -344.88591350570454
    Total Energy =                       -344.8859135057044796
  Basis Set: 6-31G*
  Basis Set:
  Basis Set: 6-31G*
  Basis Set:
  @DF-RHF Final Energy:  -344.88591906085543
    Total Energy =                       -344.8859190608554854
  Basis Set: 6-31G*
  Basis Set:
  Basis Set: 6-31G*
  Basis Set:
  @DF-RHF Final Energy:  -344.88592023077223
    Total Energy =                       -344.8859202307727401
  Basis Set: 6-31G*
  Basis Set:
  Charge       = 0
  Multiplicity = 1
  Basis Set: 6-31G*
  Basis Set:

    Orbital Energies (a.u.)
    -----------------------

    Doubly Occupied:

       1A    -20.586275     2A    -20.557406     3A    -11.375604
       4A    -11.293235     5A    -11.241138     6A    -11.225376
       7A    -11.217556     8A     -1.459012     9A     -1.368156
      10A     -1.081557    11A     -0.990519    12A     -0.955303
      13A     -0.835264    14A     -0.765806    15A     -0.699593
      16A     -0.678772    17A     -0.674096    18A     -0.636374
      19A     -0.617881    20A     -0.578954    21A     -0.566546
      22A     -0.542115    23A     -0.518644    24A     -0.494571
      25A     -0.490845    26A     -0.482037    27A     -0.454636
      28A     -0.435534

  @DF-RHF Final Energy:  -344.88592044041172

   => Energetics <=

    Nuclear Repulsion Energy =            312.5213521227688034
    One-Electron Energy =               -1089.1689354072041169
    Two-Electron Energy =                 431.7616628440238173
    DFT Exchange-Correlation Energy =       0.0000000000000000
    Empirical Dispersion Energy =           0.0000000000000000
    PCM Polarization Energy =               0.0000000000000000
    EFP Energy =                            0.0000000000000000
    Total Energy =                       -344.8859204404114962
    Molecular point group: c1
  Basis Set: 6-31G*
  Basis Set:

  -Total Gradient:
     Atom            X                  Y                   Z
    ------   -----------------  -----------------  -----------------
       1       -0.000046426509    -0.000121157600    -0.001640398316
       2       -0.000426593247    -0.000250224361     0.002348506893
       3        0.000020680056    -0.000026840806    -0.000020278549
       4        0.001326310021     0.001379457298    -0.000532435741
       5        0.000002908149    -0.000003414351    -0.000001504511
       6       -0.000002125781    -0.000000126515     0.000007003673
       7        0.000007730317     0.000010407023     0.000004013939
       8       -0.000008646944     0.000004905584     0.000004466016
       9       -0.000000698189     0.000000713048    -0.000002717545
      10       -0.000001907130     0.000002325880    -0.000005120343
      11       -0.000002598359     0.000003969896    -0.000001591907
      12       -0.000005474160    -0.000002503471     0.000004386291
      13        0.000003327447    -0.000002435114    -0.000004479916
      14       -0.000877111163    -0.000986812375    -0.000180349681
      15        0.000000483268    -0.000005013081     0.000006708246
      16        0.000008014574    -0.000004055364     0.000007425228
      17        0.000002127653     0.000000804306     0.000006366224

  **** Optimization is complete! (in 8 steps) ****
    Final optimized geometry and variables:
    Molecular point group: c1

    Geometry (in Angstrom), charge = 0, multiplicity = 1:

    O            0.894179524260     1.433937496698    -0.234010051729
    C            0.707855999179     0.269189605284    -0.173040129713
    C           -0.653907625051    -0.385365811095    -0.189625377927
    O            1.739990714690    -0.607370174178    -0.171069545603
    C           -1.813777462689     0.606079290264    -0.180251082280
    H           -0.684093519763    -1.016010278893    -1.075105380982
    H           -0.721782775679    -1.066563867008     0.654867529412
    C           -3.170767595263    -0.095146842415    -0.216626166923
    H           -1.718087338524     1.273177301815    -1.029619266259
    H           -1.744096299064     1.230846757540     0.704263368913
    H           -3.278306065630    -0.702007744004    -1.111287673674
    H           -3.979958511339     0.627599023531    -0.209524976790
    H           -3.303621005512    -0.747169487470     0.642401841717
    C            2.144805855303    -1.139294333165     1.071016601444
    H            2.447339593686    -0.347103417717     1.745567129152
    H            2.989505171362    -1.779181627290     0.869149316568
    H            1.356841631890    -1.726722394495     1.529529573492

  Mulliken Charges: (a.u.)
   Center  Symbol    Alpha    Beta     Spin     Total
       1     O     4.25027  4.25027  0.00000 -0.50054
       2     C     2.61444  2.61444  0.00000  0.77112
       3     C     3.21343  3.21343  0.00000 -0.42686
       4     O     4.31490  4.31490  0.00000 -0.62980
       5     C     3.15187  3.15187  0.00000 -0.30373
       6     H     0.39807  0.39807  0.00000  0.20385
       7     H     0.40852  0.40852  0.00000  0.18295
       8     C     3.24279  3.24279  0.00000 -0.48559
       9     H     0.40790  0.40790  0.00000  0.18420
      10     H     0.41264  0.41264  0.00000  0.17473
      11     H     0.42053  0.42053  0.00000  0.15894
      12     H     0.41434  0.41434  0.00000  0.17131
      13     H     0.42231  0.42231  0.00000  0.15538
      14     C     3.09270  3.09270  0.00000 -0.18539
      15     H     0.41106  0.41106  0.00000  0.17788
      16     H     0.40170  0.40170  0.00000  0.19660
      17     H     0.42253  0.42253  0.00000  0.15495

   Total alpha = 28.00000, Total beta = 28.00000, Total charge =  0.00000
