  ==> Input File <==

--------------------------------------------------------------------------
set {
	reference rhf
	basis cc-pvtz
}

set_num_threads( 4 )
memory 2 gb

molecule MOL {
0 1

H	 -2.698799	 -0.000846	 0.036018
C	 -1.694291	 -0.000483	 0.434279
O	 -0.828718	 -0.000608	 -0.655022
H	 -1.576855	 0.881100	 1.056504
H	 -1.576401	 -0.881658	 1.057001
C	 0.557892	 0.000078	 -0.420099
C	 1.078569	 -1.364653	 0.016566
C	 1.349693	 0.574761	 -1.589304
H	 0.666678	 0.678141	 0.417167
H	 0.471404	 -1.759780	 0.821727
H	 2.097975	 -1.272182	 0.372947
H	 1.080848	 -2.081731	 -0.796070
H	 0.930612	 1.524640	 -1.897760
H	 2.378998	 0.737641	 -1.291353
H	 1.359069	 -0.090803	 -2.444569

	symmetry c1
}
set optking {
	frozen_dihedral = ("
		9 6 3 2
	")
}

ee = optimize('scf')
oeprop('DIPOLE', 'QUADRUPOLE', 'MULLIKEN_CHARGES')
f=open( 'psi4out.xyz', 'w' )
f.write( "15  " )
f.write( str(ee) + "\n" )
f.write( MOL.save_string_xyz() )
f.close()
--------------------------------------------------------------------------

    Molecular point group: c1
  Charge       = 0
  Multiplicity = 1
  Basis Set: CC-PVTZ
  Basis Set:
  @DF-RHF Final Energy:  -232.22595088036172
    Total Energy =                       -232.2259508803617223
    Molecular point group: c1
  Basis Set: CC-PVTZ
  Basis Set:
  Basis Set: CC-PVTZ
  Basis Set:
  @DF-RHF Final Energy:  -232.22933562370142
    Total Energy =                       -232.2293356237014450
  Basis Set: CC-PVTZ
  Basis Set:
  Basis Set: CC-PVTZ
  Basis Set:
  @DF-RHF Final Energy:  -232.22999519409265
    Total Energy =                       -232.2299951940926803
  Basis Set: CC-PVTZ
  Basis Set:
  Basis Set: CC-PVTZ
  Basis Set:
  @DF-RHF Final Energy:  -232.23001729586582
    Total Energy =                       -232.2300172958659346
  Basis Set: CC-PVTZ
  Basis Set:
  Basis Set: CC-PVTZ
  Basis Set:
  @DF-RHF Final Energy:  -232.23002153455147
    Total Energy =                       -232.2300215345514403
  Basis Set: CC-PVTZ
  Basis Set:
  Charge       = 0
  Multiplicity = 1
  Basis Set: CC-PVTZ
  Basis Set:

    Orbital Energies (a.u.)
    -----------------------

    Doubly Occupied:

       1A    -20.544187     2A    -11.272794     3A    -11.260888
       4A    -11.207253     5A    -11.204610     6A     -1.378366
       7A     -1.053757     8A     -0.941415     9A     -0.916482
      10A     -0.794147    11A     -0.674192    12A     -0.640392
      13A     -0.639017    14A     -0.588090    15A     -0.550473
      16A     -0.541953    17A     -0.531020    18A     -0.499000
      19A     -0.490950    20A     -0.456389    21A     -0.410789

  @DF-RHF Final Energy:  -232.23002171616491

   => Energetics <=

    Nuclear Repulsion Energy =            197.5811069913049778
    One-Electron Energy =                -706.4299397822667288
    Two-Electron Energy =                 276.6188110747966675
    DFT Exchange-Correlation Energy =       0.0000000000000000
    Empirical Dispersion Energy =           0.0000000000000000
    PCM Polarization Energy =               0.0000000000000000
    EFP Energy =                            0.0000000000000000
    Total Energy =                       -232.2300217161650835
    Molecular point group: c1
  Basis Set: CC-PVTZ
  Basis Set:

  -Total Gradient:
     Atom            X                  Y                   Z
    ------   -----------------  -----------------  -----------------
       1        0.000006871639    -0.000001560200    -0.000007631479
       2       -0.000017093378     0.000159676922     0.000014003335
       3       -0.000004558128    -0.000279914715     0.000047381783
       4        0.000002250020    -0.000002682598    -0.000008769835
       5        0.000009109094     0.000001065938    -0.000005456235
       6        0.000020056222     0.000279160185    -0.000143635114
       7        0.000006277826     0.000016143104    -0.000005247727
       8        0.000040183963    -0.000007698396    -0.000010455600
       9       -0.000023506451    -0.000157430651     0.000131181473
      10       -0.000006695432    -0.000001021346     0.000005250869
      11       -0.000009822357     0.000002440235    -0.000004169478
      12        0.000000570814     0.000003621683    -0.000005297983
      13       -0.000002241741     0.000002740617     0.000008094564
      14       -0.000022929164    -0.000008851996    -0.000001843126
      15        0.000001527069    -0.000005688784    -0.000013405448

  **** Optimization is complete! (in 6 steps) ****
    Final optimized geometry and variables:
    Molecular point group: c1

    Geometry (in Angstrom), charge = 0, multiplicity = 1:

    H           -2.764463148390     0.173757772500     0.373018374090
    C           -1.769676165328     0.139207606333     0.793647395044
    O           -0.868316859669     0.138983448047    -0.263519128081
    H           -1.632431122963     1.009367023192     1.431965745915
    H           -1.689537910610    -0.753035136106     1.407751899512
    C            0.492850527889     0.184786296753     0.074781014233
    C            1.015057530277    -1.187686551761     0.482467225808
    C            1.231873788574     0.735725911017    -1.131271651808
    H            0.624041862213     0.871829340965     0.910256226429
    H            0.492686881827    -1.574815388554     1.348296159011
    H            2.068838332620    -1.132955309582     0.731116303232
    H            0.890254587028    -1.891926568582    -0.332021733684
    H            0.855097418214     1.717326338030    -1.388255437824
    H            2.293765788220     0.813923808909    -0.928824055567
    H            1.091683843173     0.084437963414    -1.986088831054

  Mulliken Charges: (a.u.)
   Center  Symbol    Alpha    Beta     Spin     Total
       1     H     0.44606  0.44606  0.00000  0.10788
       2     C     3.03555  3.03555  0.00000 -0.07109
       3     O     4.18350  4.18350  0.00000 -0.36700
       4     H     0.47142  0.47142  0.00000  0.05715
       5     H     0.47135  0.47135  0.00000  0.05731
       6     C     2.91985  2.91985  0.00000  0.16031
       7     C     3.14810  3.14810  0.00000 -0.29620
       8     C     3.14050  3.14050  0.00000 -0.28101
       9     H     0.46870  0.46870  0.00000  0.06261
      10     H     0.45181  0.45181  0.00000  0.09638
      11     H     0.45246  0.45246  0.00000  0.09507
      12     H     0.45182  0.45182  0.00000  0.09636
      13     H     0.44793  0.44793  0.00000  0.10414
      14     H     0.45858  0.45858  0.00000  0.08284
      15     H     0.45237  0.45237  0.00000  0.09525

   Total alpha = 21.00000, Total beta = 21.00000, Total charge = -0.00000
