  ==> Input File <==

--------------------------------------------------------------------------
set {
	reference rhf
	basis 6-31G*
}

set_num_threads( 1 )
memory 2 gb

molecule MOL {
0 1

H	 -2.646374	 -0.642757	 1.268656
C	 -2.083525	 -0.384536	 0.393091
O	 -0.807605	 -0.127164	 0.768327
F	 -2.118945	 -1.383102	 -0.486752
F	 -2.621877	 0.670592	 -0.209486
C	 0.084052	 0.273579	 -0.209957
C	 0.125331	 -0.834072	 -1.254737
Cl	 1.694368	 0.544244	 0.476221
H	 -0.221628	 1.184402	 -0.694453
F	 0.949010	 -0.515041	 -2.230396
F	 -1.080224	 -0.978623	 -1.767748
F	 0.499713	 -1.981840	 -0.744403

	symmetry c1
}
set optking {
	frozen_dihedral = ("
		10 7 6 9,
		6 3 2 4
	")
}

ee = energy('scf')
oeprop('DIPOLE', 'QUADRUPOLE', 'MULLIKEN_CHARGES')
f=open( 'psi4out.xyz', 'w' )
f.write( "12  " )
f.write( str(ee) + "\n" )
f.write( MOL.save_string_xyz() )
f.close()
--------------------------------------------------------------------------

    Molecular point group: c1

    Geometry (in Angstrom), charge = 0, multiplicity = 1:

       Center              X                  Y                   Z               Mass
    ------------   -----------------  -----------------  -----------------  -----------------
           H         -2.308741300996    -0.243986218233     1.739742961284     1.007825032070
           C         -1.745892300996     0.014234781767     0.864177961284    12.000000000000
           O         -0.469972300996     0.271606781767     1.239413961284    15.994914619560
           F         -1.781312300996    -0.984331218233    -0.015665038716    18.998403224000
           F         -2.284244300996     1.069362781767     0.261600961284    18.998403224000
           C          0.421684699004     0.672349781767     0.261129961284    12.000000000000
           C          0.462963699004    -0.435301218233    -0.783650038716    12.000000000000
          CL          2.032000699004     0.943014781767     0.947307961284    34.968852682000
           H          0.116004699004     1.583172781767    -0.223366038716     1.007825032070
           F          1.286642699004    -0.116270218233    -1.759309038716    18.998403224000
           F         -0.742591300996    -0.579852218233    -1.296661038716    18.998403224000
           F          0.837345699004    -1.583069218233    -0.273316038716    18.998403224000

  Charge       = 0
  Multiplicity = 1
  Basis Set: 6-31G*
  Basis Set:

    Orbital Energies (a.u.)
    -----------------------

    Doubly Occupied:

       1A   -104.851795     2A    -26.354226     3A    -26.352781
       4A    -26.344638     5A    -26.329787     6A    -26.313275
       7A    -20.645375     8A    -11.518812     9A    -11.484115
      10A    -11.399537    11A    -10.585930    12A     -8.055332
      13A     -8.051730    14A     -8.051629    15A     -1.765524
      16A     -1.716188    17A     -1.663236    18A     -1.652839
      19A     -1.614224    20A     -1.485174    21A     -1.181655
      22A     -1.042462    23A     -1.001304    24A     -0.915009
      25A     -0.873134    26A     -0.848614    27A     -0.839724
      28A     -0.826993    29A     -0.816345    30A     -0.775869
      31A     -0.739285    32A     -0.716818    33A     -0.709277
      34A     -0.696796    35A     -0.670543    36A     -0.660688
      37A     -0.656929    38A     -0.646697    39A     -0.637164
      40A     -0.625366    41A     -0.555386    42A     -0.537134
      43A     -0.533268    44A     -0.483853    45A     -0.470534

  @DF-RHF Final Energy: -1146.20883669271871

   => Energetics <=

    Nuclear Repulsion Energy =            772.6929000851513365
    One-Electron Energy =               -3128.4094608130562847
    Two-Electron Energy =                1209.5077240351870387
    DFT Exchange-Correlation Energy =       0.0000000000000000
    Empirical Dispersion Energy =           0.0000000000000000
    PCM Polarization Energy =               0.0000000000000000
    EFP Energy =                            0.0000000000000000
    Total Energy =                      -1146.2088366927177958

  Mulliken Charges: (a.u.)
   Center  Symbol    Alpha    Beta     Spin     Total
       1     H     0.40033  0.40033  0.00000  0.19935
       2     C     2.55937  2.55937  0.00000  0.88125
       3     O     4.30504  4.30504  0.00000 -0.61008
       4     F     4.68196  4.68196  0.00000 -0.36391
       5     F     4.69043  4.69043  0.00000 -0.38085
       6     C     3.04468  3.04468  0.00000 -0.08936
       7     C     2.44295  2.44295  0.00000  1.11410
       8    CL     8.48772  8.48772  0.00000  0.02455
       9     H     0.36802  0.36802  0.00000  0.26397
      10     F     4.67596  4.67596  0.00000 -0.35192
      11     F     4.67255  4.67255  0.00000 -0.34510
      12     F     4.67100  4.67100  0.00000 -0.34200

   Total alpha = 45.00000, Total beta = 45.00000, Total charge = -0.00000
