  ==> Input File <==

--------------------------------------------------------------------------
set {
	reference rhf
	basis 6-31G*
}

set_num_threads( 4 )
memory 2 gb

molecule MOL {
0 1

H	 3.316930	 0.922221	 -0.688527
C	 2.604762	 0.715443	 0.102034
C	 1.322923	 0.120767	 -0.479465
H	 3.075910	 0.032837	 0.802350
H	 2.407259	 1.647690	 0.622132
C	 0.306652	 -0.176050	 0.621399
H	 1.545586	 -0.799824	 -1.008956
H	 0.878212	 0.807199	 -1.190313
N	 -1.068537	 -0.011044	 0.085269
H	 0.372515	 -1.192590	 0.973735
H	 0.391664	 0.520566	 1.441230
O	 -1.656956	 -0.997225	 -0.235017
O	 -1.478635	 1.104830	 -0.018026

	symmetry c1
}
set optking {
	frozen_dihedral = ("
		7 3 6 9
	")
}

ee = optimize('scf')
oeprop('DIPOLE', 'QUADRUPOLE', 'MULLIKEN_CHARGES')
f=open( 'psi4out.xyz', 'w' )
f.write( "13  " )
f.write( str(ee) + "\n" )
f.write( MOL.save_string_xyz() )
f.close()
--------------------------------------------------------------------------

    Molecular point group: c1
  Charge       = 0
  Multiplicity = 1
  Basis Set: 6-31G*
  Basis Set:
  @DF-RHF Final Energy:  -321.73230400721172
    Total Energy =                       -321.7323040072119511
    Molecular point group: c1
  Basis Set: 6-31G*
  Basis Set:
  Basis Set: 6-31G*
  Basis Set:
  @DF-RHF Final Energy:  -321.73224104315238
    Total Energy =                       -321.7322410431525554
  Basis Set: 6-31G*
  Basis Set:
  Basis Set: 6-31G*
  Basis Set:
  @DF-RHF Final Energy:  -321.72435431463998
    Total Energy =                       -321.7243543146398679
  Basis Set: 6-31G*
  Basis Set:
  Basis Set: 6-31G*
  Basis Set:
  @DF-RHF Final Energy:  -321.73210292361989
    Total Energy =                       -321.7321029236199479
  Basis Set: 6-31G*
  Basis Set:
  @DF-RHF Final Energy:  -321.73204882653835
    Total Energy =                       -321.7320488265382892
  Basis Set: 6-31G*
  Basis Set:
  @DF-RHF Final Energy:  -321.73259676418888
    Total Energy =                       -321.7325967641888838
  Basis Set: 6-31G*
  Basis Set:
  Basis Set: 6-31G*
  Basis Set:
  @DF-RHF Final Energy:  -321.73259970485105
    Total Energy =                       -321.7325997048508839
  Basis Set: 6-31G*
  Basis Set:
  Basis Set: 6-31G*
  Basis Set:
  @DF-RHF Final Energy:  -321.73260396498961
    Total Energy =                       -321.7326039649894938
  Basis Set: 6-31G*
  Basis Set:
  Charge       = 0
  Multiplicity = 1
  Basis Set: 6-31G*
  Basis Set:

    Orbital Energies (a.u.)
    -----------------------

    Doubly Occupied:

       1A    -20.601955     2A    -20.598709     3A    -15.846841
       4A    -11.299299     5A    -11.257467     6A    -11.238669
       7A     -1.630359     8A     -1.415851     9A     -1.133711
      10A     -1.028165    11A     -0.883746    12A     -0.833016
      13A     -0.758748    14A     -0.733523    15A     -0.722862
      16A     -0.669439    17A     -0.608090    18A     -0.589218
      19A     -0.546164    20A     -0.520623    21A     -0.515510
      22A     -0.482805    23A     -0.473456    24A     -0.447805

  @DF-RHF Final Energy:  -321.73260468898974

   => Energetics <=

    Nuclear Repulsion Energy =            247.5163720832001104
    One-Electron Energy =                -928.8258917682986748
    Two-Electron Energy =                 359.5769149961088260
    DFT Exchange-Correlation Energy =       0.0000000000000000
    Empirical Dispersion Energy =           0.0000000000000000
    PCM Polarization Energy =               0.0000000000000000
    EFP Energy =                            0.0000000000000000
    Total Energy =                       -321.7326046889897952
    Molecular point group: c1
  Basis Set: 6-31G*
  Basis Set:

  -Total Gradient:
     Atom            X                  Y                   Z
    ------   -----------------  -----------------  -----------------
       1       -0.000015328539     0.000004673741    -0.000006674521
       2       -0.000016619436    -0.000023902145     0.000011712759
       3       -0.004067313634     0.002044784648    -0.003201288356
       4        0.000005834364     0.000001102650    -0.000006592383
       5        0.000002519616     0.000001917263     0.000014743957
       6        0.000715692773    -0.004373067154    -0.000515303029
       7        0.003295202223    -0.000827971311     0.002818632367
       8        0.000003419588     0.000009135123     0.000006527410
       9        0.000039790929     0.003240359257     0.000898046856
      10        0.000030131900     0.000014187328     0.000013408617
      11        0.000006475938     0.000020949746    -0.000009887003
      12       -0.000018473497    -0.000058906072    -0.000035113019
      13        0.000018667779    -0.000053263072     0.000011786346

  **** Optimization is complete! (in 9 steps) ****
    Final optimized geometry and variables:
    Molecular point group: c1

    Geometry (in Angstrom), charge = 0, multiplicity = 1:

    H            3.374664737890     0.759166155344    -0.696636356960
    C            2.644076957554     0.587844469906     0.085813181601
    C            1.352779369101     0.018509786680    -0.504794471021
    H            3.085772625379    -0.095499388693     0.805272070828
    H            2.462148465318     1.532868228867     0.587119831529
    C            0.334164093913    -0.298173646852     0.599116537302
    H            1.587757762798    -0.892802260641    -1.042663629912
    H            0.923427993502     0.728399995808    -1.200342432131
    N           -1.048643669856    -0.147673854733     0.077100517910
    H            0.417512895483    -1.305887311035     0.970166478058
    H            0.402533539944     0.411624009095     1.409170266372
    O           -1.633879073397    -1.138442976526    -0.233963659469
    O           -1.469464448786     0.964822000111    -0.021108946977

  Mulliken Charges: (a.u.)
   Center  Symbol    Alpha    Beta     Spin     Total
       1     H     0.40877  0.40877  0.00000  0.18247
       2     C     3.24843  3.24843  0.00000 -0.49686
       3     C     3.17254  3.17254  0.00000 -0.34509
       4     H     0.41648  0.41648  0.00000  0.16703
       5     H     0.41203  0.41203  0.00000  0.17594
       6     C     3.08467  3.08467  0.00000 -0.16934
       7     H     0.40352  0.40352  0.00000  0.19296
       8     H     0.39356  0.39356  0.00000  0.21288
       9     N     3.22520  3.22520  0.00000  0.54960
      10     H     0.38587  0.38587  0.00000  0.22826
      11     H     0.38866  0.38866  0.00000  0.22268
      12     O     4.22862  4.22862  0.00000 -0.45723
      13     O     4.23165  4.23165  0.00000 -0.46330

   Total alpha = 24.00000, Total beta = 24.00000, Total charge =  0.00000
