                              Psi4 1.0.54 Driver

  ==> Input File <==

--------------------------------------------------------------------------
set {
	reference rhf
	basis cc-pvtz
}

set_num_threads( 4 )
memory 2 gb

molecule MOL {
0 1

H	 3.459101	 0.139266	 -0.762951
C	 2.749156	 -0.051729	 0.031265
C	 1.322304	 0.099773	 -0.484271
H	 2.929445	 -1.053887	 0.403481
H	 2.954281	 0.646699	 0.834672
C	 0.308557	 -0.162619	 0.622645
H	 1.143368	 -0.594400	 -1.295960
H	 1.169532	 1.100095	 -0.870217
N	 -1.069352	 -0.004081	 0.085342
H	 0.371632	 -1.172932	 0.991288
H	 0.400391	 0.548875	 1.426218
O	 -1.839743	 -0.878372	 0.301421
O	 -1.296183	 0.972182	 -0.547429

	symmetry c1
}
set optking {
	frozen_dihedral = ("
		12 9 6 3
	")
}

ee,wfn = optimize('scf', return_wfn=True)
oeprop( wfn, 'DIPOLE', 'QUADRUPOLE', 'MULLIKEN_CHARGES')
f=open( 'psi4out.xyz', 'w' )
f.write( "13  " )
f.write( str(ee) + "\n" )
f.write( MOL.save_string_xyz() )
f.close()
--------------------------------------------------------------------------

    Molecular point group: c1
  Charge       = 0
  Multiplicity = 1
  Basis Set: CC-PVTZ
  Basis Set:
  @DF-RHF Final Energy:  -321.86047934617466
    Total Energy =                       -321.8604793461746567
    Molecular point group: c1
  Basis Set: CC-PVTZ
  Basis Set:
  Basis Set: CC-PVTZ
  Basis Set:
  @DF-RHF Final Energy:  -321.74392697174397
    Total Energy =                       -321.7439269717440311
  Basis Set: CC-PVTZ
  Basis Set:
  Basis Set: CC-PVTZ
  Basis Set:
  @DF-RHF Final Energy:  -321.83505147307505
    Total Energy =                       -321.8350514730751684
  Basis Set: CC-PVTZ
  Basis Set:
  Basis Set: CC-PVTZ
  Basis Set:
  @DF-RHF Final Energy:  -321.85815155136447
    Total Energy =                       -321.8581515513645854
  Basis Set: CC-PVTZ
  Basis Set:
  @DF-RHF Final Energy:  -321.43885771151463
    Total Energy =                       -321.4388577115147996
  @DF-RHF Final Energy:  -321.64001945160300
    Total Energy =                       -321.6400194516027682
  @DF-RHF Final Energy:  -321.83671372321271
    Total Energy =                       -321.8367137232127106
  @DF-RHF Final Energy:  -321.85366060304068
    Total Energy =                       -321.8536606030406801
  @DF-RHF Final Energy:  -321.86057088484688
    Total Energy =                       -321.8605708848468794
  Basis Set: CC-PVTZ
  Basis Set:
  @DF-RHF Final Energy:  -321.86100895169693
    Total Energy =                       -321.8610089516967037
  Basis Set: CC-PVTZ
  Basis Set:
  Basis Set: CC-PVTZ
  Basis Set:
  @DF-RHF Final Energy:  -321.86108192672361
    Total Energy =                       -321.8610819267237275
  Basis Set: CC-PVTZ
  Basis Set:
  Basis Set: CC-PVTZ
  Basis Set:
  @DF-RHF Final Energy:  -321.86108416313846
    Total Energy =                       -321.8610841631383437
  Basis Set: CC-PVTZ
  Basis Set:
  Charge       = 0
  Multiplicity = 1
  Basis Set: CC-PVTZ
  Basis Set:

    Orbital Energies (a.u.)
    -----------------------

    Doubly Occupied:

       1A    -20.592322     2A    -20.589381     3A    -15.837679
       4A    -11.298066     5A    -11.250647     6A    -11.236030
       7A     -1.636701     8A     -1.420813     9A     -1.132830
      10A     -1.027375    11A     -0.884510    12A     -0.831057
      13A     -0.763227    14A     -0.743208    15A     -0.729582
      16A     -0.667145    17A     -0.605143    18A     -0.583774
      19A     -0.551490    20A     -0.522038    21A     -0.510980
      22A     -0.487683    23A     -0.474470    24A     -0.454249

  @DF-RHF Final Energy:  -321.86108470283114

   => Energetics <=

    Nuclear Repulsion Energy =            247.7489976934099047
    One-Electron Energy =                -929.5593660202359843
    Two-Electron Energy =                 359.9492836239950293
    DFT Exchange-Correlation Energy =       0.0000000000000000
    Empirical Dispersion Energy =           0.0000000000000000
    PCM Polarization Energy =               0.0000000000000000
    EFP Energy =                            0.0000000000000000
    Total Energy =                       -321.8610847028310218
    Molecular point group: c1
  Basis Set: CC-PVTZ
  Basis Set:

  -Total Gradient:
     Atom            X                  Y                   Z
    ------   -----------------  -----------------  -----------------
       1       -0.000012533259    -0.000017799681     0.000029357409
       2        0.000011561005     0.000004457794    -0.000010784970
       3        0.000291153591     0.000147630392     0.000230072198
       4       -0.000002254102    -0.000021820839    -0.000013275546
       5        0.000003588848     0.000003367465    -0.000007415084
       6       -0.000297417522    -0.000259870676    -0.000186775835
       7        0.000000224176    -0.000004029786     0.000006950370
       8       -0.000001933408     0.000009534107     0.000024085925
       9       -0.000321267989     0.000211602859    -0.000461403235
      10       -0.000001756486    -0.000002913691    -0.000004376933
      11        0.000006648492     0.000008671135    -0.000008728765
      12        0.000346528249    -0.000109857098     0.000390574316
      13       -0.000022541593     0.000031028018     0.000011720149

  **** Optimization is complete! (in 13 steps) ****
    Final optimized geometry and variables:
    Molecular point group: c1

    Geometry (in Angstrom), charge = 0, multiplicity = 1:

    H            1.904992593964     0.359573091530    -2.997376641756
    C            1.664275929519    -0.313495654754    -2.184901324611
    C            0.688716705737     0.349767990821    -1.217894884915
    H            1.245894002162    -1.216347065687    -2.615477133028
    H            2.591565111069    -0.578214110730    -1.688860930370
    C            0.339405962887    -0.588638356178    -0.074733895533
    H           -0.220085539772     0.625422903836    -1.741298092856
    H            1.114786162126     1.257306396488    -0.815632220968
    N           -0.629726372123     0.030563292058     0.874118938031
    H           -0.122803909026    -1.501068247406    -0.409274551308
    H            1.208240933293    -0.818397912929     0.526045836416
    O           -1.587253827623    -0.602895076023     1.164915217190
    O           -0.367973680190     1.108479735008     1.292622958266

  Mulliken Charges: (a.u.)
   Center  Symbol    Alpha    Beta     Spin     Total
       1     H     0.44150  0.44150  0.00000  0.11701
       2     C     3.15158  3.15158  0.00000 -0.30315
       3     C     3.09564  3.09564  0.00000 -0.19128
       4     H     0.45222  0.45222  0.00000  0.09557
       5     H     0.45231  0.45231  0.00000  0.09539
       6     C     3.04106  3.04106  0.00000 -0.08211
       7     H     0.44358  0.44358  0.00000  0.11284
       8     H     0.43320  0.43320  0.00000  0.13360
       9     N     3.27661  3.27661  0.00000  0.44678
      10     H     0.43211  0.43211  0.00000  0.13578
      11     H     0.43747  0.43747  0.00000  0.12507
      12     O     4.16903  4.16903  0.00000 -0.33807
      13     O     4.17370  4.17370  0.00000 -0.34741

   Total alpha = 24.00000, Total beta = 24.00000, Total charge =  0.00000

*** Psi4 exiting successfully. Buy a developer a beer!
