  ==> Input File <==

--------------------------------------------------------------------------
set {
	reference rhf
	basis 6-31G*
}

set_num_threads( 4 )
memory 2 gb

molecule MOL {
0 1

H	 -3.148898	 -0.084799	 -2.679443
O	 -2.866716	 -0.398034	 -1.831999
C	 -1.597541	 0.124437	 -1.533989
C	 -1.177863	 -0.397191	 -0.171080
H	 -0.872207	 -0.177417	 -2.288365
H	 -1.624031	 1.213265	 -1.524429
C	 0.198102	 0.111031	 0.262842
H	 -1.182442	 -1.483281	 -0.204468
H	 -1.931868	 -0.104055	 0.554196
C	 1.331804	 -0.827780	 -0.158768
H	 0.361943	 1.100838	 -0.156218
H	 0.217265	 0.229072	 1.345532
C	 2.723619	 -0.410569	 0.329459
H	 1.342964	 -0.912588	 -1.244120
H	 1.116806	 -1.824343	 0.220779
C	 3.243875	 0.895854	 -0.272975
H	 3.424222	 -1.207124	 0.091250
H	 2.714788	 -0.329854	 1.414619
H	 3.251977	 0.848779	 -1.358681
H	 2.637085	 1.747371	 0.016682
H	 4.259473	 1.094070	 0.055697

	symmetry c1
}
set optking {
	frozen_dihedral = ("
		8 4 7 10
	")
}

ee = optimize('scf')
oeprop('DIPOLE', 'QUADRUPOLE', 'MULLIKEN_CHARGES')
f=open( 'psi4out.xyz', 'w' )
f.write( "21  " )
f.write( str(ee) + "\n" )
f.write( MOL.save_string_xyz() )
f.close()
--------------------------------------------------------------------------

    Molecular point group: c1
  Charge       = 0
  Multiplicity = 1
  Basis Set: 6-31G*
  Basis Set:
  @DF-RHF Final Energy:  -310.20947725581595
    Total Energy =                       -310.2094772558155000
    Molecular point group: c1
  Basis Set: 6-31G*
  Basis Set:
  Basis Set: 6-31G*
  Basis Set:
  @DF-RHF Final Energy:  -310.20972680038523
    Total Energy =                       -310.2097268003856811
  Basis Set: 6-31G*
  Basis Set:
  Basis Set: 6-31G*
  Basis Set:
  @DF-RHF Final Energy:  -310.20978559998730
    Total Energy =                       -310.2097855999869580
  Basis Set: 6-31G*
  Basis Set:
  Basis Set: 6-31G*
  Basis Set:
  @DF-RHF Final Energy:  -310.20979324698266
    Total Energy =                       -310.2097932469824855
  Basis Set: 6-31G*
  Basis Set:
  Basis Set: 6-31G*
  Basis Set:
  @DF-RHF Final Energy:  -310.20979465949472
    Total Energy =                       -310.2097946594944915
  Basis Set: 6-31G*
  Basis Set:
  Charge       = 0
  Multiplicity = 1
  Basis Set: 6-31G*
  Basis Set:

    Orbital Energies (a.u.)
    -----------------------

    Doubly Occupied:

       1A    -20.551736     2A    -11.266809     3A    -11.215859
       4A    -11.215725     5A    -11.214393     6A    -11.210620
       7A    -11.209192     8A     -1.358645     9A     -1.085970
      10A     -1.032214    11A     -0.953028    12A     -0.878767
      13A     -0.810492    14A     -0.776351    15A     -0.694058
      16A     -0.648564    17A     -0.632638    18A     -0.609443
      19A     -0.587298    20A     -0.559893    21A     -0.544409
      22A     -0.520462    23A     -0.511222    24A     -0.493842
      25A     -0.475155    26A     -0.457263    27A     -0.455114
      28A     -0.446446    29A     -0.431132

  @DF-RHF Final Energy:  -310.20979476361117

   => Energetics <=

    Nuclear Repulsion Energy =            315.8690668033146949
    One-Electron Energy =               -1046.4642418045432350
    Two-Electron Energy =                 420.3853802376174258
    DFT Exchange-Correlation Energy =       0.0000000000000000
    Empirical Dispersion Energy =           0.0000000000000000
    PCM Polarization Energy =               0.0000000000000000
    EFP Energy =                            0.0000000000000000
    Total Energy =                       -310.2097947636111144
    Molecular point group: c1
  Basis Set: 6-31G*
  Basis Set:

  -Total Gradient:
     Atom            X                  Y                   Z
    ------   -----------------  -----------------  -----------------
       1        0.000008058315     0.000004667829     0.000003411794
       2        0.000005266240     0.000001899069     0.000012059309
       3        0.000002102422     0.000006307243    -0.000007659471
       4       -0.001038209845    -0.000568937073     0.003731529075
       5       -0.000001142934    -0.000006993444     0.000002481196
       6       -0.000000934168     0.000000649986    -0.000002030406
       7        0.000430220480     0.001427899161    -0.002859327011
       8        0.000781847594     0.000146410773    -0.002497087197
       9       -0.000001181427    -0.000004622318     0.000013316618
      10       -0.000179007911    -0.000997820945     0.001577351831
      11       -0.000007184178    -0.000009237540    -0.000003524751
      12       -0.000010497403     0.000001581289     0.000010308675
      13       -0.000008118287     0.000001990085     0.000030067774
      14       -0.000002874161    -0.000014285552    -0.000002026624
      15       -0.000000959253     0.000007404403     0.000005047162
      16        0.000003716683     0.000000250127    -0.000012410047
      17        0.000005693924     0.000017112675    -0.000005686397
      18        0.000004940706    -0.000013166473     0.000006010889
      19       -0.000003302863     0.000002049760     0.000001515813
      20        0.000009332986    -0.000007170278     0.000001653333
      21        0.000002233084     0.000004011226    -0.000005001564

  **** Optimization is complete! (in 6 steps) ****
    Final optimized geometry and variables:
    Molecular point group: c1

    Geometry (in Angstrom), charge = 0, multiplicity = 1:

    H           -3.309970835797     0.050112344033    -2.195295096868
    O           -3.040920513387    -0.282965627195    -1.351134667476
    C           -1.800814882985     0.272453546492    -0.996884923343
    C           -1.408573804930    -0.275992461755     0.366164651760
    H           -1.043680480289     0.020840495722    -1.738014664685
    H           -1.865822476712     1.358790581470    -0.953555627104
    C           -0.022658991594     0.205745334603     0.826736506234
    H           -1.428526154291    -1.359670164215     0.298441422280
    H           -2.174302098581     0.015030825412     1.077600799249
    C            1.120557685165    -0.719287692138     0.394029847348
    H            0.148437466669     1.216872996103     0.465640250018
    H           -0.011029928428     0.272232339591     1.911973915126
    C            2.511559417590    -0.274485393065     0.859993353439
    H            1.125261357091    -0.823223872654    -0.689989253495
    H            0.922922484665    -1.712049299827     0.791405399310
    C            3.018866017556     1.014147741926     0.209791689119
    H            3.217698266776    -1.072880220275     0.645559800164
    H            2.507420201745    -0.156606602660     1.941792740968
    H            3.025816686373     0.927535886265    -0.873555368139
    H            2.405444117794     1.870501277987     0.469429815641
    H            4.033268107841     1.233148518814     0.528728690694

  Mulliken Charges: (a.u.)
   Center  Symbol    Alpha    Beta     Spin     Total
       1     H     0.28123  0.28123  0.00000  0.43753
       2     O     4.37166  4.37166  0.00000 -0.74331
       3     C     2.99198  2.99198  0.00000  0.01604
       4     C     3.16093  3.16093  0.00000 -0.32186
       5     H     0.43241  0.43241  0.00000  0.13518
       6     H     0.43274  0.43274  0.00000  0.13453
       7     C     3.16554  3.16554  0.00000 -0.33107
       8     H     0.41317  0.41317  0.00000  0.17367
       9     H     0.41252  0.41252  0.00000  0.17497
      10     C     3.15304  3.15304  0.00000 -0.30608
      11     H     0.42174  0.42174  0.00000  0.15653
      12     H     0.41884  0.41884  0.00000  0.16232
      13     C     3.15278  3.15278  0.00000 -0.30557
      14     H     0.42471  0.42471  0.00000  0.15057
      15     H     0.41992  0.41992  0.00000  0.16017
      16     C     3.24106  3.24106  0.00000 -0.48211
      17     H     0.42059  0.42059  0.00000  0.15882
      18     H     0.42299  0.42299  0.00000  0.15402
      19     H     0.42280  0.42280  0.00000  0.15439
      20     H     0.42047  0.42047  0.00000  0.15907
      21     H     0.41890  0.41890  0.00000  0.16221

   Total alpha = 29.00000, Total beta = 29.00000, Total charge =  0.00000
