                              Psi4 1.0.54 Driver

  ==> Input File <==

--------------------------------------------------------------------------
set {
	reference rhf
	basis cc-pvtz
}

set_num_threads( 4 )
memory 2 gb

molecule MOL {
0 1

H	 2.083200	 -0.928544	 -0.672127
C	 1.273733	 -1.487982	 -1.159409
C	 -0.031158	 -0.750270	 -1.277058
O	 1.464108	 -2.589929	 -1.542950
C	 -0.554654	 -0.292621	 0.086567
H	 -0.744036	 -1.392045	 -1.777824
H	 0.142343	 0.119443	 -1.907435
C	 -1.846385	 0.513195	 -0.016346
H	 -0.721141	 -1.162656	 0.715264
H	 0.203508	 0.306663	 0.584284
C	 -3.089953	 -0.365049	 -0.098564
H	 -1.798267	 1.154820	 -0.891143
H	 -1.925398	 1.173265	 0.842889
H	 -3.055079	 -1.012299	 -0.968245
H	 -3.988403	 0.236438	 -0.170014
H	 -3.183055	 -0.995885	 0.779079

	symmetry c1
}
set optking {
	frozen_dihedral = ("
		9 5 8 12
	")
}

ee,wfn = optimize('scf', return_wfn=True)
oeprop( wfn, 'DIPOLE', 'QUADRUPOLE', 'MULLIKEN_CHARGES')
f=open( 'psi4out.xyz', 'w' )
f.write( "16  " )
f.write( str(ee) + "\n" )
f.write( MOL.save_string_xyz() )
f.close()
--------------------------------------------------------------------------

    Molecular point group: c1
  Charge       = 0
  Multiplicity = 1
  Basis Set: CC-PVTZ
  Basis Set:
  @DF-RHF Final Energy:  -270.11640738962853
    Total Energy =                       -270.1164073896288187
    Molecular point group: c1
  Basis Set: CC-PVTZ
  Basis Set:
  Basis Set: CC-PVTZ
  Basis Set:
  @DF-RHF Final Energy:  -270.11655547028363
    Total Energy =                       -270.1165554702837426
  Basis Set: CC-PVTZ
  Basis Set:
  Basis Set: CC-PVTZ
  Basis Set:
  @DF-RHF Final Energy:  -270.11658730960312
    Total Energy =                       -270.1165873096030623
  Basis Set: CC-PVTZ
  Basis Set:
  Basis Set: CC-PVTZ
  Basis Set:
  @DF-RHF Final Energy:  -270.11643860851206
    Total Energy =                       -270.1164386085121123
  Basis Set: CC-PVTZ
  Basis Set:
  Basis Set: CC-PVTZ
  Basis Set:
  @DF-RHF Final Energy:  -270.11661034599081
    Total Energy =                       -270.1166103459910914
  Basis Set: CC-PVTZ
  Basis Set:
  Basis Set: CC-PVTZ
  Basis Set:
  @DF-RHF Final Energy:  -270.11660914864251
    Total Energy =                       -270.1166091486423966
  Basis Set: CC-PVTZ
  Basis Set:
  Basis Set: CC-PVTZ
  Basis Set:
  @DF-RHF Final Energy:  -270.11661258066954
    Total Energy =                       -270.1166125806694822
  Basis Set: CC-PVTZ
  Basis Set:
  Charge       = 0
  Multiplicity = 1
  Basis Set: CC-PVTZ
  Basis Set:

    Orbital Energies (a.u.)
    -----------------------

    Doubly Occupied:

       1A    -20.552156     2A    -11.321213     3A    -11.234810
       4A    -11.233794     5A    -11.227590     6A    -11.215772
       7A     -1.406851     8A     -1.097126     9A     -1.017112
      10A     -0.910359    11A     -0.810795    12A     -0.792951
      13A     -0.680485    14A     -0.649463    15A     -0.625417
      16A     -0.613403    17A     -0.582100    18A     -0.549212
      19A     -0.539175    20A     -0.508762    21A     -0.487737
      22A     -0.481012    23A     -0.475328    24A     -0.411826

  @DF-RHF Final Energy:  -270.11661264269628

   => Energetics <=

    Nuclear Repulsion Energy =            231.9017818966863160
    One-Electron Energy =                -825.1878887114415875
    Two-Electron Energy =                 323.1694941720587053
    DFT Exchange-Correlation Energy =       0.0000000000000000
    Empirical Dispersion Energy =           0.0000000000000000
    PCM Polarization Energy =               0.0000000000000000
    EFP Energy =                            0.0000000000000000
    Total Energy =                       -270.1166126426965661
    Molecular point group: c1
  Basis Set: CC-PVTZ
  Basis Set:

  -Total Gradient:
     Atom            X                  Y                   Z
    ------   -----------------  -----------------  -----------------
       1       -0.000004527797    -0.000003837510     0.000002731863
       2        0.000002725537    -0.000001323317    -0.000005451124
       3       -0.000009994640     0.000002767767     0.000034533851
       4        0.000003206038     0.000001869384    -0.000007634032
       5        0.000708501891     0.001424106224     0.002416592272
       6        0.000005857877     0.000000716924    -0.000002256457
       7        0.000003788977    -0.000003314098    -0.000010728587
       8        0.001275030603     0.002226181073     0.001350713852
       9       -0.000797920866    -0.001548837775    -0.002254881400
      10       -0.000003200339     0.000000832587    -0.000000530543
      11        0.000000225876    -0.000002545844     0.000003180179
      12       -0.001183034503    -0.002094784671    -0.001526904088
      13       -0.000000667294    -0.000002553398    -0.000000889850
      14        0.000000284843     0.000001830377     0.000000292293
      15        0.000000818293     0.000000440115     0.000001033214
      16       -0.000001094494    -0.000001547837     0.000000198557

  **** Optimization is complete! (in 8 steps) ****
    Final optimized geometry and variables:
    Molecular point group: c1

    Geometry (in Angstrom), charge = 0, multiplicity = 1:

    H            2.559732630659    -0.125936801488    -0.037143084260
    C            1.731620977857    -0.680124665314    -0.498455221360
    C            0.441811464447     0.083254035663    -0.619822165790
    O            1.892478125700    -1.796369348740    -0.853309482844
    C           -0.052225592707     0.583309256845     0.743144265136
    H           -0.285850524090    -0.555102940179    -1.101773419909
    H            0.628196363195     0.936267628953    -1.268697197883
    C           -1.355526485918     1.385511820171     0.653597894631
    H           -0.203262117587    -0.277820884309     1.387423137667
    H            0.722697038762     1.191774386838     1.197966752093
    C           -2.605982978265     0.510637905895     0.591126504756
    H           -1.328992879910     2.015242430477    -0.230773538927
    H           -1.430054162417     2.045793970326     1.510234447173
    H           -2.585568580272    -0.158439422010    -0.261569782961
    H           -3.499145748469     1.118739976797     0.508080131722
    H           -2.700585254230    -0.096490191968     1.484818914931

  Mulliken Charges: (a.u.)
   Center  Symbol    Alpha    Beta     Spin     Total
       1     H     0.46426  0.46426  0.00000  0.07147
       2     C     2.91027  2.91027  0.00000  0.17946
       3     C     3.07776  3.07776  0.00000 -0.15552
       4     O     4.16384  4.16384  0.00000 -0.32769
       5     C     3.10866  3.10866  0.00000 -0.21732
       6     H     0.44304  0.44304  0.00000  0.11392
       7     H     0.45019  0.45019  0.00000  0.09963
       8     C     3.08973  3.08973  0.00000 -0.17946
       9     H     0.44683  0.44683  0.00000  0.10634
      10     H     0.44486  0.44486  0.00000  0.11028
      11     C     3.14770  3.14770  0.00000 -0.29540
      12     H     0.45486  0.45486  0.00000  0.09028
      13     H     0.44517  0.44517  0.00000  0.10967
      14     H     0.45272  0.45272  0.00000  0.09455
      15     H     0.44663  0.44663  0.00000  0.10675
      16     H     0.45347  0.45347  0.00000  0.09306

   Total alpha = 24.00000, Total beta = 24.00000, Total charge = -0.00000

*** Psi4 exiting successfully. Buy a developer a beer!
