  ==> Input File <==

--------------------------------------------------------------------------
set {
	reference rhf
	basis 6-31G*
}

set_num_threads( 1 )
memory 2 gb

molecule MOL {
0 1

H	 3.463771	 0.168298	 -0.756243
C	 2.752674	 -0.045734	 0.033351
C	 1.322923	 0.120767	 -0.479465
H	 2.934561	 -1.059086	 0.377456
H	 2.958358	 0.631174	 0.856809
C	 0.306652	 -0.176050	 0.621399
H	 1.144658	 -0.551717	 -1.312180
H	 1.166477	 1.131798	 -0.836680
N	 -1.068537	 -0.011044	 0.085269
H	 0.372515	 -1.192590	 0.973735
H	 0.391664	 0.520566	 1.441230
O	 -1.658904	 -0.997631	 -0.230143
O	 -1.476687	 1.105078	 -0.022945

	symmetry c1
}
set optking {
	frozen_dihedral = ("
		7 3 6 9
	")
}

ee = energy('scf')
oeprop('DIPOLE', 'QUADRUPOLE', 'MULLIKEN_CHARGES')
f=open( 'psi4out.xyz', 'w' )
f.write( "13  " )
f.write( str(ee) + "\n" )
f.write( MOL.save_string_xyz() )
f.close()
--------------------------------------------------------------------------

    Molecular point group: c1

    Geometry (in Angstrom), charge = 0, multiplicity = 1:

       Center              X                  Y                   Z               Mass
    ------------   -----------------  -----------------  -----------------  -----------------
           H          3.463771451272     0.168326707127    -0.756234880571     1.007825032070
           C          2.752674451272    -0.045705292873     0.033359119429    12.000000000000
           C          1.322923451272     0.120795707127    -0.479456880571    12.000000000000
           H          2.934561451272    -1.059057292873     0.377464119429     1.007825032070
           H          2.958358451272     0.631202707127     0.856817119429     1.007825032070
           C          0.306652451272    -0.176021292873     0.621407119429    12.000000000000
           H          1.144658451272    -0.551688292873    -1.312171880571     1.007825032070
           H          1.166477451272     1.131826707127    -0.836671880571     1.007825032070
           N         -1.068536548728    -0.011015292873     0.085277119429    14.003074004780
           H          0.372515451272    -1.192561292873     0.973743119429     1.007825032070
           H          0.391664451272     0.520594707127     1.441238119429     1.007825032070
           O         -1.658903548728    -0.997602292873    -0.230134880571    15.994914619560
           O         -1.476686548728     1.105106707127    -0.022936880571    15.994914619560

  Charge       = 0
  Multiplicity = 1
  Basis Set: 6-31G*
  Basis Set:

    Orbital Energies (a.u.)
    -----------------------

    Doubly Occupied:

       1A    -20.601637     2A    -20.599360     3A    -15.846881
       4A    -11.299175     5A    -11.257159     6A    -11.240087
       7A     -1.630452     8A     -1.415986     9A     -1.135490
      10A     -1.028521    11A     -0.884184    12A     -0.833189
      13A     -0.758314    14A     -0.734565    15A     -0.722914
      16A     -0.672344    17A     -0.604606    18A     -0.588827
      19A     -0.550939    20A     -0.521661    21A     -0.515040
      22A     -0.483579    23A     -0.473667    24A     -0.447758

  @DF-RHF Final Energy:  -321.73558425312308

   => Energetics <=

    Nuclear Repulsion Energy =            247.4236363892420343
    One-Electron Energy =                -928.6258313077483990
    Two-Electron Energy =                 359.4666106653834277
    DFT Exchange-Correlation Energy =       0.0000000000000000
    Empirical Dispersion Energy =           0.0000000000000000
    PCM Polarization Energy =               0.0000000000000000
    EFP Energy =                            0.0000000000000000
    Total Energy =                       -321.7355842531229655

  Mulliken Charges: (a.u.)
   Center  Symbol    Alpha    Beta     Spin     Total
       1     H     0.40727  0.40727  0.00000  0.18545
       2     C     3.24810  3.24810  0.00000 -0.49621
       3     C     3.17315  3.17315  0.00000 -0.34631
       4     H     0.41463  0.41463  0.00000  0.17073
       5     H     0.41461  0.41461  0.00000  0.17078
       6     C     3.08278  3.08278  0.00000 -0.16556
       7     H     0.40122  0.40122  0.00000  0.19755
       8     H     0.39668  0.39668  0.00000  0.20664
       9     N     3.22388  3.22388  0.00000  0.55224
      10     H     0.38774  0.38774  0.00000  0.22453
      11     H     0.38899  0.38899  0.00000  0.22202
      12     O     4.22950  4.22950  0.00000 -0.45901
      13     O     4.23143  4.23143  0.00000 -0.46286

   Total alpha = 24.00000, Total beta = 24.00000, Total charge = -0.00000
