                              Psi4 1.0.54 Driver

  ==> Input File <==

--------------------------------------------------------------------------
set {
	reference rhf
	basis cc-pvtz
}

set_num_threads( 4 )
memory 2 gb

molecule MOL {
0 1

H	 -2.698799	 -0.000846	 0.036018
C	 -1.694291	 -0.000483	 0.434279
O	 -0.828718	 -0.000608	 -0.655022
H	 -1.576855	 0.881100	 1.056504
H	 -1.576401	 -0.881658	 1.057001
C	 -1.241794	 0.614806	 -1.850225
C	 -2.445482	 -0.077383	 -2.479733
C	 -1.454315	 2.116240	 -1.692803
H	 -0.395089	 0.468655	 -2.509276
H	 -2.276342	 -1.145375	 -2.541734
H	 -2.603699	 0.300885	 -3.483041
H	 -3.356790	 0.094373	 -1.918840
H	 -0.597783	 2.569535	 -1.209149
H	 -1.576616	 2.574262	 -2.667498
H	 -2.339249	 2.346188	 -1.110946

	symmetry c1
}
set optking {
	frozen_dihedral = ("
		6 3 2 1
	")
}

ee,wfn = optimize('scf', return_wfn=True)
oeprop( wfn, 'DIPOLE', 'QUADRUPOLE', 'MULLIKEN_CHARGES')
f=open( 'psi4out.xyz', 'w' )
f.write( "15  " )
f.write( str(ee) + "\n" )
f.write( MOL.save_string_xyz() )
f.close()
--------------------------------------------------------------------------

    Molecular point group: c1
  Charge       = 0
  Multiplicity = 1
  Basis Set: CC-PVTZ
  Basis Set:
  @DF-RHF Final Energy:  -232.22257401663714
    Total Energy =                       -232.2225740166371111
    Molecular point group: c1
  Basis Set: CC-PVTZ
  Basis Set:
  Basis Set: CC-PVTZ
  Basis Set:
  @DF-RHF Final Energy:  -232.22393277083685
    Total Energy =                       -232.2239327708368819
  Basis Set: CC-PVTZ
  Basis Set:
  Basis Set: CC-PVTZ
  Basis Set:
  @DF-RHF Final Energy:  -232.22508221661715
    Total Energy =                       -232.2250822166171247
  Basis Set: CC-PVTZ
  Basis Set:
  Basis Set: CC-PVTZ
  Basis Set:
  @DF-RHF Final Energy:  -232.22508921685414
    Total Energy =                       -232.2250892168540872
  Basis Set: CC-PVTZ
  Basis Set:
  Basis Set: CC-PVTZ
  Basis Set:
  @DF-RHF Final Energy:  -232.22511408459462
    Total Energy =                       -232.2251140845942814
  Basis Set: CC-PVTZ
  Basis Set:
  Charge       = 0
  Multiplicity = 1
  Basis Set: CC-PVTZ
  Basis Set:

    Orbital Energies (a.u.)
    -----------------------

    Doubly Occupied:

       1A    -20.540566     2A    -11.272972     3A    -11.258951
       4A    -11.209325     5A    -11.208074     6A     -1.372491
       7A     -1.051136     8A     -0.940648     9A     -0.931397
      10A     -0.781693    11A     -0.677056    12A     -0.641225
      13A     -0.634067    14A     -0.571714    15A     -0.563788
      16A     -0.553209    17A     -0.536217    18A     -0.500559
      19A     -0.498205    20A     -0.444412    21A     -0.407172

  @DF-RHF Final Energy:  -232.22511981532375

   => Energetics <=

    Nuclear Repulsion Energy =            199.0256917126008602
    One-Electron Energy =                -709.3118642210057487
    Two-Electron Energy =                 278.0610526930813080
    DFT Exchange-Correlation Energy =       0.0000000000000000
    Empirical Dispersion Energy =           0.0000000000000000
    PCM Polarization Energy =               0.0000000000000000
    EFP Energy =                            0.0000000000000000
    Total Energy =                       -232.2251198153235805
    Molecular point group: c1
  Basis Set: CC-PVTZ
  Basis Set:

  -Total Gradient:
     Atom            X                  Y                   Z
    ------   -----------------  -----------------  -----------------
       1       -0.000119535536     0.001926818830     0.000025691131
       2       -0.000172229339    -0.003188796911    -0.000379853134
       3        0.000809712920     0.002678575515     0.000758686389
       4        0.000028934449     0.000066403384     0.000006687149
       5        0.000021540386    -0.000035800735    -0.000010349960
       6       -0.000554817733    -0.001404090889    -0.000508670956
       7       -0.000033602164    -0.000051459439     0.000069403249
       8        0.000017915494     0.000043353904     0.000003384173
       9        0.000027355162    -0.000050870120     0.000035031018
      10       -0.000017942364    -0.000019807813    -0.000028386124
      11        0.000034429044     0.000020282172     0.000016042428
      12       -0.000020210078    -0.000009721196    -0.000019825688
      13        0.000001476880     0.000018152269     0.000022893562
      14       -0.000015999010     0.000033404014    -0.000007797589
      15       -0.000007028111    -0.000026442988     0.000017064353

  **** Optimization is complete! (in 6 steps) ****
    Final optimized geometry and variables:
    Molecular point group: c1

    Geometry (in Angstrom), charge = 0, multiplicity = 1:

    H           -1.163079693416    -0.604021871763     1.360357843566
    C           -0.117750839062    -0.583813305492     1.645787376304
    O            0.742221134653    -0.504811571026     0.551976878207
    H            0.025901016612     0.256881314114     2.318703206629
    H            0.110662705281    -1.494265832057     2.182443134289
    C            0.304422995324     0.151917801604    -0.611443142518
    C           -0.772718945582    -0.636284723226    -1.348567310505
    C           -0.103347325974     1.596922999512    -0.348185290374
    H            1.187188550091     0.165366916674    -1.238556717944
    H           -0.450506860571    -1.659355620414    -1.497092675927
    H           -0.955349193780    -0.191412106169    -2.320204259734
    H           -1.715088439613    -0.648534001025    -0.813657166731
    H            0.685582014762     2.122095361501     0.176387551789
    H           -0.287329229929     2.108423480640    -1.285837174585
    H           -1.009071266627     1.660898714741     0.244365587369

  Mulliken Charges: (a.u.)
   Center  Symbol    Alpha    Beta     Spin     Total
       1     H     0.46997  0.46997  0.00000  0.06006
       2     C     3.04011  3.04011  0.00000 -0.08021
       3     O     4.18550  4.18550  0.00000 -0.37101
       4     H     0.46303  0.46303  0.00000  0.07394
       5     H     0.44483  0.44483  0.00000  0.11033
       6     C     2.93808  2.93808  0.00000  0.12384
       7     C     3.15366  3.15366  0.00000 -0.30731
       8     C     3.15821  3.15821  0.00000 -0.31641
       9     H     0.44652  0.44652  0.00000  0.10696
      10     H     0.44477  0.44477  0.00000  0.11047
      11     H     0.45129  0.45129  0.00000  0.09743
      12     H     0.45581  0.45581  0.00000  0.08838
      13     H     0.44437  0.44437  0.00000  0.11126
      14     H     0.44859  0.44859  0.00000  0.10281
      15     H     0.45527  0.45527  0.00000  0.08946

   Total alpha = 21.00000, Total beta = 21.00000, Total charge =  0.00000

*** Psi4 exiting successfully. Buy a developer a beer!
