  ==> Input File <==

--------------------------------------------------------------------------
set {
	reference rhf
	basis 6-31G*
}

set_num_threads( 4 )
memory 2 gb

molecule MOL {
0 1

H	 5.129519	 2.231385	 0.422794
C	 4.698772	 1.316270	 0.028403
C	 3.258336	 1.133697	 0.504837
H	 4.746735	 1.368371	 -1.055260
H	 5.327496	 0.489842	 0.348594
C	 2.622510	 -0.152167	 -0.028166
H	 2.666189	 1.987156	 0.190878
H	 3.238753	 1.120199	 1.593472
C	 1.185975	 -0.371355	 0.446798
H	 2.637547	 -0.143052	 -1.112295
H	 3.221147	 -1.002782	 0.289841
C	 0.169600	 0.576866	 -0.172154
H	 0.864409	 -1.379903	 0.191464
H	 1.121046	 -0.307864	 1.530740
C	 -1.181045	 0.701995	 0.511084
O	 0.411124	 1.189373	 -1.168601
C	 -2.285934	 -0.139295	 -0.145128
H	 -1.449051	 1.751551	 0.493206
H	 -1.071135	 0.403303	 1.551943
C	 -3.651768	 0.085446	 0.506485
H	 -2.346596	 0.110469	 -1.202272
H	 -2.034737	 -1.195320	 -0.088721
C	 -4.759797	 -0.746382	 -0.137905
H	 -3.908762	 1.140117	 0.445781
H	 -3.588286	 -0.154158	 1.565709
H	 -4.868882	 -0.505166	 -1.191300
H	 -4.548009	 -1.809175	 -0.062213
H	 -5.715422	 -0.564821	 0.343442

	symmetry c1
}
set optking {
	frozen_dihedral = ("
		16 12 15 17
	")
}

ee = optimize('scf')
oeprop('DIPOLE', 'QUADRUPOLE', 'MULLIKEN_CHARGES')
f=open( 'psi4out.xyz', 'w' )
f.write( "28  " )
f.write( str(ee) + "\n" )
f.write( MOL.save_string_xyz() )
f.close()
--------------------------------------------------------------------------

    Molecular point group: c1
  Charge       = 0
  Multiplicity = 1
  Basis Set: 6-31G*
  Basis Set:
  @DF-RHF Final Energy:  -426.16855416033070
    Total Energy =                       -426.1685541603307001
    Molecular point group: c1
  Basis Set: 6-31G*
  Basis Set:
  Basis Set: 6-31G*
  Basis Set:
  @DF-RHF Final Energy:  -426.16865382848982
    Total Energy =                       -426.1686538284900507
  Basis Set: 6-31G*
  Basis Set:
  Basis Set: 6-31G*
  Basis Set:
  @DF-RHF Final Energy:  -426.16861465966031
    Total Energy =                       -426.1686146596593971
  Basis Set: 6-31G*
  Basis Set:
  Basis Set: 6-31G*
  Basis Set:
  @DF-RHF Final Energy:  -426.16956567394163
    Total Energy =                       -426.1695656739404967
  Basis Set: 6-31G*
  Basis Set:
  @DF-RHF Final Energy:  -426.16940489186675
    Total Energy =                       -426.1694048918664066
  @DF-RHF Final Energy:  -426.16958743056750
    Total Energy =                       -426.1695874305671623
  Basis Set: 6-31G*
  Basis Set:
  @DF-RHF Final Energy:  -426.16965440036245
    Total Energy =                       -426.1696544003629015
  Basis Set: 6-31G*
  Basis Set:
  Basis Set: 6-31G*
  Basis Set:
  @DF-RHF Final Energy:  -426.16965316009203
    Total Energy =                       -426.1696531600925937
  Basis Set: 6-31G*
  Basis Set:
  Basis Set: 6-31G*
  Basis Set:
  @DF-RHF Final Energy:  -426.16965668027728
    Total Energy =                       -426.1696566802771713
  Basis Set: 6-31G*
  Basis Set:
  Charge       = 0
  Multiplicity = 1
  Basis Set: 6-31G*
  Basis Set:

    Orbital Energies (a.u.)
    -----------------------

    Doubly Occupied:

       1A    -20.547923     2A    -11.322646     3A    -11.231047
       4A    -11.229668     5A    -11.228542     6A    -11.224276
       7A    -11.216289     8A    -11.214514     9A    -11.209995
      10A    -11.204442    11A     -1.393528    12A     -1.092558
      13A     -1.077181    14A     -1.022360    15A     -0.990663
      16A     -0.908550    17A     -0.869226    18A     -0.807530
      19A     -0.796496    20A     -0.725062    21A     -0.670119
      22A     -0.650967    23A     -0.630051    24A     -0.614985
      25A     -0.606968    26A     -0.589535    27A     -0.574587
      28A     -0.570773    29A     -0.542139    30A     -0.533496
      31A     -0.521982    32A     -0.507611    33A     -0.499058
      34A     -0.482188    35A     -0.475973    36A     -0.475683
      37A     -0.468679    38A     -0.463761    39A     -0.454333
      40A     -0.391763

  @DF-RHF Final Energy:  -426.16965680677276

   => Energetics <=

    Nuclear Repulsion Energy =            530.0947603437924727
    One-Electron Energy =               -1628.4545468507828900
    Two-Electron Energy =                 672.1901297002174260
    DFT Exchange-Correlation Energy =       0.0000000000000000
    Empirical Dispersion Energy =           0.0000000000000000
    PCM Polarization Energy =               0.0000000000000000
    EFP Energy =                            0.0000000000000000
    Total Energy =                       -426.1696568067731050
    Molecular point group: c1
  Basis Set: 6-31G*
  Basis Set:

  -Total Gradient:
     Atom            X                  Y                   Z
    ------   -----------------  -----------------  -----------------
       1       -0.000003992959     0.000001760056    -0.000001683965
       2       -0.000005654538    -0.000001463495    -0.000005840560
       3        0.000008562898    -0.000001845934     0.000009005700
       4        0.000002030667    -0.000003857754    -0.000002004177
       5        0.000001807827     0.000001681139     0.000002286987
       6       -0.000011492666     0.000010984387    -0.000005756742
       7       -0.000004778164    -0.000001196947     0.000003598075
       8        0.000001367089    -0.000002447693     0.000001341895
       9       -0.000007618597     0.000003101767     0.000000395427
      10        0.000004175645    -0.000001088379    -0.000006912230
      11       -0.000008197378     0.000000980234     0.000005841725
      12       -0.000114893283    -0.000490390720    -0.000307295282
      13        0.000000881882    -0.000001395779     0.000001393176
      14       -0.000002729508     0.000002345002     0.000003436824
      15       -0.000044670202     0.000423032463    -0.000111462675
      16        0.000103542147     0.000291773717     0.000256859214
      17        0.000069393332    -0.000229801257     0.000151705010
      18        0.000004145067    -0.000001148324    -0.000002515630
      19        0.000003844596    -0.000002669321     0.000004484385
      20        0.000002276432     0.000000987721     0.000003228775
      21        0.000001449274    -0.000001754129    -0.000002875404
      22        0.000000984090     0.000001399452     0.000002140183
      23        0.000000758716     0.000001306982    -0.000000994426
      24       -0.000000537484     0.000000149125     0.000001420772
      25       -0.000001704646    -0.000001362071     0.000000045002
      26        0.000000298960    -0.000000003939    -0.000000448263
      27        0.000000040248    -0.000000016949     0.000000682323
      28        0.000000710563     0.000000940646    -0.000000076118

  **** Optimization is complete! (in 10 steps) ****
    Final optimized geometry and variables:
    Molecular point group: c1

    Geometry (in Angstrom), charge = 0, multiplicity = 1:

    H            5.255950786157     1.562916309454    -0.056074874856
    C            4.679416311255     0.684200147038    -0.328124817960
    C            3.304063943330     0.698751497253     0.337652481155
    H            4.588292592726     0.671018845764    -1.410274817149
    H            5.251777104645    -0.191272428001    -0.033117724850
    C            2.468711602884    -0.533766895533    -0.016817032311
    H            2.769373726090     1.594262312549     0.041962752423
    H            3.428943110144     0.747194581645     1.418326797036
    C            1.089440352080    -0.555461358474     0.640764398579
    H            2.349282880646    -0.594079616636    -1.093616903377
    H            3.008289364301    -1.426817947527     0.290567565402
    C            0.077776600151     0.403967697242     0.040250963867
    H            0.653196384213    -1.552067245827     0.580746841066
    H            1.164917377905    -0.340012420317     1.705503935777
    C           -1.317341131737     0.402822469423     0.643126927524
    O            0.334958220167     1.109163589735    -0.888709083353
    C           -2.278926145347    -0.456904600058    -0.192226285435
    H           -1.668023959062     1.428978420123     0.657977888732
    H           -1.291862831192     0.039408732785     1.666462230093
    C           -3.704967412258    -0.451516289056     0.360561057583
    H           -2.279083087350    -0.085529242022    -1.212643438399
    H           -1.914564947884    -1.481800308093    -0.232947498917
    C           -4.665260244670    -1.299204708782    -0.472805865745
    H           -4.068833791763     0.572455620917     0.401860443694
    H           -3.696973305406    -0.815791929000     1.385591680151
    H           -4.719378807185    -0.938175865577    -1.495643675912
    H           -4.346090875475    -2.337077989419    -0.505048415758
    H           -5.668546728080    -1.274647494895    -0.059431691693

  Mulliken Charges: (a.u.)
   Center  Symbol    Alpha    Beta     Spin     Total
       1     H     0.41941  0.41941  0.00000  0.16118
       2     C     3.24033  3.24033  0.00000 -0.48066
       3     C     3.15611  3.15611  0.00000 -0.31222
       4     H     0.41883  0.41883  0.00000  0.16234
       5     H     0.42421  0.42421  0.00000  0.15159
       6     C     3.14888  3.14888  0.00000 -0.29776
       7     H     0.40624  0.40624  0.00000  0.18751
       8     H     0.42822  0.42822  0.00000  0.14356
       9     C     3.21319  3.21319  0.00000 -0.42639
      10     H     0.40961  0.40961  0.00000  0.18079
      11     H     0.42205  0.42205  0.00000  0.15590
      12     C     2.73495  2.73495  0.00000  0.53009
      13     H     0.40668  0.40668  0.00000  0.18664
      14     H     0.40876  0.40876  0.00000  0.18248
      15     C     3.19723  3.19723  0.00000 -0.39447
      16     O     4.26766  4.26766  0.00000 -0.53532
      17     C     3.16083  3.16083  0.00000 -0.32165
      18     H     0.40149  0.40149  0.00000  0.19701
      19     H     0.41619  0.41619  0.00000  0.16762
      20     C     3.15193  3.15193  0.00000 -0.30385
      21     H     0.40651  0.40651  0.00000  0.18697
      22     H     0.42096  0.42096  0.00000  0.15809
      23     C     3.24030  3.24030  0.00000 -0.48060
      24     H     0.41936  0.41936  0.00000  0.16127
      25     H     0.42240  0.42240  0.00000  0.15521
      26     H     0.41892  0.41892  0.00000  0.16216
      27     H     0.42122  0.42122  0.00000  0.15756
      28     H     0.41753  0.41753  0.00000  0.16493

   Total alpha = 40.00000, Total beta = 40.00000, Total charge =  0.00000
