                              Psi4 1.0.54 Driver

  ==> Input File <==

--------------------------------------------------------------------------
set {
	reference rhf
	basis cc-pvtz
}

set_num_threads( 4 )
memory 2 gb

molecule MOL {
0 1

H	 3.290544	 -0.447647	 0.039969
C	 2.233400	 -0.262387	 0.030485
C	 1.565297	 -0.145304	 -1.179168
C	 1.546935	 -0.142086	 1.222043
H	 2.105693	 -0.240007	 -2.101012
C	 0.209182	 0.092350	 -1.195775
H	 2.066336	 -0.233109	 2.156073
C	 0.184998	 0.096588	 1.203750
H	 -0.324751	 0.185920	 -2.120338
C	 -0.486398	 0.214248	 0.000000
H	 -0.355500	 0.191309	 2.127365
C	 -1.946525	 0.470130	 0.000000
O	 -2.779618	 -0.371226	 0.000000
H	 -2.227127	 1.528393	 0.000000

	symmetry c1
}
set optking {
	frozen_dihedral = ("
		8 10 12 14
	")
}

ee,wfn = optimize('scf', return_wfn=True)
oeprop( wfn, 'DIPOLE', 'QUADRUPOLE', 'MULLIKEN_CHARGES')
f=open( 'psi4out.xyz', 'w' )
f.write( "14  " )
f.write( str(ee) + "\n" )
f.write( MOL.save_string_xyz() )
f.close()
--------------------------------------------------------------------------

    Molecular point group: c1
  Charge       = 0
  Multiplicity = 1
  Basis Set: CC-PVTZ
  Basis Set:
  @DF-RHF Final Energy:  -343.53662870242363
    Total Energy =                       -343.5366287024235135
    Molecular point group: c1
  Basis Set: CC-PVTZ
  Basis Set:
  Basis Set: CC-PVTZ
  Basis Set:
  @DF-RHF Final Energy:  -343.53701473979038
    Total Energy =                       -343.5370147397905498
  Basis Set: CC-PVTZ
  Basis Set:
  Basis Set: CC-PVTZ
  Basis Set:
  @DF-RHF Final Energy:  -343.53702986741314
    Total Energy =                       -343.5370298674129117
  Basis Set: CC-PVTZ
  Basis Set:
  Basis Set: CC-PVTZ
  Basis Set:
  @DF-RHF Final Energy:  -343.53699414647565
    Total Energy =                       -343.5369941464758199
  Basis Set: CC-PVTZ
  Basis Set:
  Basis Set: CC-PVTZ
  Basis Set:
  @DF-RHF Final Energy:  -343.53703425276944
    Total Energy =                       -343.5370342527694447
  Basis Set: CC-PVTZ
  Basis Set:
  Charge       = 0
  Multiplicity = 1
  Basis Set: CC-PVTZ
  Basis Set:

    Orbital Energies (a.u.)
    -----------------------

    Doubly Occupied:

       1A    -20.564375     2A    -11.333185     3A    -11.251466
       4A    -11.245341     5A    -11.245199     6A    -11.242660
       7A    -11.242252     8A    -11.240314     9A     -1.418533
      10A     -1.174643    11A     -1.049010    12A     -1.033169
      13A     -0.890168    14A     -0.844828    15A     -0.798491
      16A     -0.725552    17A     -0.681288    18A     -0.656801
      19A     -0.647029    20A     -0.620618    21A     -0.603913
      22A     -0.539572    23A     -0.532411    24A     -0.518748
      25A     -0.505766    26A     -0.426187    27A     -0.352121
      28A     -0.351204

  @DF-RHF Final Energy:  -343.53703463688345

   => Energetics <=

    Nuclear Repulsion Energy =            323.0520553277241902
    One-Electron Energy =               -1105.7084908829126562
    Two-Electron Energy =                 439.1194009183053595
    DFT Exchange-Correlation Energy =       0.0000000000000000
    Empirical Dispersion Energy =           0.0000000000000000
    PCM Polarization Energy =               0.0000000000000000
    EFP Energy =                            0.0000000000000000
    Total Energy =                       -343.5370346368830496
    Molecular point group: c1
  Basis Set: CC-PVTZ
  Basis Set:

  -Total Gradient:
     Atom            X                  Y                   Z
    ------   -----------------  -----------------  -----------------
       1       -0.000002694384    -0.000000433434    -0.000005982986
       2        0.000006558777     0.000022566539     0.000091859177
       3       -0.000058752962    -0.000014503773    -0.000042353126
       4        0.000090794738    -0.000028996790    -0.000057879241
       5        0.000001006423     0.000004481794    -0.000000491596
       6        0.000022096842    -0.000003518405    -0.000036646161
       7       -0.000010268970     0.000005147815     0.000008830593
       8       -0.000088648814     0.000118813077    -0.000055284756
       9        0.000012549478     0.000003298831     0.000003320177
      10        0.000006451808    -0.000172642085     0.000134563674
      11        0.000014360614     0.000004540106     0.000003137839
      12        0.000016139142     0.000115728891    -0.000145430388
      13       -0.000012080070    -0.000023712509    -0.000017969357
      14        0.000002487380    -0.000030770057     0.000120326153

  **** Optimization is complete! (in 6 steps) ****
    Final optimized geometry and variables:
    Molecular point group: c1

    Geometry (in Angstrom), charge = 0, multiplicity = 1:

    H            3.300556447259    -0.438818632677     0.023855164776
    C            2.243734502783    -0.253471481016     0.015841233672
    C            1.570760020564    -0.135671319017    -1.185544347824
    C            1.552878569481    -0.133723556305     1.206536452339
    H            2.103218529560    -0.231163160516    -2.112218459846
    C            0.209837936985     0.102731885669    -1.197490591782
    H            2.071193129660    -0.227537547930     2.141368605667
    C            0.191584647287     0.104159840471     1.197669264223
    H           -0.310660305194     0.189267940588    -2.132666407591
    C           -0.482877772092     0.218003750254    -0.005032379510
    H           -0.343041735733     0.191442307600     2.124742071328
    C           -1.958778009959     0.487415552178    -0.016478400707
    O           -2.784218910188    -0.356852580623    -0.012729721371
    H           -2.249376240024     1.543267514891    -0.027621553336

  Mulliken Charges: (a.u.)
   Center  Symbol    Alpha    Beta     Spin     Total
       1     H     0.42091  0.42091  0.00000  0.15819
       2     C     3.08473  3.08473  0.00000 -0.16946
       3     C     3.06321  3.06321  0.00000 -0.12642
       4     C     3.06318  3.06318  0.00000 -0.12636
       5     H     0.42100  0.42100  0.00000  0.15800
       6     C     3.09886  3.09886  0.00000 -0.19771
       7     H     0.42101  0.42101  0.00000  0.15798
       8     C     3.09888  3.09888  0.00000 -0.19776
       9     H     0.42289  0.42289  0.00000  0.15422
      10     C     2.93623  2.93623  0.00000  0.12755
      11     H     0.42275  0.42275  0.00000  0.15450
      12     C     2.93328  2.93328  0.00000  0.13343
      13     O     4.15482  4.15482  0.00000 -0.30965
      14     H     0.45825  0.45825  0.00000  0.08349

   Total alpha = 28.00000, Total beta = 28.00000, Total charge =  0.00000

*** Psi4 exiting successfully. Buy a developer a beer!
