  ==> Input File <==

--------------------------------------------------------------------------
set {
	reference rhf
	basis 6-31G*
}

set_num_threads( 1 )
memory 2 gb

molecule MOL {
0 1

H	 2.591676	 2.013956	 0.335017
O	 3.341076	 1.666752	 -0.126416
C	 3.569581	 0.339145	 0.272707
C	 2.539767	 -0.640285	 -0.279495
H	 4.553106	 0.084646	 -0.100901
H	 3.608576	 0.269204	 1.359154
C	 1.577429	 -0.023373	 -1.297431
H	 3.066912	 -1.474688	 -0.734749
H	 1.971618	 -1.042642	 0.557573
C	 0.522731	 -1.017332	 -1.791876
H	 2.145720	 0.353348	 -2.143298
H	 1.076865	 0.834730	 -0.848617
C	 -0.519287	 -0.427415	 -2.749235
H	 1.020218	 -1.856721	 -2.274349
H	 0.003392	 -1.428707	 -0.928882
C	 0.032364	 0.021029	 -4.105353
H	 -1.290013	 -1.176386	 -2.919056
H	 -1.016211	 0.412617	 -2.266275
C	 -1.059289	 0.503473	 -5.062943
H	 0.571951	 -0.805998	 -4.564682
H	 0.757591	 0.819602	 -3.968860
C	 -0.510651	 0.957726	 -6.415096
H	 -1.781687	 -0.295230	 -5.216901
H	 -1.605837	 1.323477	 -4.601679
H	 0.014061	 0.149535	 -6.916821
H	 -1.308242	 1.291656	 -7.071582
H	 0.187974	 1.781550	 -6.298477

	symmetry c1
}
set optking {
	frozen_dihedral = ("
		14 10 7 4,
		14 10 13 16,
		10 7 4 8,
		10 13 16 20,
		20 16 19 22,
		4 3 2 1
	")
}

ee = energy('scf')
oeprop('DIPOLE', 'QUADRUPOLE', 'MULLIKEN_CHARGES')
f=open( 'psi4out.xyz', 'w' )
f.write( "27  " )
f.write( str(ee) + "\n" )
f.write( MOL.save_string_xyz() )
f.close()
--------------------------------------------------------------------------

    Molecular point group: c1

    Geometry (in Angstrom), charge = 0, multiplicity = 1:

       Center              X                  Y                   Z               Mass
    ------------   -----------------  -----------------  -----------------  -----------------
           H          1.500864203353     1.825852959409     2.702931652108     1.007825032070
           O          2.250264203353     1.478648959409     2.241498652108    15.994914619560
           C          2.478769203353     0.151041959409     2.640621652108    12.000000000000
           C          1.448955203353    -0.828388040591     2.088419652108    12.000000000000
           H          3.462294203353    -0.103457040591     2.267013652108     1.007825032070
           H          2.517764203353     0.081100959409     3.727068652108     1.007825032070
           C          0.486617203353    -0.211476040591     1.070483652108    12.000000000000
           H          1.976100203353    -1.662791040591     1.633165652108     1.007825032070
           H          0.880806203353    -1.230745040591     2.925487652108     1.007825032070
           C         -0.568080796647    -1.205435040591     0.576038652108    12.000000000000
           H          1.054908203353     0.165244959409     0.224616652108     1.007825032070
           H         -0.013946796647     0.646626959409     1.519297652108     1.007825032070
           C         -1.610098796647    -0.615518040591    -0.381320347892    12.000000000000
           H         -0.070593796647    -2.044824040591     0.093565652108     1.007825032070
           H         -1.087419796647    -1.616810040591     1.439032652108     1.007825032070
           C         -1.058447796647    -0.167074040591    -1.737438347892    12.000000000000
           H         -2.380824796647    -1.364489040591    -0.551141347892     1.007825032070
           H         -2.107022796647     0.224513959409     0.101639652108     1.007825032070
           C         -2.150100796647     0.315369959409    -2.695028347892    12.000000000000
           H         -0.518860796647    -0.994101040591    -2.196767347892     1.007825032070
           H         -0.333220796647     0.631498959409    -1.600945347892     1.007825032070
           C         -1.601462796647     0.769622959409    -4.047181347892    12.000000000000
           H         -2.872498796647    -0.483333040591    -2.848986347892     1.007825032070
           H         -2.696648796647     1.135373959409    -2.233764347892     1.007825032070
           H         -1.076750796647    -0.038568040591    -4.548906347892     1.007825032070
           H         -2.399053796647     1.103552959409    -4.703667347892     1.007825032070
           H         -0.902837796647     1.593446959409    -3.930562347892     1.007825032070

  Charge       = 0
  Multiplicity = 1
  Basis Set: 6-31G*
  Basis Set:

    Orbital Energies (a.u.)
    -----------------------

    Doubly Occupied:

       1A    -20.552280     2A    -11.266376     3A    -11.213544
       4A    -11.212667     5A    -11.212601     6A    -11.212077
       7A    -11.211536     8A    -11.209841     9A    -11.206185
      10A     -1.360290    11A     -1.090321    12A     -1.057186
      13A     -1.008777    14A     -0.946433    15A     -0.885615
      16A     -0.817440    17A     -0.797039    18A     -0.772502
      19A     -0.690874    20A     -0.643624    21A     -0.640136
      22A     -0.614750    23A     -0.603097    24A     -0.584772
      25A     -0.570407    26A     -0.555720    27A     -0.540470
      28A     -0.521804    29A     -0.499721    30A     -0.496456
      31A     -0.477235    32A     -0.467746    33A     -0.460541
      34A     -0.456154    35A     -0.446683    36A     -0.439175
      37A     -0.424117

  @DF-RHF Final Energy:  -388.27315921110340

   => Energetics <=

    Nuclear Repulsion Energy =            462.1597935603146539
    One-Electron Energy =               -1442.5337018173574961
    Two-Electron Energy =                 592.1007490459384144
    DFT Exchange-Correlation Energy =       0.0000000000000000
    Empirical Dispersion Energy =           0.0000000000000000
    PCM Polarization Energy =               0.0000000000000000
    EFP Energy =                            0.0000000000000000
    Total Energy =                       -388.2731592111043710

  Mulliken Charges: (a.u.)
   Center  Symbol    Alpha    Beta     Spin     Total
       1     H     0.28164  0.28164  0.00000  0.43672
       2     O     4.36860  4.36860  0.00000 -0.73720
       3     C     2.99388  2.99388  0.00000  0.01224
       4     C     3.18256  3.18256  0.00000 -0.36513
       5     H     0.41494  0.41494  0.00000  0.17012
       6     H     0.42840  0.42840  0.00000  0.14319
       7     C     3.14339  3.14339  0.00000 -0.28679
       8     H     0.41770  0.41770  0.00000  0.16460
       9     H     0.42324  0.42324  0.00000  0.15352
      10     C     3.15376  3.15376  0.00000 -0.30751
      11     H     0.41125  0.41125  0.00000  0.17749
      12     H     0.43308  0.43308  0.00000  0.13384
      13     C     3.15263  3.15263  0.00000 -0.30526
      14     H     0.42428  0.42428  0.00000  0.15143
      15     H     0.42425  0.42425  0.00000  0.15150
      16     C     3.15326  3.15326  0.00000 -0.30652
      17     H     0.42243  0.42243  0.00000  0.15514
      18     H     0.42498  0.42498  0.00000  0.15003
      19     C     3.15102  3.15102  0.00000 -0.30205
      20     H     0.42489  0.42489  0.00000  0.15022
      21     H     0.42008  0.42008  0.00000  0.15985
      22     C     3.23915  3.23915  0.00000 -0.47830
      23     H     0.42376  0.42376  0.00000  0.15248
      24     H     0.42349  0.42349  0.00000  0.15303
      25     H     0.42205  0.42205  0.00000  0.15590
      26     H     0.41992  0.41992  0.00000  0.16015
      27     H     0.42136  0.42136  0.00000  0.15728

   Total alpha = 37.00000, Total beta = 37.00000, Total charge =  0.00000
