  ==> Input File <==

--------------------------------------------------------------------------
set {
	reference rhf
	basis 6-31G*
}

set_num_threads( 4 )
memory 2 gb

molecule MOL {
0 1

O	 2.862325	 1.357334	 0.000267
C	 2.843464	 0.164689	 -0.000222
C	 1.546494	 -0.624492	 -0.000609
C	 4.124123	 -0.644674	 -0.000428
C	 0.291004	 0.242674	 0.000989
H	 1.557904	 -1.283758	 -0.867573
H	 1.558622	 -1.285963	 0.864672
C	 -0.992282	 -0.583832	 0.100127
H	 0.273493	 0.844921	 -0.901852
H	 0.343703	 0.943439	 0.828212
C	 -2.257870	 0.275246	 0.101234
H	 -1.036995	 -1.286793	 -0.730471
H	 -0.967394	 -1.186557	 1.006863
C	 -3.545753	 -0.544276	 0.200009
H	 -2.284156	 0.877674	 -0.805083
H	 -2.214670	 0.977767	 0.931653
C	 -4.805615	 0.320844	 0.200305
H	 -3.590640	 -1.246068	 -0.630230
H	 -3.521318	 -1.145762	 1.106362
H	 -4.876738	 0.909986	 -0.709642
H	 -5.701576	 -0.288258	 0.270656
H	 -4.807502	 1.010207	 1.039900
H	 4.165367	 -1.288615	 -0.874074
H	 4.976217	 0.020734	 -0.001915
H	 4.166763	 -1.286207	 0.874930

	symmetry c1
}
set optking {
	frozen_dihedral = ("
		9 5 3 6
	")
}

ee = optimize('scf')
oeprop('DIPOLE', 'QUADRUPOLE', 'MULLIKEN_CHARGES')
f=open( 'psi4out.xyz', 'w' )
f.write( "25  " )
f.write( str(ee) + "\n" )
f.write( MOL.save_string_xyz() )
f.close()
--------------------------------------------------------------------------

    Molecular point group: c1
  Charge       = 0
  Multiplicity = 1
  Basis Set: 6-31G*
  Basis Set:
  @DF-RHF Final Energy:  -387.13648515397449
    Total Energy =                       -387.1364851539740357
    Molecular point group: c1
  Basis Set: 6-31G*
  Basis Set:
  Basis Set: 6-31G*
  Basis Set:
  @DF-RHF Final Energy:  -387.13649015814605
    Total Energy =                       -387.1364901581455342
  Basis Set: 6-31G*
  Basis Set:
  Charge       = 0
  Multiplicity = 1
  Basis Set: 6-31G*
  Basis Set:

    Orbital Energies (a.u.)
    -----------------------

    Doubly Occupied:

       1A    -20.550432     2A    -11.326249     3A    -11.231950
       4A    -11.228337     5A    -11.217100     6A    -11.216506
       7A    -11.215370     8A    -11.213504     9A    -11.208312
      10A     -1.395733    11A     -1.093619    12A     -1.056326
      13A     -1.014506    14A     -0.969222    15A     -0.890728
      16A     -0.814031    17A     -0.790765    18A     -0.729746
      19A     -0.661822    20A     -0.651717    21A     -0.632007
      22A     -0.624095    23A     -0.595999    24A     -0.584262
      25A     -0.566293    26A     -0.560026    27A     -0.540096
      28A     -0.526165    29A     -0.512887    30A     -0.489768
      31A     -0.487798    32A     -0.473446    33A     -0.463701
      34A     -0.462352    35A     -0.450690    36A     -0.399296

  @DF-RHF Final Energy:  -387.13649083643304

   => Energetics <=

    Nuclear Repulsion Energy =            438.3459832519129122
    One-Electron Energy =               -1393.2752366040560901
    Two-Electron Energy =                 567.7927625157102511
    DFT Exchange-Correlation Energy =       0.0000000000000000
    Empirical Dispersion Energy =           0.0000000000000000
    PCM Polarization Energy =               0.0000000000000000
    EFP Energy =                            0.0000000000000000
    Total Energy =                       -387.1364908364329267
    Molecular point group: c1
  Basis Set: 6-31G*
  Basis Set:

  -Total Gradient:
     Atom            X                  Y                   Z
    ------   -----------------  -----------------  -----------------
       1        0.000005798191     0.000009335023    -0.000287625164
       2       -0.000024649897    -0.000063517306     0.000851215864
       3       -0.000577381703    -0.000806723151     0.000163323732
       4       -0.000006757135     0.000009293345    -0.000320413072
       5        0.000568163529     0.000849140603     0.000584983983
       6        0.000351004834     0.000536357737    -0.000401246185
       7        0.000082228975     0.000015071789     0.000074338321
       8        0.000042472446     0.000035676794    -0.000203747917
       9       -0.000427613457    -0.000564358660    -0.000454666813
      10       -0.000005314624    -0.000015735474    -0.000023935139
      11       -0.000006667664     0.000001526194     0.000037427202
      12       -0.000056107516    -0.000025171143    -0.000021707561
      13        0.000054735600     0.000020615292    -0.000027894145
      14        0.000000387912     0.000000983389     0.000025179240
      15       -0.000004186179    -0.000018094019     0.000005405484
      16        0.000008985600     0.000012587340     0.000000820826
      17       -0.000001434220    -0.000000305639    -0.000005136491
      18        0.000004802220    -0.000002226057     0.000002327331
      19       -0.000004746980     0.000002632595     0.000002600361
      20       -0.000001117117     0.000003644267    -0.000000840684
      21        0.000001103031     0.000000739450    -0.000004039780
      22        0.000000899577    -0.000004735893    -0.000001296720
      23        0.000041000681    -0.000031380996     0.000004297542
      24       -0.000000634424    -0.000001437184    -0.000004591391
      25       -0.000044971685     0.000036081706     0.000005221175

  **** Optimization is complete! (in 3 steps) ****
    Final optimized geometry and variables:
    Molecular point group: c1

    Geometry (in Angstrom), charge = 0, multiplicity = 1:

    O            2.861613588022     1.355200169027    -0.077101327607
    C            2.842131522003     0.162602825769    -0.067777037539
    C            1.544830374042    -0.626458625574    -0.056104312184
    C            4.122463493510    -0.647280932125    -0.076063217917
    C            0.290228693313     0.242215044477    -0.053359389252
    H            1.553814284564    -1.285042637133    -0.923543543398
    H            1.562239438062    -1.284958439311     0.811264651120
    C           -0.993568713016    -0.585153770959     0.035139321727
    H            0.273524660866     0.844492472892    -0.956552227956
    H            0.339399568664     0.939457079363     0.776449927871
    C           -2.259335284580     0.273680597581     0.035377528037
    H           -1.034913014845    -1.284304546376    -0.798928192145
    H           -0.972233743552    -1.192080897559     0.939109129247
    C           -3.547265346837    -0.546189003932     0.130637412896
    H           -2.284249179258     0.877441747278    -0.870084158894
    H           -2.217612513473     0.974996102309     0.866898242000
    C           -4.807365605763     0.318578361119     0.127396215009
    H           -3.589659022558    -1.248072546986    -0.699677937560
    H           -3.525173049475    -1.147590754376     1.037087576111
    H           -4.876330477957     0.907397899317    -0.782925254541
    H           -5.703318516281    -0.290754464455     0.195642452139
    H           -4.811592000911     1.008208534096     0.966750780196
    H            4.155620213013    -1.295013312760    -0.947248660415
    H            4.974752274637     0.017752157970    -0.088173586184
    H            4.172803266296    -1.285058203679     0.801637390665

  Mulliken Charges: (a.u.)
   Center  Symbol    Alpha    Beta     Spin     Total
       1     O     4.26114  4.26114  0.00000 -0.52227
       2     C     2.73589  2.73589  0.00000  0.52821
       3     C     3.21072  3.21072  0.00000 -0.42145
       4     C     3.28662  3.28662  0.00000 -0.57323
       5     C     3.14796  3.14796  0.00000 -0.29592
       6     H     0.40987  0.40987  0.00000  0.18027
       7     H     0.41005  0.41005  0.00000  0.17990
       8     C     3.15397  3.15397  0.00000 -0.30795
       9     H     0.41322  0.41322  0.00000  0.17357
      10     H     0.41097  0.41097  0.00000  0.17805
      11     C     3.15072  3.15072  0.00000 -0.30144
      12     H     0.42495  0.42495  0.00000  0.15011
      13     H     0.42487  0.42487  0.00000  0.15025
      14     C     3.15150  3.15150  0.00000 -0.30299
      15     H     0.42258  0.42258  0.00000  0.15484
      16     H     0.42236  0.42236  0.00000  0.15529
      17     C     3.23933  3.23933  0.00000 -0.47866
      18     H     0.42357  0.42357  0.00000  0.15285
      19     H     0.42350  0.42350  0.00000  0.15299
      20     H     0.42140  0.42140  0.00000  0.15720
      21     H     0.41953  0.41953  0.00000  0.16093
      22     H     0.42134  0.42134  0.00000  0.15733
      23     H     0.40869  0.40869  0.00000  0.18262
      24     H     0.39646  0.39646  0.00000  0.20709
      25     H     0.40879  0.40879  0.00000  0.18242

   Total alpha = 36.00000, Total beta = 36.00000, Total charge = -0.00000
