  ==> Input File <==

--------------------------------------------------------------------------
set {
	reference rhf
	basis 6-31G*
}

set_num_threads( 1 )
memory 2 gb

molecule MOL {
0 1

H	 3.276176	 0.174363	 -0.109463
N	 2.434251	 -0.367735	 -0.081097
C	 1.267428	 0.496480	 0.024474
H	 2.501951	 -0.965776	 0.720575
C	 -0.016086	 -0.325158	 -0.029487
H	 1.288818	 1.183521	 -0.816092
H	 1.267576	 1.109062	 0.929528
C	 -1.282277	 0.529072	 0.046735
H	 -0.012495	 -0.908639	 -0.945788
H	 -0.015903	 -1.041248	 0.791956
C	 -0.988784	 2.003955	 0.319290
H	 -1.931805	 0.141584	 0.829009
H	 -1.838754	 0.439236	 -0.883974
H	 -0.463282	 2.130703	 1.261364
H	 -1.904539	 2.584762	 0.370052
H	 -0.368906	 2.431280	 -0.463887

	symmetry c1
}
set optking {
	frozen_dihedral = ("
		6 3 5 9,
		1 2 3 6
	")
}

ee = energy('scf')
oeprop('DIPOLE', 'QUADRUPOLE', 'MULLIKEN_CHARGES')
f=open( 'psi4out.xyz', 'w' )
f.write( "16  " )
f.write( str(ee) + "\n" )
f.write( MOL.save_string_xyz() )
f.close()
--------------------------------------------------------------------------

    Molecular point group: c1

    Geometry (in Angstrom), charge = 0, multiplicity = 1:

       Center              X                  Y                   Z               Mass
    ------------   -----------------  -----------------  -----------------  -----------------
           H          2.952416836507    -0.299559232019    -0.176408483296     1.007825032070
           N          2.110491836507    -0.841657232019    -0.148042483296    14.003074004780
           C          0.943668836507     0.022557767981    -0.042471483296    12.000000000000
           H          2.178191836507    -1.439698232019     0.653629516704     1.007825032070
           C         -0.339845163493    -0.799080232019    -0.096432483296    12.000000000000
           H          0.965058836507     0.709598767981    -0.883037483296     1.007825032070
           H          0.943816836507     0.635139767981     0.862582516704     1.007825032070
           C         -1.606036163493     0.055149767981    -0.020210483296    12.000000000000
           H         -0.336254163493    -1.382561232019    -1.012733483296     1.007825032070
           H         -0.339662163493    -1.515170232019     0.725010516704     1.007825032070
           C         -1.312543163493     1.530032767981     0.252344516704    12.000000000000
           H         -2.255564163493    -0.332338232019     0.762063516704     1.007825032070
           H         -2.162513163493    -0.034686232019    -0.950919483296     1.007825032070
           H         -0.787041163493     1.656780767981     1.194418516704     1.007825032070
           H         -2.228298163493     2.110839767981     0.303106516704     1.007825032070
           H         -0.692665163493     1.957357767981    -0.530832483296     1.007825032070

  Charge       = 0
  Multiplicity = 1
  Basis Set: 6-31G*
  Basis Set:

    Orbital Energies (a.u.)
    -----------------------

    Doubly Occupied:

       1A    -15.531045     2A    -11.237964     3A    -11.213570
       4A    -11.208012     5A    -11.207562     6A     -1.175798
       7A     -1.062440     8A     -0.948828     9A     -0.869323
      10A     -0.769032    11A     -0.662129    12A     -0.641373
      13A     -0.620870    14A     -0.571772    15A     -0.541988
      16A     -0.535051    17A     -0.520980    18A     -0.468743
      19A     -0.462777    20A     -0.446467    21A     -0.378269

  @DF-RHF Final Energy:  -212.30286256097202

   => Energetics <=

    Nuclear Repulsion Energy =            191.4862049168846170
    One-Electron Energy =                -665.4300215718195659
    Two-Electron Energy =                 261.6409540939629323
    DFT Exchange-Correlation Energy =       0.0000000000000000
    Empirical Dispersion Energy =           0.0000000000000000
    PCM Polarization Energy =               0.0000000000000000
    EFP Energy =                            0.0000000000000000
    Total Energy =                       -212.3028625609720166

  Mulliken Charges: (a.u.)
   Center  Symbol    Alpha    Beta     Spin     Total
       1     H     0.33294  0.33294  0.00000  0.33411
       2     N     3.92256  3.92256  0.00000 -0.84511
       3     C     3.06419  3.06419  0.00000 -0.12838
       4     H     0.33588  0.33588  0.00000  0.32824
       5     C     3.15512  3.15512  0.00000 -0.31025
       6     H     0.41972  0.41972  0.00000  0.16057
       7     H     0.43177  0.43177  0.00000  0.13646
       8     C     3.15664  3.15664  0.00000 -0.31328
       9     H     0.41041  0.41041  0.00000  0.17918
      10     H     0.42551  0.42551  0.00000  0.14898
      11     C     3.24861  3.24861  0.00000 -0.49722
      12     H     0.42013  0.42013  0.00000  0.15975
      13     H     0.41893  0.41893  0.00000  0.16215
      14     H     0.42045  0.42045  0.00000  0.15910
      15     H     0.41730  0.41730  0.00000  0.16541
      16     H     0.41985  0.41985  0.00000  0.16031

   Total alpha = 21.00000, Total beta = 21.00000, Total charge =  0.00000
