  ==> Input File <==

--------------------------------------------------------------------------
set {
	reference rhf
	basis cc-pvtz
}

set_num_threads( 4 )
memory 2 gb

molecule MOL {
0 1

H	 2.333246	 -2.035921	 -0.323104
N	 1.352322	 -1.860787	 -0.328286
C	 1.020849	 -0.832636	 -1.294140
C	 0.887053	 -1.514161	 0.999576
H	 1.361507	 -1.144161	 -2.274066
H	 1.495465	 0.122536	 -1.061750
C	 -0.483625	 -0.632843	 -1.320894
H	 1.130759	 -2.319534	 1.681729
H	 1.353215	 -0.602047	 1.376884
C	 -0.617246	 -1.313475	 0.969816
H	 -0.956151	 -1.541712	 -1.704646
H	 -0.728907	 0.175954	 -1.998982
N	 -0.976577	 -0.298712	 -0.000000
H	 -0.959144	 -0.996817	 1.948056
H	 -1.098978	 -2.269234	 0.743874
C	 -2.391156	 -0.021003	 -0.000000
H	 -2.853954	 -0.458728	 -0.875714
H	 -2.853954	 -0.458728	 0.875714
H	 -2.614037	 1.049773	 -0.000000

	symmetry c1
}
set optking {
	frozen_dihedral = ("
		7 13 16 19
	")
}

ee = optimize('scf')
oeprop('DIPOLE', 'QUADRUPOLE', 'MULLIKEN_CHARGES')
f=open( 'psi4out.xyz', 'w' )
f.write( "19  " )
f.write( str(ee) + "\n" )
f.write( MOL.save_string_xyz() )
f.close()
--------------------------------------------------------------------------

    Molecular point group: c1
  Charge       = 0
  Multiplicity = 1
  Basis Set: CC-PVTZ
  Basis Set:
  @DF-RHF Final Energy:  -305.30336889325793
    Total Energy =                       -305.3033688932577547
    Molecular point group: c1
  Basis Set: CC-PVTZ
  Basis Set:
  Basis Set: CC-PVTZ
  Basis Set:
  @DF-RHF Final Energy:  -305.30397288742415
    Total Energy =                       -305.3039728874244929
  Basis Set: CC-PVTZ
  Basis Set:
  Basis Set: CC-PVTZ
  Basis Set:
  @DF-RHF Final Energy:  -305.30407602138882
    Total Energy =                       -305.3040760213888234
  Basis Set: CC-PVTZ
  Basis Set:
  Basis Set: CC-PVTZ
  Basis Set:
  @DF-RHF Final Energy:  -305.30407895323214
    Total Energy =                       -305.3040789532316808
  Basis Set: CC-PVTZ
  Basis Set:
  Charge       = 0
  Multiplicity = 1
  Basis Set: CC-PVTZ
  Basis Set:

    Orbital Energies (a.u.)
    -----------------------

    Doubly Occupied:

       1A    -15.534936     2A    -15.530693     3A    -11.236628
       4A    -11.236610     5A    -11.235677     6A    -11.235597
       7A    -11.232798     8A     -1.246898     9A     -1.185797
      10A     -1.023283    11A     -0.964989    12A     -0.860915
      13A     -0.859003    14A     -0.757664    15A     -0.692087
      16A     -0.632338    17A     -0.624378    18A     -0.608281
      19A     -0.604467    20A     -0.581357    21A     -0.543394
      22A     -0.535416    23A     -0.511656    24A     -0.488722
      25A     -0.466167    26A     -0.457112    27A     -0.365440
      28A     -0.345517

  @DF-RHF Final Energy:  -305.30407926886744

   => Energetics <=

    Nuclear Repulsion Energy =            339.9008975743773817
    One-Electron Energy =               -1087.2143169372445755
    Two-Electron Energy =                 442.0093400939997537
    DFT Exchange-Correlation Energy =       0.0000000000000000
    Empirical Dispersion Energy =           0.0000000000000000
    PCM Polarization Energy =               0.0000000000000000
    EFP Energy =                            0.0000000000000000
    Total Energy =                       -305.3040792688674401
    Molecular point group: c1
  Basis Set: CC-PVTZ
  Basis Set:

  -Total Gradient:
     Atom            X                  Y                   Z
    ------   -----------------  -----------------  -----------------
       1       -0.000002569886     0.000000073845     0.000004191839
       2       -0.000010893214    -0.000001309083    -0.000000514846
       3        0.000017178840    -0.000008079833    -0.000018919883
       4        0.000024185625    -0.000000138610     0.000010762688
       5        0.000004280193    -0.000001523867    -0.000000195724
       6       -0.000004410798     0.000001401746    -0.000001220673
       7       -0.000632115443    -0.002939519422     0.000566082199
       8        0.000001667453    -0.000001176842    -0.000000502034
       9       -0.000001063977     0.000001128525     0.000002079906
      10       -0.000019236549     0.000048348070    -0.000027878199
      11       -0.000005228041    -0.000005499695    -0.000002891840
      12        0.000001027383    -0.000004299294    -0.000007001764
      13        0.000825338208     0.004043610982     0.000362332458
      14        0.000001570418    -0.000005517069    -0.000001145727
      15       -0.000004971340    -0.000004966559    -0.000000792444
      16       -0.000164179185    -0.001069002022    -0.004986315991
      17        0.000002069371    -0.000011545339     0.000003893819
      18       -0.000008715734    -0.000015236159     0.000006634349
      19       -0.000023933325    -0.000026749370     0.004091401866

  **** Optimization is complete! (in 5 steps) ****
    Final optimized geometry and variables:
    Molecular point group: c1

    Geometry (in Angstrom), charge = 0, multiplicity = 1:

    H            2.529418844624    -1.090000399910    -0.176918126446
    N            1.546335687609    -0.927119419115    -0.186627129623
    C            1.205824003597     0.098109663229    -1.151975292851
    C            1.070038368605    -0.588749774122     1.139158640971
    H            1.549167506351    -0.209721864566    -2.132330440550
    H            1.671034342429     1.057948405381    -0.919478124496
    C           -0.300395326063     0.282798400515    -1.178295254112
    H            1.319175272464    -1.392738244987     1.821260972214
    H            1.523734683499     0.328010859596     1.520807568760
    C           -0.436457879873    -0.403518270367     1.105135414697
    H           -0.764691011198    -0.631531953024    -1.558035241268
    H           -0.551907036249     1.085911119886    -1.861629998449
    N           -0.800572079193     0.617335315798     0.140588519285
    H           -0.778859732204    -0.095722420949     2.085442780770
    H           -0.906500967637    -1.363881458003     0.874558011185
    C           -2.221783080377     0.915919089178     0.131861323778
    H           -2.735282206929     0.478161980487    -0.720995295958
    H           -2.694116878168     0.524693572701     1.024734697276
    H           -2.393401584676     1.986786114267     0.135916935316

  Mulliken Charges: (a.u.)
   Center  Symbol    Alpha    Beta     Spin     Total
       1     H     0.44001  0.44001  0.00000  0.11998
       2     N     3.64285  3.64285  0.00000 -0.28571
       3     C     3.04174  3.04174  0.00000 -0.08347
       4     C     3.04202  3.04202  0.00000 -0.08404
       5     H     0.45270  0.45270  0.00000  0.09460
       6     H     0.46570  0.46570  0.00000  0.06861
       7     C     3.03581  3.03581  0.00000 -0.07162
       8     H     0.45266  0.45266  0.00000  0.09468
       9     H     0.46584  0.46584  0.00000  0.06831
      10     C     3.03380  3.03380  0.00000 -0.06760
      11     H     0.46807  0.46807  0.00000  0.06387
      12     H     0.45345  0.45345  0.00000  0.09309
      13     N     3.61757  3.61757  0.00000 -0.23513
      14     H     0.45395  0.45395  0.00000  0.09209
      15     H     0.46867  0.46867  0.00000  0.06266
      16     C     3.09303  3.09303  0.00000 -0.18606
      17     H     0.46388  0.46388  0.00000  0.07225
      18     H     0.45831  0.45831  0.00000  0.08338
      19     H     0.44994  0.44994  0.00000  0.10012

   Total alpha = 28.00000, Total beta = 28.00000, Total charge = -0.00000
