                              Psi4 1.0.54 Driver

  ==> Input File <==

--------------------------------------------------------------------------
set {
	reference rhf
	basis cc-pvtz
}

set_num_threads( 4 )
memory 2 gb

molecule MOL {
0 1

H	 -3.970341	 0.180137	 -1.256644
C	 -3.286132	 -0.458800	 -0.737100
C	 -2.105997	 -0.000418	 -0.398703
H	 -3.587853	 -1.461275	 -0.505136
O	 -1.189946	 -0.765863	 0.237511
H	 -1.796519	 1.005049	 -0.618671
C	 0.026572	 -0.995256	 -0.379403
C	 1.057223	 0.049888	 -0.004615
H	 -0.054361	 -1.010670	 -1.459674
H	 0.397526	 -1.952058	 -0.044198
F	 2.203233	 -0.234060	 -0.590375
F	 0.698147	 1.254887	 -0.392621
F	 1.266440	 0.094219	 1.288722

	symmetry c1
}
set optking {
	frozen_dihedral = ("
		6 3 5 7
	")
}

ee,wfn = optimize('scf', return_wfn=True)
oeprop( wfn, 'DIPOLE', 'QUADRUPOLE', 'MULLIKEN_CHARGES')
f=open( 'psi4out.xyz', 'w' )
f.write( "13  " )
f.write( str(ee) + "\n" )
f.write( MOL.save_string_xyz() )
f.close()
--------------------------------------------------------------------------

    Molecular point group: c1
  Charge       = 0
  Multiplicity = 1
  Basis Set: CC-PVTZ
  Basis Set:
  @DF-RHF Final Energy:  -527.73941415889544
    Total Energy =                       -527.7394141588955563
    Molecular point group: c1
  Basis Set: CC-PVTZ
  Basis Set:
  Basis Set: CC-PVTZ
  Basis Set:
  @DF-RHF Final Energy:  -527.73968610842860
    Total Energy =                       -527.7396861084288275
  Basis Set: CC-PVTZ
  Basis Set:
  Basis Set: CC-PVTZ
  Basis Set:
  @DF-RHF Final Energy:  -527.74003335245152
    Total Energy =                       -527.7400333524515190
  Basis Set: CC-PVTZ
  Basis Set:
  Basis Set: CC-PVTZ
  Basis Set:
  @DF-RHF Final Energy:  -527.74005441617328
    Total Energy =                       -527.7400544161732796
  Basis Set: CC-PVTZ
  Basis Set:
  Basis Set: CC-PVTZ
  Basis Set:
  @DF-RHF Final Energy:  -527.74006208416131
    Total Energy =                       -527.7400620841610817
  Basis Set: CC-PVTZ
  Basis Set:
  Basis Set: CC-PVTZ
  Basis Set:
  @DF-RHF Final Energy:  -527.74006398980896
    Total Energy =                       -527.7400639898089594
  Basis Set: CC-PVTZ
  Basis Set:
  Charge       = 0
  Multiplicity = 1
  Basis Set: CC-PVTZ
  Basis Set:

    Orbital Energies (a.u.)
    -----------------------

    Doubly Occupied:

       1A    -26.340508     2A    -26.340006     3A    -26.336651
       4A    -20.595859     5A    -11.496291     6A    -11.316045
       7A    -11.295081     8A    -11.224380     9A     -1.749135
      10A     -1.645821    11A     -1.643982    12A     -1.434942
      13A     -1.085159    14A     -1.021737    15A     -0.931303
      16A     -0.841402    17A     -0.838304    18A     -0.829937
      19A     -0.782674    20A     -0.728738    21A     -0.718823
      22A     -0.707938    23A     -0.681152    24A     -0.665307
      25A     -0.659899    26A     -0.649938    27A     -0.637475
      28A     -0.599366    29A     -0.571814    30A     -0.531956
      31A     -0.478354    32A     -0.375458

  @DF-RHF Final Energy:  -527.74006449815408

   => Energetics <=

    Nuclear Repulsion Energy =            411.8855205105259074
    One-Electron Energy =               -1547.7402984030977677
    Two-Electron Energy =                 608.1147133944176630
    DFT Exchange-Correlation Energy =       0.0000000000000000
    Empirical Dispersion Energy =           0.0000000000000000
    PCM Polarization Energy =               0.0000000000000000
    EFP Energy =                            0.0000000000000000
    Total Energy =                       -527.7400644981540836
    Molecular point group: c1
  Basis Set: CC-PVTZ
  Basis Set:

  -Total Gradient:
     Atom            X                  Y                   Z
    ------   -----------------  -----------------  -----------------
       1       -0.000011812176     0.000018265069    -0.000008158343
       2        0.000018323025    -0.000019606308    -0.000000708093
       3        0.000742243390    -0.001573125959    -0.002574066250
       4        0.000010353498    -0.000002937604     0.000010585720
       5        0.000558945586     0.002208202795     0.001471128760
       6       -0.000764768212     0.000724870603     0.001703990376
       7       -0.000576506953    -0.001337925072    -0.000579346970
       8        0.000074660013    -0.000020350929    -0.000011338307
       9        0.000008750771     0.000003522459    -0.000006822473
      10       -0.000001699061     0.000001185954     0.000000459924
      11        0.000030059234    -0.000015103098    -0.000025487625
      12       -0.000045401502    -0.000004476668     0.000023143375
      13       -0.000043147620     0.000017478756    -0.000003380096

  **** Optimization is complete! (in 7 steps) ****
    Final optimized geometry and variables:
    Molecular point group: c1

    Geometry (in Angstrom), charge = 0, multiplicity = 1:

    H           -4.036736032618     0.160486428277    -1.162063120670
    C           -3.310275276324    -0.437820007205    -0.649652402171
    C           -2.117292239016     0.047617184571    -0.410531168602
    H           -3.589590703063    -1.421250334434    -0.324729826348
    O           -1.189004624875    -0.646554074066     0.302905405920
    H           -1.826907990953     1.040447140895    -0.701718348243
    C            0.039772394918    -0.876596779354    -0.302346871503
    C            1.070665592387     0.149597581877     0.117644148335
    H           -0.025233233064    -0.867160476307    -1.382900573314
    H            0.398257136757    -1.843839602635     0.018009252902
    F            2.223107820431    -0.117148760140    -0.462682463169
    F            0.721865926090     1.371364817597    -0.232109784495
    F            1.264582425882     0.151283953813     1.414584188368

  Mulliken Charges: (a.u.)
   Center  Symbol    Alpha    Beta     Spin     Total
       1     H     0.42399  0.42399  0.00000  0.15201
       2     C     3.17721  3.17721  0.00000 -0.35442
       3     C     2.98316  2.98316  0.00000  0.03367
       4     H     0.42145  0.42145  0.00000  0.15710
       5     O     4.15902  4.15902  0.00000 -0.31804
       6     H     0.42259  0.42259  0.00000  0.15483
       7     C     3.00887  3.00887  0.00000 -0.01774
       8     C     2.67575  2.67575  0.00000  0.64850
       9     H     0.45703  0.45703  0.00000  0.08594
      10     H     0.43860  0.43860  0.00000  0.12280
      11     F     4.61229  4.61229  0.00000 -0.22458
      12     F     4.61294  4.61294  0.00000 -0.22587
      13     F     4.60710  4.60710  0.00000 -0.21421

   Total alpha = 32.00000, Total beta = 32.00000, Total charge =  0.00000

*** Psi4 exiting successfully. Buy a developer a beer!
