  ==> Input File <==

--------------------------------------------------------------------------
set {
	reference rhf
	basis 6-31G*
}

set_num_threads( 4 )
memory 2 gb

molecule MOL {
0 1

O	 -0.291628	 1.323815	 -0.000732
C	 -0.449655	 0.146360	 0.000961
C	 -1.783294	 -0.549321	 -0.000296
O	 0.550821	 -0.724572	 0.000672
H	 -1.863538	 -1.185371	 -0.874187
H	 -2.574672	 0.185258	 -0.002793
H	 -1.866414	 -1.182381	 0.875436
C	 1.668862	 -0.417394	 -0.812904
H	 1.374480	 -0.342108	 -1.849739
H	 2.363389	 -1.231955	 -0.679219
H	 2.119400	 0.514262	 -0.502462

	symmetry c1
}
set optking {
	frozen_dihedral = ("
		8 4 2 1
	")
}

ee = optimize('scf')
oeprop('DIPOLE', 'QUADRUPOLE', 'MULLIKEN_CHARGES')
f=open( 'psi4out.xyz', 'w' )
f.write( "11  " )
f.write( str(ee) + "\n" )
f.write( MOL.save_string_xyz() )
f.close()
--------------------------------------------------------------------------

    Molecular point group: c1
  Charge       = 0
  Multiplicity = 1
  Basis Set: 6-31G*
  Basis Set:
  @DF-RHF Final Energy:  -266.82768705551018
    Total Energy =                       -266.8276870555099549
    Molecular point group: c1
  Basis Set: 6-31G*
  Basis Set:
  Basis Set: 6-31G*
  Basis Set:
  @DF-RHF Final Energy:  -266.82502392844333
    Total Energy =                       -266.8250239284433860
  Basis Set: 6-31G*
  Basis Set:
  Basis Set: 6-31G*
  Basis Set:
  @DF-RHF Final Energy:  -266.82834920096343
    Total Energy =                       -266.8283492009632027
  Basis Set: 6-31G*
  Basis Set:
  Basis Set: 6-31G*
  Basis Set:
  @DF-RHF Final Energy:  -266.82839651506333
    Total Energy =                       -266.8283965150631047
  Basis Set: 6-31G*
  Basis Set:
  @DF-RHF Final Energy:  -266.82840133058721
    Total Energy =                       -266.8284013305873259
  Basis Set: 6-31G*
  Basis Set:
  @DF-RHF Final Energy:  -266.82840351006519
    Total Energy =                       -266.8284035100648452
  Basis Set: 6-31G*
  Basis Set:
  Basis Set: 6-31G*
  Basis Set:
  @DF-RHF Final Energy:  -266.82840073956572
    Total Energy =                       -266.8284007395659501
  Basis Set: 6-31G*
  Basis Set:
  Basis Set: 6-31G*
  Basis Set:
  @DF-RHF Final Energy:  -266.82840375714176
    Total Energy =                       -266.8284037571418139
  Basis Set: 6-31G*
  Basis Set:
  Charge       = 0
  Multiplicity = 1
  Basis Set: 6-31G*
  Basis Set:

    Orbital Energies (a.u.)
    -----------------------

    Doubly Occupied:

       1A    -20.598117     2A    -20.550804     3A    -11.377706
       4A    -11.285604     5A    -11.235302     6A     -1.466003
       7A     -1.365924     8A     -1.033263     9A     -0.955150
      10A     -0.777677    11A     -0.695096    12A     -0.679534
      13A     -0.674178    14A     -0.600356    15A     -0.593125
      16A     -0.565524    17A     -0.533705    18A     -0.511924
      19A     -0.456359    20A     -0.441110

  @DF-RHF Final Energy:  -266.82840419061654

   => Energetics <=

    Nuclear Repulsion Energy =            182.7459276493167408
    One-Electron Energy =                -726.3557417363446120
    Two-Electron Energy =                 276.7814098964112191
    DFT Exchange-Correlation Energy =       0.0000000000000000
    Empirical Dispersion Energy =           0.0000000000000000
    PCM Polarization Energy =               0.0000000000000000
    EFP Energy =                            0.0000000000000000
    Total Energy =                       -266.8284041906166522
    Molecular point group: c1
  Basis Set: 6-31G*
  Basis Set:

  -Total Gradient:
     Atom            X                  Y                   Z
    ------   -----------------  -----------------  -----------------
       1       -0.000253346707     0.000098630997     0.010187836611
       2       -0.001224999250    -0.001920961933    -0.018221615936
       3        0.000079503671    -0.000095367494     0.000103015638
       4        0.004492340353     0.005714302574     0.014075156397
       5        0.000010392499     0.000003403994    -0.000024199354
       6        0.000022065032     0.000012985261    -0.000009234602
       7       -0.000001242149     0.000053685778     0.000026646580
       8       -0.003093022560    -0.003867966257    -0.006142024842
       9       -0.000010577222     0.000002497421    -0.000007584522
      10       -0.000007813261     0.000003085435     0.000002924106
      11       -0.000013300406    -0.000004295775     0.000009079922

  **** Optimization is complete! (in 9 steps) ****
    Final optimized geometry and variables:
    Molecular point group: c1

    Geometry (in Angstrom), charge = 0, multiplicity = 1:

    O           -0.264569583261     1.369957025473     0.137415575672
    C           -0.419286397946     0.194451702771     0.132634979973
    C           -1.750867060617    -0.500000183392     0.204643655641
    O            0.593284117060    -0.677641540584     0.168843134347
    H           -1.890887444581    -1.112515392047    -0.679333506699
    H           -2.542726983782     0.230426752526     0.278281359448
    H           -1.769034724095    -1.159681685685     1.064417780333
    C            1.740950177874    -0.368321098881    -0.601350545694
    H            1.477001338371    -0.287128134946    -1.648415442154
    H            2.426272015138    -1.189611832125    -0.461681813846
    H            2.192887538944     0.554610784410    -0.269557358047

  Mulliken Charges: (a.u.)
   Center  Symbol    Alpha    Beta     Spin     Total
       1     O     4.27093  4.27093  0.00000 -0.54186
       2     C     2.62233  2.62233  0.00000  0.75535
       3     C     3.28327  3.28327  0.00000 -0.56653
       4     O     4.30463  4.30463  0.00000 -0.60927
       5     H     0.40325  0.40325  0.00000  0.19350
       6     H     0.39718  0.39718  0.00000  0.20565
       7     H     0.39785  0.39785  0.00000  0.20431
       8     C     3.09413  3.09413  0.00000 -0.18827
       9     H     0.41711  0.41711  0.00000  0.16577
      10     H     0.40646  0.40646  0.00000  0.18707
      11     H     0.40286  0.40286  0.00000  0.19428

   Total alpha = 20.00000, Total beta = 20.00000, Total charge =  0.00000
