  ==> Input File <==

--------------------------------------------------------------------------
set {
	reference rhf
	basis 6-31G*
}

set_num_threads( 4 )
memory 2 gb

molecule MOL {
0 1

O	 -0.389695	 0.092980	 2.453461
C	 -0.833093	 0.610524	 1.479901
C	 -1.689737	 1.847648	 1.474314
O	 -0.632575	 0.154573	 0.251549
H	 -2.647636	 1.627754	 1.017121
H	 -1.833848	 2.193421	 2.486988
H	 -1.213112	 2.620317	 0.882227
C	 0.160891	 -1.019931	 0.106212
C	 1.589627	 -0.672828	 0.480843
H	 0.089836	 -1.367806	 -0.916050
H	 -0.238459	 -1.792301	 0.749618
C	 2.246377	 0.346236	 -0.452210
H	 2.163194	 -1.597435	 0.473358
H	 1.604769	 -0.303424	 1.502885
C	 3.691736	 0.652107	 -0.061850
H	 2.219579	 -0.032311	 -1.472055
H	 1.666466	 1.263317	 -0.447249
H	 4.134505	 1.377213	 -0.737283
H	 4.305508	 -0.243868	 -0.089969
H	 3.748266	 1.059562	 0.943567

	symmetry c1
}
set optking {
	frozen_dihedral = ("
		2 4 8 10
	")
}

ee = optimize('scf')
oeprop('DIPOLE', 'QUADRUPOLE', 'MULLIKEN_CHARGES')
f=open( 'psi4out.xyz', 'w' )
f.write( "20  " )
f.write( str(ee) + "\n" )
f.write( MOL.save_string_xyz() )
f.close()
--------------------------------------------------------------------------

    Molecular point group: c1
  Charge       = 0
  Multiplicity = 1
  Basis Set: 6-31G*
  Basis Set:
  @DF-RHF Final Energy:  -383.93986530345796
    Total Energy =                       -383.9398653034573954
    Molecular point group: c1
  Basis Set: 6-31G*
  Basis Set:
  Basis Set: 6-31G*
  Basis Set:
  @DF-RHF Final Energy:  -383.94348931996529
    Total Energy =                       -383.9434893199648968
  Basis Set: 6-31G*
  Basis Set:
  Basis Set: 6-31G*
  Basis Set:
  @DF-RHF Final Energy:  -383.94375974118032
    Total Energy =                       -383.9437597411798606
  Basis Set: 6-31G*
  Basis Set:
  Basis Set: 6-31G*
  Basis Set:
  @DF-RHF Final Energy:  -383.94232810811394
    Total Energy =                       -383.9423281081142250
  Basis Set: 6-31G*
  Basis Set:
  Basis Set: 6-31G*
  Basis Set:
  @DF-RHF Final Energy:  -383.94395418048146
    Total Energy =                       -383.9439541804815690
  Basis Set: 6-31G*
  Basis Set:
  Basis Set: 6-31G*
  Basis Set:
  @DF-RHF Final Energy:  -383.94396702845125
    Total Energy =                       -383.9439670284513113
  Basis Set: 6-31G*
  Basis Set:
  Charge       = 0
  Multiplicity = 1
  Basis Set: 6-31G*
  Basis Set:

    Orbital Energies (a.u.)
    -----------------------

    Doubly Occupied:

       1A    -20.601636     2A    -20.544583     3A    -11.375677
       4A    -11.283878     5A    -11.233333     6A    -11.220274
       7A    -11.219479     8A    -11.211812     9A     -1.467090
      10A     -1.362678    11A     -1.082451    12A     -1.028478
      13A     -0.979202    14A     -0.888736    15A     -0.817699
      16A     -0.749170    17A     -0.697709    18A     -0.682850
      19A     -0.663481    20A     -0.632096    21A     -0.598620
      22A     -0.592196    23A     -0.572156    24A     -0.565017
      25A     -0.536702    26A     -0.524509    27A     -0.514223
      28A     -0.490402    29A     -0.474509    30A     -0.468836
      31A     -0.443772    32A     -0.434938

  @DF-RHF Final Energy:  -383.94396783962895

   => Energetics <=

    Nuclear Repulsion Energy =            393.4796662843078821
    One-Electron Energy =               -1302.9308836809059358
    Two-Electron Energy =                 525.5072495569691000
    DFT Exchange-Correlation Energy =       0.0000000000000000
    Empirical Dispersion Energy =           0.0000000000000000
    PCM Polarization Energy =               0.0000000000000000
    EFP Energy =                            0.0000000000000000
    Total Energy =                       -383.9439678396289537
    Molecular point group: c1
  Basis Set: 6-31G*
  Basis Set:

  -Total Gradient:
     Atom            X                  Y                   Z
    ------   -----------------  -----------------  -----------------
       1        0.000014836878    -0.000020392341    -0.000050873166
       2        0.002245143116     0.001705438931    -0.000219478314
       3        0.000045953400     0.000058081809     0.000015683168
       4       -0.002864468520    -0.002146911720     0.000198671612
       5       -0.000009182266    -0.000014096428     0.000009283597
       6       -0.000009813783     0.000006128124    -0.000002107132
       7       -0.000024877100     0.000000642581    -0.000009072602
       8       -0.001801809492    -0.001451313037     0.000779995498
       9        0.000008362113    -0.000012963527     0.000025953474
      10        0.002419163703     0.001873377023    -0.000754374254
      11        0.000004715687    -0.000001967558     0.000001165621
      12       -0.000046717117    -0.000000480173     0.000025622672
      13        0.000004394336     0.000011749696    -0.000000457929
      14       -0.000006567692     0.000003440821    -0.000006966505
      15        0.000010339107    -0.000019439594    -0.000010088389
      16       -0.000000075886     0.000017791874    -0.000010145376
      17        0.000006473516    -0.000012834932     0.000008416959
      18        0.000005984800    -0.000001933908    -0.000003548882
      19        0.000005183473     0.000002150829     0.000006692396
      20       -0.000007038276     0.000003531533    -0.000004372451

  **** Optimization is complete! (in 7 steps) ****
    Final optimized geometry and variables:
    Molecular point group: c1

    Geometry (in Angstrom), charge = 0, multiplicity = 1:

    O           -1.031515447641    -0.136288200388     1.776104671022
    C           -1.411703836603     0.360286619207     0.765027145136
    C           -2.262957674030     1.598935958626     0.684049136735
    O           -1.149311025115    -0.121528647062    -0.441433514150
    H           -3.188963139999     1.372728034979     0.168265597244
    H           -2.472206794852     1.960694133127     1.679658678579
    H           -1.747162322548     2.361688161902     0.112140317484
    C           -0.298934336244    -1.261466249744    -0.558560615350
    C            1.162990703826    -0.961284836669    -0.253753489115
    H           -0.396655401821    -1.550589782248    -1.595697103808
    H           -0.676056450487    -2.050014630919     0.076858848108
    C            1.771697761415     0.113935847967    -1.156410389273
    H            1.708112288981    -1.894403433924    -0.385989399723
    H            1.269568234184    -0.683977221994     0.787830295247
    C            3.251432476113     0.355888946011    -0.860824712828
    H            1.653603523354    -0.177695273294    -2.198133985849
    H            1.223551983161     1.043797442861    -1.036866972696
    H            3.660761467893     1.122692824055    -1.510986353356
    H            3.834849388889    -0.548654509526    -1.007937123549
    H            3.397738674352     0.679140188785     0.165712012596

  Mulliken Charges: (a.u.)
   Center  Symbol    Alpha    Beta     Spin     Total
       1     O     4.28418  4.28418  0.00000 -0.56835
       2     C     2.61924  2.61924  0.00000  0.76152
       3     C     3.28171  3.28171  0.00000 -0.56343
       4     O     4.30982  4.30982  0.00000 -0.61964
       5     H     0.39988  0.39988  0.00000  0.20024
       6     H     0.39715  0.39715  0.00000  0.20569
       7     H     0.40106  0.40106  0.00000  0.19788
       8     C     3.00319  3.00319  0.00000 -0.00638
       9     C     3.17671  3.17671  0.00000 -0.35343
      10     H     0.41046  0.41046  0.00000  0.17908
      11     H     0.40444  0.40444  0.00000  0.19112
      12     C     3.15309  3.15309  0.00000 -0.30618
      13     H     0.41994  0.41994  0.00000  0.16011
      14     H     0.39870  0.39870  0.00000  0.20261
      15     C     3.23985  3.23985  0.00000 -0.47970
      16     H     0.42349  0.42349  0.00000  0.15301
      17     H     0.41806  0.41806  0.00000  0.16388
      18     H     0.41831  0.41831  0.00000  0.16338
      19     H     0.42156  0.42156  0.00000  0.15689
      20     H     0.41915  0.41915  0.00000  0.16169

   Total alpha = 32.00000, Total beta = 32.00000, Total charge = -0.00000
