  ==> Input File <==

--------------------------------------------------------------------------
set {
	reference rhf
	basis cc-pvtz
}

set_num_threads( 4 )
memory 2 gb

molecule MOL {
0 1

H	 -2.824033	 -0.272434	 0.822196
C	 -2.653412	 0.377902	 -0.032693
O	 -1.300767	 0.488344	 -0.325432
H	 -3.144972	 -0.046566	 -0.895875
H	 -3.097280	 1.348810	 0.179917
C	 -0.534885	 1.033207	 0.698377
C	 0.923094	 1.008617	 0.313622
H	 -0.833308	 2.064776	 0.884870
H	 -0.670748	 0.472789	 1.620821
O	 1.401606	 -0.295166	 0.366636
H	 1.035728	 1.419600	 -0.687296
H	 1.480560	 1.643462	 1.002227
C	 2.714315	 -0.441627	 -0.061017
H	 2.765292	 -0.641548	 -1.128869
H	 3.305661	 0.447341	 0.150952
H	 3.143725	 -1.278506	 0.470147

	symmetry c1
}
set optking {
	frozen_dihedral = ("
		7 10 13 14
	")
}

ee = optimize('scf')
oeprop('DIPOLE', 'QUADRUPOLE', 'MULLIKEN_CHARGES')
f=open( 'psi4out.xyz', 'w' )
f.write( "16  " )
f.write( str(ee) + "\n" )
f.write( MOL.save_string_xyz() )
f.close()
--------------------------------------------------------------------------

    Molecular point group: c1
  Charge       = 0
  Multiplicity = 1
  Basis Set: CC-PVTZ
  Basis Set:
  @DF-RHF Final Energy:  -307.09613951062892
    Total Energy =                       -307.0961395106286318
    Molecular point group: c1
  Basis Set: CC-PVTZ
  Basis Set:
  Basis Set: CC-PVTZ
  Basis Set:
  @DF-RHF Final Energy:  -307.09622465813362
    Total Energy =                       -307.0962246581335080
  Basis Set: CC-PVTZ
  Basis Set:
  Charge       = 0
  Multiplicity = 1
  Basis Set: CC-PVTZ
  Basis Set:

    Orbital Energies (a.u.)
    -----------------------

    Doubly Occupied:

       1A    -20.547665     2A    -20.546100     3A    -11.267603
       4A    -11.266755     5A    -11.261483     6A    -11.261259
       7A     -1.390593     8A     -1.373149     9A     -1.031956
      10A     -0.937241    11A     -0.892165    12A     -0.824075
      13A     -0.685770    14A     -0.682049    15A     -0.659044
      16A     -0.636702    17A     -0.631590    18A     -0.597992
      19A     -0.551970    20A     -0.538270    21A     -0.509052
      22A     -0.479449    23A     -0.464493    24A     -0.421689
      25A     -0.412315

  @DF-RHF Final Energy:  -307.09623658973624

   => Energetics <=

    Nuclear Repulsion Energy =            258.7541697552010191
    One-Electron Energy =                -931.9599566992167183
    Two-Electron Energy =                 366.1095503542794631
    DFT Exchange-Correlation Energy =       0.0000000000000000
    Empirical Dispersion Energy =           0.0000000000000000
    PCM Polarization Energy =               0.0000000000000000
    EFP Energy =                            0.0000000000000000
    Total Energy =                       -307.0962365897362361
    Molecular point group: c1
  Basis Set: CC-PVTZ
  Basis Set:

  -Total Gradient:
     Atom            X                  Y                   Z
    ------   -----------------  -----------------  -----------------
       1        0.000001141774    -0.000000374389     0.000000027163
       2       -0.000006791315    -0.000000946717    -0.000004053269
       3       -0.000028654517     0.000002421253    -0.000004134200
       4        0.000001119865     0.000001033158     0.000000957248
       5       -0.000000490254     0.000000969588    -0.000000208367
       6        0.000071253480    -0.000111278019    -0.000033575694
       7        0.000736961371     0.000516066507     0.002223288417
       8        0.000059372423    -0.000014174580    -0.000020364518
       9       -0.000016175592    -0.000003215698     0.000028723824
      10       -0.001097069277    -0.001312730009    -0.002945597990
      11       -0.000016683942    -0.000012132122    -0.000003887233
      12       -0.000013930018     0.000005881974     0.000001765316
      13        0.000458159451     0.003761449924     0.000240615031
      14       -0.000135671947    -0.002859771068     0.000506492523
      15        0.000012077320    -0.000007135876     0.000013215637
      16       -0.000024618818     0.000033936075    -0.000003263889

  **** Optimization is complete! (in 3 steps) ****
    Final optimized geometry and variables:
    Molecular point group: c1

    Geometry (in Angstrom), charge = 0, multiplicity = 1:

    H           -2.910513582977    -0.638886114333     0.664298264749
    C           -2.743804388456     0.014097297184    -0.189327465719
    O           -1.391971289144     0.131819553590    -0.482918784897
    H           -3.234001781824    -0.410893236072    -1.053024137733
    H           -3.192240301832     0.982380823438     0.025727990901
    C           -0.627876353601     0.678270497626     0.541390397077
    C            0.829878941227     0.661455222051     0.156212453319
    H           -0.930591489593     1.708296733706     0.729718845653
    H           -0.760606768677     0.115610829334     1.462948236744
    O            1.312818937359    -0.641450263165     0.210824265173
    H            0.937583744901     1.075480388628    -0.844008160122
    H            1.384428690240     1.296891059898     0.845659389242
    C            2.626638432789    -0.803351524085    -0.217351548101
    H            2.669197843860    -1.010159013757    -1.283266900282
    H            3.236644287921     0.068393526569     0.002241732271
    H            3.046169377412    -1.653275566309     0.304061938603

  Mulliken Charges: (a.u.)
   Center  Symbol    Alpha    Beta     Spin     Total
       1     H     0.47015  0.47015  0.00000  0.05969
       2     C     3.03202  3.03202  0.00000 -0.06403
       3     O     4.17052  4.17052  0.00000 -0.34104
       4     H     0.44639  0.44639  0.00000  0.10722
       5     H     0.47369  0.47369  0.00000  0.05261
       6     C     2.96175  2.96175  0.00000  0.07651
       7     C     2.95977  2.95977  0.00000  0.08047
       8     H     0.47610  0.47610  0.00000  0.04780
       9     H     0.47098  0.47098  0.00000  0.05804
      10     O     4.17285  4.17285  0.00000 -0.34569
      11     H     0.47138  0.47138  0.00000  0.05724
      12     H     0.47530  0.47530  0.00000  0.04940
      13     C     3.03023  3.03023  0.00000 -0.06045
      14     H     0.46306  0.46306  0.00000  0.07387
      15     H     0.47466  0.47466  0.00000  0.05068
      16     H     0.45116  0.45116  0.00000  0.09768

   Total alpha = 25.00000, Total beta = 25.00000, Total charge =  0.00000
