                              Psi4 1.0.54 Driver

  ==> Input File <==

--------------------------------------------------------------------------
set {
	reference rhf
	basis cc-pvtz
}

set_num_threads( 4 )
memory 2 gb

molecule MOL {
0 1

H	 3.721907	 -0.933076	 -0.066039
O	 2.824271	 -1.154299	 0.131461
C	 2.076458	 -0.067370	 -0.038225
C	 0.626018	 -0.337582	 0.258241
O	 2.538288	 0.965419	 -0.381593
C	 -0.267326	 0.883135	 0.076490
H	 0.325620	 -1.161483	 -0.378003
H	 0.574537	 -0.713685	 1.275261
C	 -1.726822	 0.642622	 0.463839
H	 -0.210803	 1.217591	 -0.953497
H	 0.129920	 1.693110	 0.675679
C	 -2.718395	 1.672557	 -0.074731
H	 -1.790310	 0.636540	 1.547900
H	 -2.028997	 -0.350814	 0.139460
C	 -4.139337	 1.441668	 0.429341
H	 -2.391032	 2.667614	 0.214629
H	 -2.723738	 1.655910	 -1.159927
H	 -4.821522	 2.185841	 0.034990
H	 -4.183309	 1.492659	 1.512007
H	 -4.506399	 0.465390	 0.130508

	symmetry c1
}
set optking {
	frozen_dihedral = ("
		12 9 6 10
	")
}

ee,wfn = optimize('scf', return_wfn=True)
oeprop( wfn, 'DIPOLE', 'QUADRUPOLE', 'MULLIKEN_CHARGES')
f=open( 'psi4out.xyz', 'w' )
f.write( "20  " )
f.write( str(ee) + "\n" )
f.write( MOL.save_string_xyz() )
f.close()
--------------------------------------------------------------------------

    Molecular point group: c1
  Charge       = 0
  Multiplicity = 1
  Basis Set: CC-PVTZ
  Basis Set:
  @DF-RHF Final Energy:  -384.09517673016001
    Total Energy =                       -384.0951767301601194
    Molecular point group: c1
  Basis Set: CC-PVTZ
  Basis Set:
  Basis Set: CC-PVTZ
  Basis Set:
  @DF-RHF Final Energy:  -384.09564494242193
    Total Energy =                       -384.0956449424221546
  Basis Set: CC-PVTZ
  Basis Set:
  Basis Set: CC-PVTZ
  Basis Set:
  @DF-RHF Final Energy:  -384.09540830693544
    Total Energy =                       -384.0954083069354965
  Basis Set: CC-PVTZ
  Basis Set:
  Basis Set: CC-PVTZ
  Basis Set:
  @DF-RHF Final Energy:  -384.09569669635215
    Total Energy =                       -384.0956966963516948
  Basis Set: CC-PVTZ
  Basis Set:
  Basis Set: CC-PVTZ
  Basis Set:
  @DF-RHF Final Energy:  -384.09569775265760
    Total Energy =                       -384.0956977526578271
  Basis Set: CC-PVTZ
  Basis Set:
  Charge       = 0
  Multiplicity = 1
  Basis Set: CC-PVTZ
  Basis Set:

    Orbital Energies (a.u.)
    -----------------------

    Doubly Occupied:

       1A    -20.604044     2A    -20.540642     3A    -11.373559
       4A    -11.239453     5A    -11.220557     6A    -11.218259
       7A    -11.216609     8A    -11.209197     9A     -1.477606
      10A     -1.369148    11A     -1.096934    12A     -1.044038
      13A     -0.960670    14A     -0.869595    15A     -0.805242
      16A     -0.791515    17A     -0.703870    18A     -0.689262
      19A     -0.671735    20A     -0.639995    21A     -0.597639
      22A     -0.595378    23A     -0.570907    24A     -0.564882
      25A     -0.539893    26A     -0.511230    27A     -0.488410
      28A     -0.484547    29A     -0.473352    30A     -0.467178
      31A     -0.465647    32A     -0.444263

  @DF-RHF Final Energy:  -384.09569863397593

   => Energetics <=

    Nuclear Repulsion Energy =            372.2231990862384805
    One-Electron Energy =               -1260.7472767264487175
    Two-Electron Energy =                 504.4283790062340245
    DFT Exchange-Correlation Energy =       0.0000000000000000
    Empirical Dispersion Energy =           0.0000000000000000
    PCM Polarization Energy =               0.0000000000000000
    EFP Energy =                            0.0000000000000000
    Total Energy =                       -384.0956986339761556
    Molecular point group: c1
  Basis Set: CC-PVTZ
  Basis Set:

  -Total Gradient:
     Atom            X                  Y                   Z
    ------   -----------------  -----------------  -----------------
       1       -0.000010217757     0.000012148591    -0.000001857728
       2       -0.000023713903    -0.000044409949     0.000018313787
       3        0.000013156851     0.000043350899    -0.000017235106
       4        0.000024094042    -0.000008565719    -0.000020721677
       5       -0.000027424996     0.000008449169     0.000010299411
       6        0.000183731813    -0.004409583189    -0.002039808279
       7        0.000003320223     0.000009604304     0.000001000756
       8       -0.000005407004     0.000008795769     0.000007487419
       9        0.000385734931     0.002626051027     0.003007882962
      10       -0.000239880278     0.003094255119     0.000984006007
      11       -0.000002421703    -0.000003229512     0.000022393859
      12       -0.000329860593    -0.001316339193    -0.001978618097
      13       -0.000006959006    -0.000007841943     0.000013097017
      14        0.000009530576     0.000015289427    -0.000014944169
      15        0.000002131885    -0.000018250953     0.000017427422
      16        0.000015711530    -0.000003857323     0.000006531562
      17       -0.000003526238     0.000000233544    -0.000020857437
      18        0.000022610140     0.000000718427     0.000000471814
      19       -0.000001769380     0.000001715549     0.000011440775
      20       -0.000008841130    -0.000008534049    -0.000006310298

  **** Optimization is complete! (in 6 steps) ****
    Final optimized geometry and variables:
    Molecular point group: c1

    Geometry (in Angstrom), charge = 0, multiplicity = 1:

    H            3.743946449391    -1.470703714469    -0.224129895789
    O            2.849114240522    -1.670903052699     0.005928161199
    C            2.115251233151    -0.575174763373    -0.167274198491
    C            0.670239854831    -0.811971059852     0.178799858791
    O            2.582918898195     0.441242485919    -0.549506950657
    C           -0.213930435158     0.410743628231    -0.009829675682
    H            0.328645077702    -1.643998995573    -0.427993655315
    H            0.641343599931    -1.163950127614     1.205179574851
    C           -1.664258277733     0.159493261209     0.402248618045
    H           -0.171640884354     0.746429118294    -1.039661947214
    H            0.189732584282     1.232185403766     0.571678081502
    C           -2.631850386953     1.206718201349    -0.141589365258
    H           -1.734085823490     0.120002590643     1.486160489794
    H           -1.980065281008    -0.818161364831     0.043974383382
    C           -4.071410075325     0.982897601579     0.308399537983
    H           -2.306594324889     2.195907765928     0.169463971365
    H           -2.586782698542     1.199384604594    -1.226657929242
    H           -4.732529411542     1.736390580773    -0.103656556779
    H           -4.155173733689     1.025105719821     1.389245640113
    H           -4.435623392543     0.012428432326    -0.012491633539

  Mulliken Charges: (a.u.)
   Center  Symbol    Alpha    Beta     Spin     Total
       1     H     0.38242  0.38242  0.00000  0.23515
       2     O     4.15972  4.15972  0.00000 -0.31944
       3     C     2.80490  2.80490  0.00000  0.39021
       4     C     3.11173  3.11173  0.00000 -0.22347
       5     O     4.19121  4.19121  0.00000 -0.38242
       6     C     3.08570  3.08570  0.00000 -0.17140
       7     H     0.43788  0.43788  0.00000  0.12425
       8     H     0.43756  0.43756  0.00000  0.12487
       9     C     3.08870  3.08870  0.00000 -0.17740
      10     H     0.44637  0.44637  0.00000  0.10726
      11     H     0.44515  0.44515  0.00000  0.10969
      12     C     3.08424  3.08424  0.00000 -0.16849
      13     H     0.45307  0.45307  0.00000  0.09387
      14     H     0.45736  0.45736  0.00000  0.08528
      15     C     3.15028  3.15028  0.00000 -0.30057
      16     H     0.45267  0.45267  0.00000  0.09465
      17     H     0.45325  0.45325  0.00000  0.09350
      18     H     0.44756  0.44756  0.00000  0.10487
      19     H     0.45488  0.45488  0.00000  0.09023
      20     H     0.45532  0.45532  0.00000  0.08936

   Total alpha = 32.00000, Total beta = 32.00000, Total charge =  0.00000

*** Psi4 exiting successfully. Buy a developer a beer!
