  ==> Input File <==

--------------------------------------------------------------------------
set {
	reference rhf
	basis cc-pvtz
}

set_num_threads( 4 )
memory 2 gb

molecule MOL {
0 1

H	 -2.816458	 -0.841657	 -0.064679
N	 -1.878861	 -0.711874	 0.250184
C	 -1.341419	 0.551458	 -0.220231
H	 -1.333674	 -1.468530	 -0.105118
C	 0.020335	 0.348694	 -0.844058
H	 -1.981173	 1.050888	 -0.946749
H	 -1.229811	 1.218447	 0.627543
O	 -0.121387	 -0.437110	 -1.988669
H	 0.455123	 1.312889	 -1.103788
H	 0.679494	 -0.141629	 -0.131302
C	 1.073844	 -0.755337	 -2.620630
H	 0.841694	 -1.357721	 -3.487017
H	 1.600906	 0.138412	 -2.947911
H	 1.731597	 -1.321940	 -1.965737

	symmetry c1
}
set optking {
	frozen_dihedral = ("
		6 3 2 4
	")
}

ee = optimize('scf')
oeprop('DIPOLE', 'QUADRUPOLE', 'MULLIKEN_CHARGES')
f=open( 'psi4out.xyz', 'w' )
f.write( "14  " )
f.write( str(ee) + "\n" )
f.write( MOL.save_string_xyz() )
f.close()
--------------------------------------------------------------------------

    Molecular point group: c1
  Charge       = 0
  Multiplicity = 1
  Basis Set: CC-PVTZ
  Basis Set:
  @DF-RHF Final Energy:  -248.22129443250947
    Total Energy =                       -248.2212944325095805
    Molecular point group: c1
  Basis Set: CC-PVTZ
  Basis Set:
  Basis Set: CC-PVTZ
  Basis Set:
  @DF-RHF Final Energy:  -248.22181126327692
    Total Energy =                       -248.2218112632771181
  Basis Set: CC-PVTZ
  Basis Set:
  Basis Set: CC-PVTZ
  Basis Set:
  @DF-RHF Final Energy:  -248.22192486692668
    Total Energy =                       -248.2219248669266563
  Basis Set: CC-PVTZ
  Basis Set:
  Basis Set: CC-PVTZ
  Basis Set:
  @DF-RHF Final Energy:  -248.22192703345289
    Total Energy =                       -248.2219270334528005
  Basis Set: CC-PVTZ
  Basis Set:
  Charge       = 0
  Multiplicity = 1
  Basis Set: CC-PVTZ
  Basis Set:

    Orbital Energies (a.u.)
    -----------------------

    Doubly Occupied:

       1A    -20.554289     2A    -15.520523     3A    -11.269746
       4A    -11.267042     5A    -11.240205     6A     -1.388635
       7A     -1.173127     8A     -1.002702     9A     -0.911279
      10A     -0.821210    11A     -0.690101    12A     -0.668692
      13A     -0.655506    14A     -0.624403    15A     -0.587269
      16A     -0.551754    17A     -0.536458    18A     -0.504144
      19A     -0.473273    20A     -0.423940    21A     -0.379229

  @DF-RHF Final Energy:  -248.22192723965728

   => Energetics <=

    Nuclear Repulsion Energy =            194.4380879544379184
    One-Electron Energy =                -722.8329782898014173
    Two-Electron Energy =                 280.1729630957062227
    DFT Exchange-Correlation Energy =       0.0000000000000000
    Empirical Dispersion Energy =           0.0000000000000000
    PCM Polarization Energy =               0.0000000000000000
    EFP Energy =                            0.0000000000000000
    Total Energy =                       -248.2219272396572478
    Molecular point group: c1
  Basis Set: CC-PVTZ
  Basis Set:

  -Total Gradient:
     Atom            X                  Y                   Z
    ------   -----------------  -----------------  -----------------
       1       -0.000015505381    -0.000006596478    -0.000015265608
       2       -0.002299387949     0.000265941881    -0.002049309392
       3        0.001760263113    -0.001509462655    -0.001845854521
       4        0.001618387011     0.000049174703     0.002078446173
       5       -0.000025288438    -0.000009225299     0.000047018459
       6       -0.001055797822     0.001214472089     0.001818447285
       7        0.000001345589    -0.000012126143     0.000009341797
       8        0.000012458924     0.000006020432    -0.000019389258
       9        0.000002084818    -0.000001067570    -0.000017118047
      10        0.000006863269     0.000004547433     0.000000051764
      11       -0.000010681657     0.000003574373    -0.000006756597
      12        0.000005140229    -0.000002831188    -0.000002074589
      13        0.000000959713    -0.000001225609    -0.000000362521
      14       -0.000000841421    -0.000001195971     0.000002825057

  **** Optimization is complete! (in 5 steps) ****
    Final optimized geometry and variables:
    Molecular point group: c1

    Geometry (in Angstrom), charge = 0, multiplicity = 1:

    H           -2.433187902790    -0.564312694134     1.089781012533
    N           -1.481346755667    -0.474323104684     1.366467334266
    C           -0.892161181833     0.766594363049     0.882715859407
    H           -0.989628989305    -1.264309988519     1.010390450248
    C            0.465450431902     0.558383269364     0.250169300366
    H           -1.543262985244     1.267779354786     0.173159416300
    H           -0.756666372538     1.453158160852     1.714036306983
    O            0.341746393998    -0.241475844490    -0.884498004105
    H            0.893647460075     1.524248952358    -0.011653148902
    H            1.136184721008     0.085794631096     0.968082817910
    C            1.541255312066    -0.511041995920    -1.531588680551
    H            1.324210089869    -1.135725439265    -2.385839165984
    H            2.020403557650     0.401749527572    -1.878668153654
    H            2.236196679691    -1.036966444421    -0.880545600940

  Mulliken Charges: (a.u.)
   Center  Symbol    Alpha    Beta     Spin     Total
       1     H     0.42777  0.42777  0.00000  0.14446
       2     N     3.69479  3.69479  0.00000 -0.38959
       3     C     3.01253  3.01253  0.00000 -0.02506
       4     H     0.42591  0.42591  0.00000  0.14819
       5     C     2.98056  2.98056  0.00000  0.03889
       6     H     0.46144  0.46144  0.00000  0.07713
       7     H     0.46691  0.46691  0.00000  0.06618
       8     O     4.17693  4.17693  0.00000 -0.35386
       9     H     0.46552  0.46552  0.00000  0.06896
      10     H     0.46768  0.46768  0.00000  0.06465
      11     C     3.03229  3.03229  0.00000 -0.06459
      12     H     0.44661  0.44661  0.00000  0.10678
      13     H     0.47015  0.47015  0.00000  0.05969
      14     H     0.47091  0.47091  0.00000  0.05817

   Total alpha = 21.00000, Total beta = 21.00000, Total charge =  0.00000
