  ==> Input File <==

--------------------------------------------------------------------------
set {
	reference rhf
	basis 6-31G*
}

set_num_threads( 4 )
memory 2 gb

molecule MOL {
0 1

H	 3.463771	 0.168298	 -0.756243
C	 2.752674	 -0.045734	 0.033351
C	 1.322923	 0.120767	 -0.479465
H	 2.934561	 -1.059086	 0.377456
H	 2.958358	 0.631174	 0.856809
C	 0.306652	 -0.176050	 0.621399
H	 1.144658	 -0.551717	 -1.312180
H	 1.166477	 1.131798	 -0.836680
N	 -1.068537	 -0.011044	 0.085269
H	 0.372515	 -1.192590	 0.973735
H	 0.391664	 0.520566	 1.441230
O	 -1.498337	 1.097951	 0.002959
O	 -1.662214	 -1.006958	 -0.197089

	symmetry c1
}
set optking {
	frozen_dihedral = ("
		12 9 6 3
	")
}

ee = optimize('scf')
oeprop('DIPOLE', 'QUADRUPOLE', 'MULLIKEN_CHARGES')
f=open( 'psi4out.xyz', 'w' )
f.write( "13  " )
f.write( str(ee) + "\n" )
f.write( MOL.save_string_xyz() )
f.close()
--------------------------------------------------------------------------

    Molecular point group: c1
  Charge       = 0
  Multiplicity = 1
  Basis Set: 6-31G*
  Basis Set:
  @DF-RHF Final Energy:  -321.73529609082607
    Total Energy =                       -321.7352960908262958
    Molecular point group: c1
  Basis Set: 6-31G*
  Basis Set:
  Basis Set: 6-31G*
  Basis Set:
  @DF-RHF Final Energy:  -321.73158820591323
    Total Energy =                       -321.7315882059130558
  Basis Set: 6-31G*
  Basis Set:
  Basis Set: 6-31G*
  Basis Set:
  @DF-RHF Final Energy:  -321.73549446073662
    Total Energy =                       -321.7354944607365042
  Basis Set: 6-31G*
  Basis Set:
  Basis Set: 6-31G*
  Basis Set:
  @DF-RHF Final Energy:  -321.73550173970409
    Total Energy =                       -321.7355017397039774
  Basis Set: 6-31G*
  Basis Set:
  Basis Set: 6-31G*
  Basis Set:
  @DF-RHF Final Energy:  -321.73557794104215
    Total Energy =                       -321.7355779410420951
  Basis Set: 6-31G*
  Basis Set:
  Basis Set: 6-31G*
  Basis Set:
  @DF-RHF Final Energy:  -321.73558415094885
    Total Energy =                       -321.7355841509486254
  Basis Set: 6-31G*
  Basis Set:
  Charge       = 0
  Multiplicity = 1
  Basis Set: 6-31G*
  Basis Set:

    Orbital Energies (a.u.)
    -----------------------

    Doubly Occupied:

       1A    -20.601423     2A    -20.599483     3A    -15.846838
       4A    -11.299168     5A    -11.257290     6A    -11.240145
       7A     -1.630406     8A     -1.415935     9A     -1.135538
      10A     -1.028558    11A     -0.884188    12A     -0.833277
      13A     -0.758232    14A     -0.734413    15A     -0.722859
      16A     -0.672499    17A     -0.604610    18A     -0.588970
      19A     -0.550972    20A     -0.521624    21A     -0.515208
      22A     -0.483502    23A     -0.473682    24A     -0.447704

  @DF-RHF Final Energy:  -321.73558443964203

   => Energetics <=

    Nuclear Repulsion Energy =            247.4259654933422325
    One-Electron Energy =                -928.6300533071553218
    Two-Electron Energy =                 359.4685033741709503
    DFT Exchange-Correlation Energy =       0.0000000000000000
    Empirical Dispersion Energy =           0.0000000000000000
    PCM Polarization Energy =               0.0000000000000000
    EFP Energy =                            0.0000000000000000
    Total Energy =                       -321.7355844396421389
    Molecular point group: c1
  Basis Set: 6-31G*
  Basis Set:

  -Total Gradient:
     Atom            X                  Y                   Z
    ------   -----------------  -----------------  -----------------
       1       -0.000004130798     0.000000929102    -0.000000319383
       2       -0.000004784119     0.000005873848     0.000006146004
       3       -0.000008071658     0.000012501940    -0.000003679505
       4       -0.000000946037    -0.000000661317    -0.000000996142
       5        0.000002143484    -0.000000389947     0.000001572935
       6        0.000014759411    -0.000014466192    -0.000013000592
       7       -0.000002475574    -0.000000188138    -0.000000793869
       8        0.000006868974     0.000001071124    -0.000008086079
       9       -0.000026704227     0.000051175793     0.000020241480
      10       -0.000018596048     0.000004766187     0.000006446534
      11        0.000000608437     0.000010689340     0.000002340250
      12        0.000052261861     0.000004578106     0.000013687144
      13       -0.000010933697    -0.000075879847    -0.000023558779

  **** Optimization is complete! (in 7 steps) ****
    Final optimized geometry and variables:
    Molecular point group: c1

    Geometry (in Angstrom), charge = 0, multiplicity = 1:

    H            3.460185370514     0.167199057731    -0.770082418740
    C            2.752489124976    -0.043045639631     0.023566953735
    C            1.320574883741     0.119926868102    -0.484195707727
    H            2.936354817380    -1.054475391757     0.372269448597
    H            2.961115528133     0.638330333843     0.842566950038
    C            0.308839815524    -0.172082803590     0.622204027945
    H            1.139241707052    -0.556712179982    -1.312780822569
    H            1.162162112850     1.129209553578    -0.845740873690
    N           -1.068159750734    -0.011804741237     0.089420332083
    H            0.377244863384    -1.186844910515     0.979303487944
    H            0.395739008506     0.528897283370     1.438003206079
    O           -1.490293536571     1.101160467228     0.006201464966
    O           -1.645368740569    -0.998331879465    -0.250035652306

  Mulliken Charges: (a.u.)
   Center  Symbol    Alpha    Beta     Spin     Total
       1     H     0.40726  0.40726  0.00000  0.18547
       2     C     3.24808  3.24808  0.00000 -0.49616
       3     C     3.17316  3.17316  0.00000 -0.34632
       4     H     0.41459  0.41459  0.00000  0.17082
       5     H     0.41459  0.41459  0.00000  0.17082
       6     C     3.08259  3.08259  0.00000 -0.16518
       7     H     0.40085  0.40085  0.00000  0.19830
       8     H     0.39703  0.39703  0.00000  0.20594
       9     N     3.22399  3.22399  0.00000  0.55202
      10     H     0.38789  0.38789  0.00000  0.22421
      11     H     0.38895  0.38895  0.00000  0.22210
      12     O     4.23131  4.23131  0.00000 -0.46262
      13     O     4.22970  4.22970  0.00000 -0.45940

   Total alpha = 24.00000, Total beta = 24.00000, Total charge = -0.00000
