  ==> Input File <==

--------------------------------------------------------------------------
set {
	reference rhf
	basis cc-pvtz
}

set_num_threads( 4 )
memory 2 gb

molecule MOL {
0 1

H	 -3.034039	 -0.667848	 0.004703
O	 -2.240597	 -1.171748	 0.000934
C	 -1.159675	 -0.364500	 0.000370
C	 -0.563970	 0.075674	 1.164756
C	 -0.654552	 0.019088	 -1.232418
H	 -0.955093	 -0.218846	 2.121489
C	 0.541522	 0.904686	 1.081952
H	 -1.142278	 -0.338761	 -2.118421
C	 0.449333	 0.843892	 -1.313142
H	 1.005906	 1.251639	 1.985690
C	 1.047898	 1.289579	 -0.138804
C	 1.013092	 1.241856	 -2.653830
H	 1.904381	 1.935135	 -0.185235
H	 1.270872	 2.293567	 -2.670444
H	 0.305810	 1.054230	 -3.450257
H	 1.915449	 0.680276	 -2.870677

	symmetry c1
}
set optking {
	frozen_dihedral = ("
		5 3 2 1
	")
}

ee = optimize('scf')
oeprop('DIPOLE', 'QUADRUPOLE', 'MULLIKEN_CHARGES')
f=open( 'psi4out.xyz', 'w' )
f.write( "16  " )
f.write( str(ee) + "\n" )
f.write( MOL.save_string_xyz() )
f.close()
--------------------------------------------------------------------------

    Molecular point group: c1
  Charge       = 0
  Multiplicity = 1
  Basis Set: CC-PVTZ
  Basis Set:
  @DF-RHF Final Energy:  -344.71529641882597
    Total Energy =                       -344.7152964188259148
    Molecular point group: c1
  Basis Set: CC-PVTZ
  Basis Set:
  Basis Set: CC-PVTZ
  Basis Set:
  @DF-RHF Final Energy:  -344.71612097801392
    Total Energy =                       -344.7161209780134641
  Basis Set: CC-PVTZ
  Basis Set:
  Basis Set: CC-PVTZ
  Basis Set:
  @DF-RHF Final Energy:  -344.71618202228746
    Total Energy =                       -344.7161820222870574
  Basis Set: CC-PVTZ
  Basis Set:
  Basis Set: CC-PVTZ
  Basis Set:
  @DF-RHF Final Energy:  -344.71618833441397
    Total Energy =                       -344.7161883344138005
  Basis Set: CC-PVTZ
  Basis Set:
  Basis Set: CC-PVTZ
  Basis Set:
  @DF-RHF Final Energy:  -344.71618948300483
    Total Energy =                       -344.7161894830053939
  Basis Set: CC-PVTZ
  Basis Set:
  Charge       = 0
  Multiplicity = 1
  Basis Set: CC-PVTZ
  Basis Set:

    Orbital Energies (a.u.)
    -----------------------

    Doubly Occupied:

       1A    -20.568733     2A    -11.286226     3A    -11.240428
       4A    -11.230957     5A    -11.220948     6A    -11.219241
       7A    -11.219157     8A    -11.218938     9A     -1.395354
      10A     -1.155051    11A     -1.046936    12A     -1.007341
      13A     -0.939316    14A     -0.831885    15A     -0.809811
      16A     -0.721398    17A     -0.679726    18A     -0.659242
      19A     -0.622187    20A     -0.593272    21A     -0.578192
      22A     -0.570499    23A     -0.552814    24A     -0.514327
      25A     -0.505704    26A     -0.485043    27A     -0.466469
      28A     -0.334094    29A     -0.322954

  @DF-RHF Final Energy:  -344.71619005841654

   => Energetics <=

    Nuclear Repulsion Energy =            345.8023220487255571
    One-Electron Energy =               -1153.0445409251958608
    Two-Electron Energy =                 462.5260288180534189
    DFT Exchange-Correlation Energy =       0.0000000000000000
    Empirical Dispersion Energy =           0.0000000000000000
    PCM Polarization Energy =               0.0000000000000000
    EFP Energy =                            0.0000000000000000
    Total Energy =                       -344.7161900584169416
    Molecular point group: c1
  Basis Set: CC-PVTZ
  Basis Set:

  -Total Gradient:
     Atom            X                  Y                   Z
    ------   -----------------  -----------------  -----------------
       1       -0.000009686447    -0.000003155407     0.000054512275
       2       -0.000076512015    -0.000058561440    -0.000076906383
       3        0.000084137782     0.000077151268     0.000095467346
       4        0.000003884040     0.000013744456     0.000014225486
       5       -0.000044817859    -0.000023609489    -0.000078297830
       6       -0.000003956889    -0.000005121750    -0.000003241341
       7       -0.000050296278    -0.000016892821    -0.000013585406
       8        0.000023350127     0.000006656348     0.000034943844
       9        0.000046559993     0.000009838366     0.000014721707
      10        0.000002989408     0.000000143370     0.000000594221
      11        0.000026969461    -0.000018587746    -0.000026297391
      12        0.000002597214     0.000004155208    -0.000002578709
      13       -0.000007797237    -0.000001289551    -0.000008867895
      14       -0.000009901590     0.000010296343    -0.000004983860
      15        0.000005828993    -0.000007492506    -0.000010195358
      16        0.000006651296     0.000012725356     0.000010489298

  **** Optimization is complete! (in 6 steps) ****
    Final optimized geometry and variables:
    Molecular point group: c1

    Geometry (in Angstrom), charge = 0, multiplicity = 1:

    H           -2.799897924039    -1.029916457386     0.453879873054
    O           -1.997058335827    -1.520846710474     0.452754228147
    C           -0.920626997562    -0.677811181232     0.399138441380
    C           -0.325420241771    -0.247633678755     1.565543938144
    C           -0.411414800278    -0.299431543693    -0.829773408168
    H           -0.724338063878    -0.560622658516     2.510565779302
    C            0.783279283498     0.575521684237     1.488813288631
    H           -0.890285816994    -0.663423425611    -1.718843143175
    C            0.699227104886     0.522407030244    -0.912074214249
    H            1.252632209277     0.917669767701     2.391679330345
    C            1.290602067851     0.960329627900     0.265146772253
    C            1.272098680178     0.915722101473    -2.250723921968
    H            2.151847694235     1.600614998690     0.222761738487
    H            1.544665419969     1.963788879806    -2.265486623129
    H            0.563385833025     0.740617740609    -3.049028011882
    H            2.166283859542     0.341929944878    -2.469440186799

  Mulliken Charges: (a.u.)
   Center  Symbol    Alpha    Beta     Spin     Total
       1     H     0.38902  0.38902  0.00000  0.22197
       2     O     4.19258  4.19258  0.00000 -0.38517
       3     C     2.85713  2.85713  0.00000  0.28574
       4     C     3.12415  3.12415  0.00000 -0.24830
       5     C     3.14376  3.14376  0.00000 -0.28753
       6     H     0.41751  0.41751  0.00000  0.16499
       7     C     3.06081  3.06081  0.00000 -0.12161
       8     H     0.42037  0.42037  0.00000  0.15926
       9     C     2.94633  2.94633  0.00000  0.10735
      10     H     0.42220  0.42220  0.00000  0.15561
      11     C     3.10733  3.10733  0.00000 -0.21465
      12     C     3.14610  3.14610  0.00000 -0.29221
      13     H     0.42692  0.42692  0.00000  0.14616
      14     H     0.44839  0.44839  0.00000  0.10322
      15     H     0.45099  0.45099  0.00000  0.09803
      16     H     0.44642  0.44642  0.00000  0.10716

   Total alpha = 29.00000, Total beta = 29.00000, Total charge = -0.00000
