  ==> Input File <==

--------------------------------------------------------------------------
set {
	reference rhf
	basis 6-31G*
}

set_num_threads( 4 )
memory 2 gb

molecule MOL {
0 1

O	 3.225979	 0.970355	 -0.599647
C	 2.701189	 0.057885	 -0.047330
C	 1.245376	 -0.013843	 0.345420
O	 3.347903	 -1.046386	 0.304773
C	 0.455112	 1.231400	 -0.050772
H	 0.838542	 -0.913825	 -0.103701
H	 1.208210	 -0.175333	 1.419774
C	 -0.998893	 1.219485	 0.433193
H	 0.482531	 1.345121	 -1.130325
H	 0.957290	 2.103070	 0.354729
C	 -1.883438	 0.145884	 -0.207175
H	 -1.431207	 2.195402	 0.224832
H	 -1.019646	 1.105716	 1.516076
C	 -3.347647	 0.245583	 0.225435
H	 -1.822183	 0.231698	 -1.291012
H	 -1.510341	 -0.844814	 0.042401
C	 -4.140324	 1.295203	 -0.555649
H	 -3.393794	 0.478839	 1.287836
H	 -3.825175	 -0.725784	 0.106632
C	 -5.600553	 1.391124	 -0.114933
H	 -3.663930	 2.266309	 -0.438838
H	 -4.099004	 1.061307	 -1.617424
H	 -6.135813	 2.143019	 -0.686560
H	 -5.676300	 1.658277	 0.935347
H	 -6.114461	 0.443788	 -0.251782
C	 4.728119	 -1.109107	 -0.004993
H	 4.882018	 -1.033965	 -1.071845
H	 5.068212	 -2.067527	 0.355250
H	 5.265056	 -0.311663	 0.488280

	symmetry c1
}
set optking {
	frozen_dihedral = ("
		17 14 11 15
	")
}

ee = optimize('scf')
oeprop('DIPOLE', 'QUADRUPOLE', 'MULLIKEN_CHARGES')
f=open( 'psi4out.xyz', 'w' )
f.write( "29  " )
f.write( str(ee) + "\n" )
f.write( MOL.save_string_xyz() )
f.close()
--------------------------------------------------------------------------

    Molecular point group: c1
  Charge       = 0
  Multiplicity = 1
  Basis Set: 6-31G*
  Basis Set:
  @DF-RHF Final Energy:  -501.04153038024640
    Total Energy =                       -501.0415303802460585
    Molecular point group: c1
  Basis Set: 6-31G*
  Basis Set:
  Basis Set: 6-31G*
  Basis Set:
  @DF-RHF Final Energy:  -501.04169924770258
    Total Energy =                       -501.0416992477026952
  Basis Set: 6-31G*
  Basis Set:
  Basis Set: 6-31G*
  Basis Set:
  @DF-RHF Final Energy:  -501.04172169869526
    Total Energy =                       -501.0417216986957101
  Basis Set: 6-31G*
  Basis Set:
  Basis Set: 6-31G*
  Basis Set:
  @DF-RHF Final Energy:  -501.04171218737667
    Total Energy =                       -501.0417121873763335
  Basis Set: 6-31G*
  Basis Set:
  Basis Set: 6-31G*
  Basis Set:
  @DF-RHF Final Energy:  -501.04173511659633
    Total Energy =                       -501.0417351165968967
  Basis Set: 6-31G*
  Basis Set:
  Basis Set: 6-31G*
  Basis Set:
  @DF-RHF Final Energy:  -501.04171810072307
    Total Energy =                       -501.0417181007229601
  Basis Set: 6-31G*
  Basis Set:
  Basis Set: 6-31G*
  Basis Set:
  @DF-RHF Final Energy:  -501.04173603102447
    Total Energy =                       -501.0417360310245840
  Basis Set: 6-31G*
  Basis Set:
  Charge       = 0
  Multiplicity = 1
  Basis Set: 6-31G*
  Basis Set:

    Orbital Energies (a.u.)
    -----------------------

    Doubly Occupied:

       1A    -20.603328     2A    -20.545151     3A    -11.371963
       4A    -11.280630     5A    -11.234673     6A    -11.218968
       7A    -11.217310     8A    -11.216115     9A    -11.215529
      10A    -11.214575    11A    -11.208838    12A     -1.469024
      13A     -1.362465    14A     -1.097823    15A     -1.065921
      16A     -1.018034    17A     -0.976820    18A     -0.928560
      19A     -0.862142    20A     -0.809628    21A     -0.781566
      22A     -0.763325    23A     -0.700907    24A     -0.682161
      25A     -0.671885    26A     -0.635613    27A     -0.629470
      28A     -0.616909    29A     -0.595311    30A     -0.580187
      31A     -0.561894    32A     -0.556499    33A     -0.537690
      34A     -0.527203    35A     -0.522694    36A     -0.499807
      37A     -0.494913    38A     -0.484183    39A     -0.471926
      40A     -0.462267    41A     -0.455942    42A     -0.446467
      43A     -0.443261    44A     -0.436938

  @DF-RHF Final Energy:  -501.04173601644936

   => Energetics <=

    Nuclear Repulsion Energy =            612.7366274504951207
    One-Electron Energy =               -1896.6036883174454033
    Two-Electron Energy =                 782.8253248505001238
    DFT Exchange-Correlation Energy =       0.0000000000000000
    Empirical Dispersion Energy =           0.0000000000000000
    PCM Polarization Energy =               0.0000000000000000
    EFP Energy =                            0.0000000000000000
    Total Energy =                       -501.0417360164502725
    Molecular point group: c1
  Basis Set: 6-31G*
  Basis Set:

  -Total Gradient:
     Atom            X                  Y                   Z
    ------   -----------------  -----------------  -----------------
       1        0.000001569604     0.000004977809     0.000008643465
       2       -0.000006835807    -0.000009981032    -0.000023197235
       3       -0.000000066815     0.000004582765     0.000009502335
       4        0.000002096496     0.000003335594     0.000007501812
       5       -0.000001365777    -0.000003308724    -0.000000517504
       6       -0.000000121711     0.000000347571    -0.000001682116
       7       -0.000002196992    -0.000001252143     0.000000483389
       8        0.000007805816     0.000003725052     0.000003052970
       9       -0.000002038466    -0.000002073358     0.000001061456
      10       -0.000001401997     0.000003063236     0.000000772749
      11       -0.000364017763    -0.002853844655    -0.000593016890
      12        0.000008746119     0.000001637859     0.000000313316
      13       -0.000003216417     0.000000831252     0.000000298171
      14        0.000525004719     0.001901455797     0.001434182147
      15        0.000183271801     0.001971445243     0.000146144913
      16        0.000002786260     0.000001189303    -0.000002191718
      17       -0.000348511097    -0.001027313380    -0.000995581131
      18       -0.000004268948    -0.000003164411     0.000004232170
      19        0.000002053626     0.000002684823    -0.000002085153
      20        0.000004109913     0.000004253869     0.000004812729
      21       -0.000003068352    -0.000000157678    -0.000003835744
      22       -0.000003545072    -0.000002127322    -0.000000545750
      23        0.000003121171     0.000001467140     0.000002244139
      24       -0.000000842131    -0.000001905377     0.000002371371
      25        0.000000232882     0.000000499928    -0.000003463673
      26        0.000000539432    -0.000000319417     0.000000488841
      27       -0.000000293184     0.000000073439     0.000000080449
      28        0.000000185602     0.000000008440     0.000000062633
      29        0.000000267081    -0.000000131626    -0.000000132141

  **** Optimization is complete! (in 8 steps) ****
    Final optimized geometry and variables:
    Molecular point group: c1

    Geometry (in Angstrom), charge = 0, multiplicity = 1:

    O            3.210743014227     0.586372281570    -0.565673414243
    C            2.684944162003    -0.331017350768    -0.022530062345
    C            1.229911614591    -0.403586509836     0.372974041760
    O            3.329736530964    -1.440802324203     0.315503241008
    C            0.441810471013     0.847985930270    -0.007470920085
    H            0.819958539591    -1.297570657006    -0.085163928901
    H            1.194971672512    -0.576945850185     1.445565584464
    C           -1.009670484913     0.837204696692     0.484244049122
    H            0.463781910347     0.971231688799    -1.086143196754
    H            0.949476888048     1.714183435208     0.402924059847
    C           -1.895630741075    -0.241998639495    -0.150156731271
    H           -1.437089981111     1.815457308406     0.281595635679
    H           -1.024504729825     0.720215695368     1.566910931233
    C           -3.373913330337    -0.133510271474     0.253401965115
    H           -1.812818497219    -0.168967258937    -1.233344880043
    H           -1.525141469538    -1.224916294057     0.126113563694
    C           -4.167368121716     0.904834387610    -0.544894364489
    H           -3.445094925721     0.088360323870     1.316779464905
    H           -3.850749408031    -1.101768176784     0.116281955855
    C           -5.628128144602     0.999312221056    -0.105352708520
    H           -3.703382597643     1.883539371540    -0.451315964434
    H           -4.124392975683     0.646722101188    -1.600721014829
    H           -6.170280299364     1.731435583912    -0.695825045651
    H           -5.705598650822     1.292909413127     0.937730742193
    H           -6.133806022369     0.044217468849    -0.217110397691
    C            4.709054352958    -1.503432342499     0.001768427612
    H            4.860641766960    -1.416625235093    -1.064534664330
    H            5.047577455079    -2.466697622377     0.350363020657
    H            5.249140453531    -0.712946096899     0.502744756803

  Mulliken Charges: (a.u.)
   Center  Symbol    Alpha    Beta     Spin     Total
       1     O     4.28597  4.28597  0.00000 -0.57195
       2     C     2.60479  2.60479  0.00000  0.79041
       3     C     3.20984  3.20984  0.00000 -0.41969
       4     O     4.30745  4.30745  0.00000 -0.61491
       5     C     3.15368  3.15368  0.00000 -0.30737
       6     H     0.39885  0.39885  0.00000  0.20230
       7     H     0.40125  0.40125  0.00000  0.19749
       8     C     3.15807  3.15807  0.00000 -0.31615
       9     H     0.41317  0.41317  0.00000  0.17366
      10     H     0.40881  0.40881  0.00000  0.18239
      11     C     3.15736  3.15736  0.00000 -0.31473
      12     H     0.41706  0.41706  0.00000  0.16588
      13     H     0.42392  0.42392  0.00000  0.15215
      14     C     3.15293  3.15293  0.00000 -0.30585
      15     H     0.42245  0.42245  0.00000  0.15511
      16     H     0.42097  0.42097  0.00000  0.15807
      17     C     3.15294  3.15294  0.00000 -0.30589
      18     H     0.42331  0.42331  0.00000  0.15338
      19     H     0.42166  0.42166  0.00000  0.15669
      20     C     3.23936  3.23936  0.00000 -0.47872
      21     H     0.42180  0.42180  0.00000  0.15640
      22     H     0.42256  0.42256  0.00000  0.15489
      23     H     0.41909  0.41909  0.00000  0.16182
      24     H     0.42167  0.42167  0.00000  0.15667
      25     H     0.42189  0.42189  0.00000  0.15622
      26     C     3.09239  3.09239  0.00000 -0.18479
      27     H     0.40909  0.40909  0.00000  0.18181
      28     H     0.40852  0.40852  0.00000  0.18296
      29     H     0.40913  0.40913  0.00000  0.18173

   Total alpha = 44.00000, Total beta = 44.00000, Total charge =  0.00000
