  ==> Input File <==

--------------------------------------------------------------------------
set {
	reference rhf
	basis 6-31G*
}

set_num_threads( 1 )
memory 2 gb

molecule MOL {
0 1

O	 1.006984	 -0.821845	 -4.971414
C	 0.497712	 -0.101944	 -4.167164
C	 0.375817	 -0.522231	 -2.712926
C	 -0.019524	 1.268582	 -4.543329
C	 1.710164	 -0.331892	 -1.973716
H	 0.099003	 -1.570745	 -2.695732
H	 -0.407781	 0.042749	 -2.216139
C	 1.631333	 -0.777471	 -0.511575
H	 2.472781	 -0.891986	 -2.502956
H	 2.004917	 0.715620	 -2.013543
C	 2.915987	 -0.544314	 0.291766
H	 1.370159	 -1.833411	 -0.472763
H	 0.817068	 -0.243835	 -0.025720
C	 3.373361	 0.914346	 0.347591
H	 3.708709	 -1.142521	 -0.150311
H	 2.780642	 -0.921148	 1.303579
H	 3.506512	 1.320010	 -0.651625
H	 4.322697	 0.999599	 0.867103
H	 2.660624	 1.545032	 0.868198
H	 -1.100832	 1.292946	 -4.436347
H	 0.245151	 1.496228	 -5.566514
H	 0.384891	 2.027555	 -3.879844

	symmetry c1
}
set optking {
	frozen_dihedral = ("
		6 3 2 1,
		6 3 5 8,
		3 5 8 12
	")
}

ee = energy('scf')
oeprop('DIPOLE', 'QUADRUPOLE', 'MULLIKEN_CHARGES')
f=open( 'psi4out.xyz', 'w' )
f.write( "22  " )
f.write( str(ee) + "\n" )
f.write( MOL.save_string_xyz() )
f.close()
--------------------------------------------------------------------------

    Molecular point group: c1

    Geometry (in Angstrom), charge = 0, multiplicity = 1:

       Center              X                  Y                   Z               Mass
    ------------   -----------------  -----------------  -----------------  -----------------
           O         -0.438781332415    -0.721707436759    -2.688497212227    15.994914619560
           C         -0.948053332415    -0.001806436759    -1.884247212227    12.000000000000
           C         -1.069948332415    -0.422093436759    -0.430009212227    12.000000000000
           C         -1.465289332415     1.368719563241    -2.260412212227    12.000000000000
           C          0.264398667585    -0.231754436759     0.309200787773    12.000000000000
           H         -1.346762332415    -1.470607436759    -0.412815212227     1.007825032070
           H         -1.853546332415     0.142886563241     0.066777787773     1.007825032070
           C          0.185567667585    -0.677333436759     1.771341787773    12.000000000000
           H          1.027015667585    -0.791848436759    -0.220039212227     1.007825032070
           H          0.559151667585     0.815757563241     0.269373787773     1.007825032070
           C          1.470221667585    -0.444176436759     2.574682787773    12.000000000000
           H         -0.075606332415    -1.733273436759     1.810153787773     1.007825032070
           H         -0.628697332415    -0.143697436759     2.257196787773     1.007825032070
           C          1.927595667585     1.014483563241     2.630507787773    12.000000000000
           H          2.262943667585    -1.042383436759     2.132605787773     1.007825032070
           H          1.334876667585    -0.821010436759     3.586495787773     1.007825032070
           H          2.060746667585     1.420147563241     1.631291787773     1.007825032070
           H          2.876931667585     1.099736563241     3.150019787773     1.007825032070
           H          1.214858667585     1.645169563241     3.151114787773     1.007825032070
           H         -2.546597332415     1.393083563241    -2.153430212227     1.007825032070
           H         -1.200614332415     1.596365563241    -3.283597212227     1.007825032070
           H         -1.060874332415     2.127692563241    -1.596927212227     1.007825032070

  Charge       = 0
  Multiplicity = 1
  Basis Set: 6-31G*
  Basis Set:

    Orbital Energies (a.u.)
    -----------------------

    Doubly Occupied:

       1A    -20.547341     2A    -11.324501     3A    -11.229529
       4A    -11.228957     5A    -11.228247     6A    -11.222522
       7A    -11.220927     8A    -11.213173     9A     -1.393095
      10A     -1.096289    11A     -1.044551    12A     -0.999546
      13A     -0.938112    14A     -0.859943    15A     -0.785355
      16A     -0.733109    17A     -0.661324    18A     -0.646771
      19A     -0.627795    20A     -0.618773    21A     -0.599213
      22A     -0.584833    23A     -0.554593    24A     -0.550271
      25A     -0.531302    26A     -0.521932    27A     -0.500595
      28A     -0.486660    29A     -0.467265    30A     -0.465357
      31A     -0.461634    32A     -0.396304

  @DF-RHF Final Energy:  -348.09715971941517

   => Energetics <=

    Nuclear Repulsion Energy =            373.8416162461643921
    One-Electron Energy =               -1212.3979553071426380
    Two-Electron Energy =                 490.4591793415627308
    DFT Exchange-Correlation Energy =       0.0000000000000000
    Empirical Dispersion Energy =           0.0000000000000000
    PCM Polarization Energy =               0.0000000000000000
    EFP Energy =                            0.0000000000000000
    Total Energy =                       -348.0971597194154583

  Mulliken Charges: (a.u.)
   Center  Symbol    Alpha    Beta     Spin     Total
       1     O     4.26249  4.26249  0.00000 -0.52498
       2     C     2.73712  2.73712  0.00000  0.52576
       3     C     3.19920  3.19920  0.00000 -0.39840
       4     C     3.28962  3.28962  0.00000 -0.57924
       5     C     3.16477  3.16477  0.00000 -0.32954
       6     H     0.40138  0.40138  0.00000  0.19724
       7     H     0.41687  0.41687  0.00000  0.16627
       8     C     3.15240  3.15240  0.00000 -0.30480
       9     H     0.40577  0.40577  0.00000  0.18845
      10     H     0.41898  0.41898  0.00000  0.16204
      11     C     3.15316  3.15316  0.00000 -0.30633
      12     H     0.41814  0.41814  0.00000  0.16373
      13     H     0.42445  0.42445  0.00000  0.15110
      14     C     3.24308  3.24308  0.00000 -0.48616
      15     H     0.42107  0.42107  0.00000  0.15786
      16     H     0.41897  0.41897  0.00000  0.16207
      17     H     0.42009  0.42009  0.00000  0.15981
      18     H     0.41708  0.41708  0.00000  0.16584
      19     H     0.42170  0.42170  0.00000  0.15661
      20     H     0.40690  0.40690  0.00000  0.18620
      21     H     0.39708  0.39708  0.00000  0.20585
      22     H     0.40969  0.40969  0.00000  0.18063

   Total alpha = 32.00000, Total beta = 32.00000, Total charge = -0.00000
