                              Psi4 1.0.54 Driver

  ==> Input File <==

--------------------------------------------------------------------------
set {
	reference rhf
	basis cc-pvtz
}

set_num_threads( 4 )
memory 2 gb

molecule MOL {
0 1

H	 -2.144218	 0.228506	 -1.023225
N	 -1.851927	 0.161443	 -0.071573
C	 -0.561396	 -0.500007	 0.035200
H	 -2.556307	 -0.350217	 0.417700
C	 0.575129	 0.507849	 -0.048832
H	 -0.478089	 -1.200753	 -0.788956
H	 -0.456191	 -1.081816	 0.952176
C	 1.951750	 -0.141983	 0.035101
H	 0.478254	 1.061643	 -0.975981
H	 0.467676	 1.231891	 0.755499
H	 2.101550	 -0.848142	 -0.774949
H	 2.738260	 0.600794	 -0.026526
H	 2.078939	 -0.679792	 0.968824

	symmetry c1
}
set optking {
	frozen_dihedral = ("
		1 2 3 6
	")
}

ee,wfn = optimize('scf', return_wfn=True)
oeprop( wfn, 'DIPOLE', 'QUADRUPOLE', 'MULLIKEN_CHARGES')
f=open( 'psi4out.xyz', 'w' )
f.write( "13  " )
f.write( str(ee) + "\n" )
f.write( MOL.save_string_xyz() )
f.close()
--------------------------------------------------------------------------

    Molecular point group: c1
  Charge       = 0
  Multiplicity = 1
  Basis Set: CC-PVTZ
  Basis Set:
  @DF-RHF Final Energy:  -173.34966917185542
    Total Energy =                       -173.3496691718553109
    Molecular point group: c1
  Basis Set: CC-PVTZ
  Basis Set:
  Basis Set: CC-PVTZ
  Basis Set:
  @DF-RHF Final Energy:  -173.34419053716616
    Total Energy =                       -173.3441905371661846
  Basis Set: CC-PVTZ
  Basis Set:
  Basis Set: CC-PVTZ
  Basis Set:
  @DF-RHF Final Energy:  -173.35103976132146
    Total Energy =                       -173.3510397613212888
  Basis Set: CC-PVTZ
  Basis Set:
  Basis Set: CC-PVTZ
  Basis Set:
  @DF-RHF Final Energy:  -173.35115432052461
    Total Energy =                       -173.3511543205246994
  Basis Set: CC-PVTZ
  Basis Set:
  Basis Set: CC-PVTZ
  Basis Set:
  @DF-RHF Final Energy:  -173.35116205859666
    Total Energy =                       -173.3511620585966284
  Basis Set: CC-PVTZ
  Basis Set:
  Basis Set: CC-PVTZ
  Basis Set:
  @DF-RHF Final Energy:  -173.35116344418671
    Total Energy =                       -173.3511634441866818
  Basis Set: CC-PVTZ
  Basis Set:
  Charge       = 0
  Multiplicity = 1
  Basis Set: CC-PVTZ
  Basis Set:

    Orbital Energies (a.u.)
    -----------------------

    Doubly Occupied:

       1A    -15.527187     2A    -11.239111     3A    -11.206199
       4A    -11.205046     5A     -1.177429     6A     -1.034877
       7A     -0.899279     8A     -0.796080     9A     -0.672272
      10A     -0.618648    11A     -0.603285    12A     -0.571274
      13A     -0.522494    14A     -0.490706    15A     -0.482937
      16A     -0.465635    17A     -0.384226

  @DF-RHF Final Energy:  -173.35116347175438

   => Energetics <=

    Nuclear Repulsion Energy =            131.7299145841542440
    One-Electron Energy =                -494.3687929417407076
    Two-Electron Energy =                 189.2877148858320311
    DFT Exchange-Correlation Energy =       0.0000000000000000
    Empirical Dispersion Energy =           0.0000000000000000
    PCM Polarization Energy =               0.0000000000000000
    EFP Energy =                            0.0000000000000000
    Total Energy =                       -173.3511634717544325
    Molecular point group: c1
  Basis Set: CC-PVTZ
  Basis Set:

  -Total Gradient:
     Atom            X                  Y                   Z
    ------   -----------------  -----------------  -----------------
       1       -0.000681469726    -0.002554198712     0.000249442405
       2        0.000959350232     0.003731086605    -0.000691553477
       3       -0.000717788461    -0.003130417938     0.001868989241
       4        0.000000603624     0.000006685978    -0.000005679068
       5       -0.000003739406    -0.000014791231    -0.000016226673
       6        0.000445520938     0.001962164487    -0.001405641492
       7       -0.000003500283    -0.000000453690    -0.000003908932
       8        0.000005625495     0.000004296666     0.000007589361
       9        0.000001853963     0.000000535423     0.000001727436
      10        0.000000741431    -0.000006649594    -0.000003779858
      11       -0.000003891586     0.000002524290     0.000000888104
      12       -0.000001137014    -0.000002046340     0.000002293105
      13       -0.000002169206     0.000001264054    -0.000004140153

  **** Optimization is complete! (in 7 steps) ****
    Final optimized geometry and variables:
    Molecular point group: c1

    Geometry (in Angstrom), charge = 0, multiplicity = 1:

    H           -2.275551401601    -0.180047328552    -0.726700318823
    N           -1.844402392243    -0.210482337323     0.172663347531
    C           -0.441604517509    -0.597833607763     0.070834807768
    H           -2.359064596880    -0.877320735972     0.706653195238
    C            0.460244228204     0.623468455276    -0.054945398287
    H           -0.255770291336    -1.253163606879    -0.779253687769
    H           -0.170146544092    -1.150847691227     0.963158204649
    C            1.936789174541     0.261611803352    -0.170660594705
    H            0.154670582272     1.197306807414    -0.925627678571
    H            0.296456894737     1.263347081139     0.804962737530
    H            2.126009620175    -0.354854060999    -1.043609749716
    H            2.551556819700     1.149822311005    -0.256362315878
    H            2.275655050955    -0.289924117677     0.700568571877

  Mulliken Charges: (a.u.)
   Center  Symbol    Alpha    Beta     Spin     Total
       1     H     0.43033  0.43033  0.00000  0.13933
       2     N     3.69093  3.69093  0.00000 -0.38186
       3     C     3.03397  3.03397  0.00000 -0.06795
       4     H     0.42769  0.42769  0.00000  0.14461
       5     C     3.06685  3.06685  0.00000 -0.13370
       6     H     0.46515  0.46515  0.00000  0.06970
       7     H     0.45689  0.45689  0.00000  0.08621
       8     C     3.15469  3.15469  0.00000 -0.30938
       9     H     0.45935  0.45935  0.00000  0.08130
      10     H     0.45262  0.45262  0.00000  0.09476
      11     H     0.45737  0.45737  0.00000  0.08525
      12     H     0.44765  0.44765  0.00000  0.10470
      13     H     0.45649  0.45649  0.00000  0.08702

   Total alpha = 17.00000, Total beta = 17.00000, Total charge =  0.00000

*** Psi4 exiting successfully. Buy a developer a beer!
