                              Psi4 1.0.54 Driver

  ==> Input File <==

--------------------------------------------------------------------------
set {
	reference rhf
	basis cc-pvtz
}

set_num_threads( 4 )
memory 2 gb

molecule MOL {
0 1

H	 -2.503913	 -0.626993	 0.769958
O	 -2.174657	 0.124748	 1.227536
C	 -1.100346	 0.685851	 0.526707
C	 0.149375	 -0.162722	 0.652852
H	 -1.339056	 0.828037	 -0.522545
H	 -0.918183	 1.660567	 0.956157
O	 1.172093	 0.457955	 -0.054438
H	 -0.037865	 -1.162176	 0.256710
H	 0.410182	 -0.271762	 1.703406
C	 2.395478	 -0.199028	 -0.000366
H	 2.505946	 -0.901710	 -0.823354
H	 3.174616	 0.545641	 -0.071768
H	 2.513730	 -0.742241	 0.934223

	symmetry c1
}
set optking {
	frozen_dihedral = ("
		4 7 10 13
	")
}

ee,wfn = optimize('scf', return_wfn=True)
oeprop( wfn, 'DIPOLE', 'QUADRUPOLE', 'MULLIKEN_CHARGES')
f=open( 'psi4out.xyz', 'w' )
f.write( "13  " )
f.write( str(ee) + "\n" )
f.write( MOL.save_string_xyz() )
f.close()
--------------------------------------------------------------------------

    Molecular point group: c1
  Charge       = 0
  Multiplicity = 1
  Basis Set: CC-PVTZ
  Basis Set:
  @DF-RHF Final Energy:  -268.06036700597906
    Total Energy =                       -268.0603670059791170
    Molecular point group: c1
  Basis Set: CC-PVTZ
  Basis Set:
  Basis Set: CC-PVTZ
  Basis Set:
  @DF-RHF Final Energy:  -268.06046020686426
    Total Energy =                       -268.0604602068642635
  Basis Set: CC-PVTZ
  Basis Set:
  Basis Set: CC-PVTZ
  Basis Set:
  @DF-RHF Final Energy:  -268.06049202455569
    Total Energy =                       -268.0604920245557423
  Basis Set: CC-PVTZ
  Basis Set:
  Charge       = 0
  Multiplicity = 1
  Basis Set: CC-PVTZ
  Basis Set:

    Orbital Energies (a.u.)
    -----------------------

    Doubly Occupied:

       1A    -20.554300     2A    -20.552745     3A    -11.269620
       4A    -11.267595     5A    -11.267231     6A     -1.389836
       7A     -1.368861     8A     -1.019620     9A     -0.914151
      10A     -0.842744    11A     -0.711811    12A     -0.674480
      13A     -0.662019    14A     -0.639543    15A     -0.596729
      16A     -0.572596    17A     -0.547086    18A     -0.492640
      19A     -0.482872    20A     -0.441438    21A     -0.421587

  @DF-RHF Final Energy:  -268.06049229125955

   => Energetics <=

    Nuclear Repulsion Energy =            190.3325519387550457
    One-Electron Energy =                -743.4070875570548651
    Two-Electron Energy =                 285.0140433270400990
    DFT Exchange-Correlation Energy =       0.0000000000000000
    Empirical Dispersion Energy =           0.0000000000000000
    PCM Polarization Energy =               0.0000000000000000
    EFP Energy =                            0.0000000000000000
    Total Energy =                       -268.0604922912597203
    Molecular point group: c1
  Basis Set: CC-PVTZ
  Basis Set:

  -Total Gradient:
     Atom            X                  Y                   Z
    ------   -----------------  -----------------  -----------------
       1        0.000003199077     0.000006862094     0.000000330282
       2       -0.000051857317     0.000007905339     0.000029687408
       3       -0.000002088846    -0.000044458577     0.000000964046
       4        0.000518701369     0.001176201422     0.001843693062
       5        0.000013799841     0.000005982169     0.000003785974
       6       -0.000006949422    -0.000004403155    -0.000000925530
       7       -0.001027669653    -0.002365054045    -0.002982431264
       8        0.000002049817     0.000009625876     0.000003654867
       9        0.000001724454     0.000009594984    -0.000016545026
      10        0.001718013560     0.003459874637     0.002287679600
      11       -0.000011877537     0.000001697862     0.000005696375
      12        0.000015491734     0.000003366715     0.000004193877
      13       -0.001172537078    -0.002267195322    -0.001179783672

  **** Optimization is complete! (in 4 steps) ****
    Final optimized geometry and variables:
    Molecular point group: c1

    Geometry (in Angstrom), charge = 0, multiplicity = 1:

    H           -2.574163757922    -0.793565096640     0.304100669370
    O           -2.243669069658    -0.039539536001     0.757016106978
    C           -1.170000702111     0.516764736175     0.051153322361
    C            0.079019304437    -0.332353330612     0.179823226448
    H           -1.410698116872     0.654199925231    -0.998233946633
    H           -0.985413915152     1.493329579168     0.475394214459
    O            1.102462059567     0.290976825386    -0.524792614294
    H           -0.111359787857    -1.331861090536    -0.215278536229
    H            0.338625956329    -0.439868674513     1.230140834010
    C            2.336958363093    -0.352528653537    -0.486081969422
    H            2.430510545442    -1.059920543901    -1.306394572278
    H            3.115413825398     0.391345708160    -0.578192932011
    H            2.473234383249    -0.902408782666     0.440405459509

  Mulliken Charges: (a.u.)
   Center  Symbol    Alpha    Beta     Spin     Total
       1     H     0.39419  0.39419  0.00000  0.21161
       2     O     4.20209  4.20209  0.00000 -0.40417
       3     C     2.97432  2.97432  0.00000  0.05136
       4     C     2.96524  2.96524  0.00000  0.06951
       5     H     0.46659  0.46659  0.00000  0.06682
       6     H     0.45290  0.45290  0.00000  0.09420
       7     O     4.17804  4.17804  0.00000 -0.35607
       8     H     0.48291  0.48291  0.00000  0.03418
       9     H     0.46833  0.46833  0.00000  0.06334
      10     C     3.02978  3.02978  0.00000 -0.05956
      11     H     0.46462  0.46462  0.00000  0.07076
      12     H     0.44892  0.44892  0.00000  0.10216
      13     H     0.47207  0.47207  0.00000  0.05586

   Total alpha = 21.00000, Total beta = 21.00000, Total charge = -0.00000

*** Psi4 exiting successfully. Buy a developer a beer!
