  ==> Input File <==

--------------------------------------------------------------------------
set {
	reference rhf
	basis 6-31G*
}

set_num_threads( 1 )
memory 2 gb

molecule MOL {
0 1

H	 -0.000158	 1.970498	 0.756846
O	 -0.000074	 1.880206	 -0.189275
C	 -0.000015	 0.544847	 -0.545111
C	 -1.278788	 -0.123820	 -0.051541
C	 1.278802	 -0.123718	 -0.051505
H	 -0.000001	 0.490777	 -1.623619
F	 -2.324827	 0.506557	 -0.541410
F	 -1.355259	 -1.385739	 -0.417696
F	 -1.357547	 -0.071629	 1.268562
F	 2.323327	 0.466644	 -0.591854
F	 1.326242	 -1.401483	 -0.363667
F	 1.388946	 -0.015632	 1.262939

	symmetry c1
}
set optking {
	frozen_dihedral = ("
		6 3 2 1
	")
}

ee = energy('scf')
oeprop('DIPOLE', 'QUADRUPOLE', 'MULLIKEN_CHARGES')
f=open( 'psi4out.xyz', 'w' )
f.write( "12  " )
f.write( str(ee) + "\n" )
f.write( MOL.save_string_xyz() )
f.close()
--------------------------------------------------------------------------

    Molecular point group: c1

    Geometry (in Angstrom), charge = 0, multiplicity = 1:

       Center              X                  Y                   Z               Mass
    ------------   -----------------  -----------------  -----------------  -----------------
           H         -0.000249670438     1.970494101722     0.756603477615     1.007825032070
           O         -0.000165670438     1.880202101722    -0.189517522385    15.994914619560
           C         -0.000106670438     0.544843101722    -0.545353522385    12.000000000000
           C         -1.278879670438    -0.123823898278    -0.051783522385    12.000000000000
           C          1.278710329562    -0.123721898278    -0.051747522385    12.000000000000
           H         -0.000092670438     0.490773101722    -1.623861522385     1.007825032070
           F         -2.324918670438     0.506553101722    -0.541652522385    18.998403224000
           F         -1.355350670438    -1.385742898278    -0.417938522385    18.998403224000
           F         -1.357638670438    -0.071632898278     1.268319477615    18.998403224000
           F          2.323235329562     0.466640101722    -0.592096522385    18.998403224000
           F          1.326150329562    -1.401486898278    -0.363909522385    18.998403224000
           F          1.388854329562    -0.015635898278     1.262696477615    18.998403224000

  Charge       = 0
  Multiplicity = 1
  Basis Set: 6-31G*
  Basis Set:

    Orbital Energies (a.u.)
    -----------------------

    Doubly Occupied:

       1A    -26.362638     2A    -26.362595     3A    -26.362154
       4A    -26.361768     5A    -26.358189     6A    -26.358041
       7A    -20.617198     8A    -11.525963     9A    -11.525757
      10A    -11.349309    11A     -1.764681    12A     -1.758763
      13A     -1.662033    14A     -1.657812    15A     -1.656878
      16A     -1.655272    17A     -1.435577    18A     -1.101856
      19A     -0.996923    20A     -0.938482    21A     -0.863728
      22A     -0.862781    23A     -0.852084    24A     -0.844399
      25A     -0.831847    26A     -0.815889    27A     -0.743618
      28A     -0.726880    29A     -0.724394    30A     -0.717550
      31A     -0.689183    32A     -0.686125    33A     -0.683256
      34A     -0.674538    35A     -0.670000    36A     -0.663028
      37A     -0.656622    38A     -0.653607    39A     -0.620129
      40A     -0.551399    41A     -0.506190

  @DF-RHF Final Energy:  -786.27803350669467

   => Energetics <=

    Nuclear Repulsion Energy =            670.5160560752354968
    One-Electron Energy =               -2427.8901833116869966
    Two-Electron Energy =                 971.0960937297546707
    DFT Exchange-Correlation Energy =       0.0000000000000000
    Empirical Dispersion Energy =           0.0000000000000000
    PCM Polarization Energy =               0.0000000000000000
    EFP Energy =                            0.0000000000000000
    Total Energy =                       -786.2780335066967154

  Mulliken Charges: (a.u.)
   Center  Symbol    Alpha    Beta     Spin     Total
       1     H     0.26589  0.26589  0.00000  0.46822
       2     O     4.36250  4.36250  0.00000 -0.72499
       3     C     3.04441  3.04441  0.00000 -0.08882
       4     C     2.44700  2.44700  0.00000  1.10600
       5     C     2.44602  2.44602  0.00000  1.10797
       6     H     0.37539  0.37539  0.00000  0.24922
       7     F     4.67465  4.67465  0.00000 -0.34930
       8     F     4.67393  4.67393  0.00000 -0.34786
       9     F     4.68072  4.68072  0.00000 -0.36144
      10     F     4.67482  4.67482  0.00000 -0.34964
      11     F     4.67393  4.67393  0.00000 -0.34785
      12     F     4.68076  4.68076  0.00000 -0.36152

   Total alpha = 41.00000, Total beta = 41.00000, Total charge = -0.00000
