  ==> Input File <==

--------------------------------------------------------------------------
set {
	reference rhf
	basis 6-31G*
}

set_num_threads( 4 )
memory 2 gb

molecule MOL {
0 1

O	 -2.361292	 0.269647	 -1.130298
C	 -1.921153	 0.064240	 -0.045697
C	 -2.737642	 -0.320522	 1.158318
O	 -0.632575	 0.154573	 0.251549
H	 -2.605432	 0.417177	 1.941433
H	 -3.779852	 -0.385860	 0.883791
H	 -2.394598	 -1.273614	 1.543924
C	 0.160891	 -1.019931	 0.106212
C	 1.589627	 -0.672828	 0.480843
H	 0.089836	 -1.367806	 -0.916050
H	 -0.238459	 -1.792301	 0.749618
C	 2.246377	 0.346236	 -0.452210
H	 2.163194	 -1.597435	 0.473358
H	 1.604769	 -0.303424	 1.502885
C	 3.691736	 0.652107	 -0.061850
H	 2.219579	 -0.032311	 -1.472055
H	 1.666466	 1.263317	 -0.447249
H	 4.134505	 1.377213	 -0.737283
H	 4.305508	 -0.243868	 -0.089969
H	 3.748266	 1.059562	 0.943567

	symmetry c1
}
set optking {
	frozen_dihedral = ("
		1 2 4 8
	")
}

ee = optimize('scf')
oeprop('DIPOLE', 'QUADRUPOLE', 'MULLIKEN_CHARGES')
f=open( 'psi4out.xyz', 'w' )
f.write( "20  " )
f.write( str(ee) + "\n" )
f.write( MOL.save_string_xyz() )
f.close()
--------------------------------------------------------------------------

    Molecular point group: c1
  Charge       = 0
  Multiplicity = 1
  Basis Set: 6-31G*
  Basis Set:
  @DF-RHF Final Energy:  -383.92481108933640
    Total Energy =                       -383.9248110893366857
    Molecular point group: c1
  Basis Set: 6-31G*
  Basis Set:
  Basis Set: 6-31G*
  Basis Set:
  @DF-RHF Final Energy:  -383.92376458629286
    Total Energy =                       -383.9237645862932595
  Basis Set: 6-31G*
  Basis Set:
  Basis Set: 6-31G*
  Basis Set:
  @DF-RHF Final Energy:  -383.92570588062563
    Total Energy =                       -383.9257058806256282
  Basis Set: 6-31G*
  Basis Set:
  Basis Set: 6-31G*
  Basis Set:
  @DF-RHF Final Energy:  -383.92626990065577
    Total Energy =                       -383.9262699006553703
  Basis Set: 6-31G*
  Basis Set:
  Basis Set: 6-31G*
  Basis Set:
  @DF-RHF Final Energy:  -383.92628268121689
    Total Energy =                       -383.9262826812168896
  Basis Set: 6-31G*
  Basis Set:
  Basis Set: 6-31G*
  Basis Set:
  @DF-RHF Final Energy:  -383.92628783962783
    Total Energy =                       -383.9262878396278893
  Basis Set: 6-31G*
  Basis Set:
  Charge       = 0
  Multiplicity = 1
  Basis Set: 6-31G*
  Basis Set:

    Orbital Energies (a.u.)
    -----------------------

    Doubly Occupied:

       1A    -20.583342     2A    -20.556537     3A    -11.377391
       4A    -11.293389     5A    -11.237427     6A    -11.227550
       7A    -11.217627     8A    -11.211519     9A     -1.457992
      10A     -1.366863    11A     -1.083350    12A     -1.021547
      13A     -0.988298    14A     -0.881229    15A     -0.808550
      16A     -0.777305    17A     -0.696280    18A     -0.683029
      19A     -0.650854    20A     -0.634461    21A     -0.613616
      22A     -0.590325    23A     -0.580125    24A     -0.563721
      25A     -0.542890    26A     -0.527784    27A     -0.493738
      28A     -0.484647    29A     -0.481107    30A     -0.472996
      31A     -0.447439    32A     -0.436717

  @DF-RHF Final Energy:  -383.92628857097219

   => Energetics <=

    Nuclear Repulsion Energy =            384.1077187228323169
    One-Electron Energy =               -1284.0887292142392653
    Two-Electron Energy =                 516.0547219204345311
    DFT Exchange-Correlation Energy =       0.0000000000000000
    Empirical Dispersion Energy =           0.0000000000000000
    PCM Polarization Energy =               0.0000000000000000
    EFP Energy =                            0.0000000000000000
    Total Energy =                       -383.9262885709724742
    Molecular point group: c1
  Basis Set: 6-31G*
  Basis Set:

  -Total Gradient:
     Atom            X                  Y                   Z
    ------   -----------------  -----------------  -----------------
       1       -0.000296436701     0.002778352858     0.001009925770
       2        0.000030657074    -0.004543359132    -0.000481815028
       3        0.000033051198     0.000141734434     0.000007459120
       4        0.000922675932     0.002338121339    -0.002738844293
       5        0.000011548260    -0.000050610195    -0.000016695368
       6       -0.000031277507    -0.000030321805     0.000035444595
       7        0.000007502130    -0.000021767630    -0.000024202828
       8       -0.000675666081    -0.000643598101     0.002160001602
       9        0.000041093929     0.000014153656     0.000041981248
      10       -0.000062650977     0.000009811494    -0.000009059974
      11        0.000018055140    -0.000035258720    -0.000007016489
      12       -0.000010735599     0.000019012594     0.000026900943
      13       -0.000010549289     0.000018807634     0.000006555672
      14        0.000005479318     0.000015897023     0.000012114944
      15        0.000012054149    -0.000013077532    -0.000033523903
      16       -0.000004148999    -0.000000919883    -0.000004765342
      17        0.000006238084     0.000011421124     0.000024959285
      18        0.000011708129    -0.000008053776    -0.000007134952
      19        0.000004684219    -0.000003288467     0.000009628331
      20       -0.000013282398     0.000002943084    -0.000011913333

  **** Optimization is complete! (in 7 steps) ****
    Final optimized geometry and variables:
    Molecular point group: c1

    Geometry (in Angstrom), charge = 0, multiplicity = 1:

    O           -2.296578036414     0.384527593738    -1.154525287434
    C           -1.920263062035     0.116387889541    -0.067526297320
    C           -2.822225796635    -0.250991897401     1.080799715586
    O           -0.614660208561     0.195645484295     0.275914491032
    H           -2.728207148397     0.500350093501     1.857226267543
    H           -3.847470448353    -0.309323470048     0.746377964242
    H           -2.520366271487    -1.199600837370     1.511566238118
    C            0.177905037308    -0.968125311998     0.086766576002
    C            1.618011182629    -0.630139082944     0.424911156514
    H            0.087238035618    -1.294997725396    -0.943571570809
    H           -0.185906552146    -1.762577507153     0.732437817651
    C            2.238234629864     0.413458253724    -0.505269265258
    H            2.192705865700    -1.553158783511     0.379697712539
    H            1.659227516162    -0.283237132427     1.453886145329
    C            3.691370758076     0.723554720949    -0.148452962909
    H            2.185629030913     0.054611319060    -1.530867890719
    H            1.648488719901     1.322434237938    -0.466065735912
    H            4.109592280215     1.462788631752    -0.824050030592
    H            4.311900152460    -0.166525951317    -0.207265085593
    H            3.772172498053     1.116217858359     0.861245573390

  Mulliken Charges: (a.u.)
   Center  Symbol    Alpha    Beta     Spin     Total
       1     O     4.24897  4.24897  0.00000 -0.49793
       2     C     2.62678  2.62678  0.00000  0.74643
       3     C     3.28726  3.28726  0.00000 -0.57451
       4     O     4.31873  4.31873  0.00000 -0.63747
       5     H     0.39764  0.39764  0.00000  0.20471
       6     H     0.39678  0.39678  0.00000  0.20645
       7     H     0.40707  0.40707  0.00000  0.18587
       8     C     3.00314  3.00314  0.00000 -0.00628
       9     C     3.16240  3.16240  0.00000 -0.32480
      10     H     0.41194  0.41194  0.00000  0.17612
      11     H     0.42239  0.42239  0.00000  0.15522
      12     C     3.15506  3.15506  0.00000 -0.31012
      13     H     0.41957  0.41957  0.00000  0.16086
      14     H     0.41371  0.41371  0.00000  0.17258
      15     C     3.24095  3.24095  0.00000 -0.48189
      16     H     0.42158  0.42158  0.00000  0.15684
      17     H     0.40558  0.40558  0.00000  0.18885
      18     H     0.41661  0.41661  0.00000  0.16677
      19     H     0.42291  0.42291  0.00000  0.15419
      20     H     0.42094  0.42094  0.00000  0.15813

   Total alpha = 32.00000, Total beta = 32.00000, Total charge =  0.00000
