                              Psi4 1.0.54 Driver

  ==> Input File <==

--------------------------------------------------------------------------
set {
	reference rhf
	basis cc-pvtz
}

set_num_threads( 4 )
memory 2 gb

molecule MOL {
0 1

H	 -3.941973	 0.934228	 -0.390224
C	 -3.240162	 0.342701	 0.161016
C	 -2.105997	 -0.000418	 -0.398703
H	 -3.485368	 0.047206	 1.162193
O	 -1.105468	 -0.585933	 0.298389
H	 -1.912908	 0.153455	 -1.444727
C	 0.099135	 -0.820080	 -0.339755
C	 1.056310	 0.344169	 -0.186866
H	 -0.024799	 -1.012361	 -1.398736
H	 0.559905	 -1.681786	 0.119150
F	 2.196402	 0.056056	 -0.782064
F	 0.585081	 1.442764	 -0.736901
F	 1.314447	 0.608113	 1.070972

	symmetry c1
}
set optking {
	frozen_dihedral = ("
		6 3 2 1
	")
}

ee,wfn = optimize('scf', return_wfn=True)
oeprop( wfn, 'DIPOLE', 'QUADRUPOLE', 'MULLIKEN_CHARGES')
f=open( 'psi4out.xyz', 'w' )
f.write( "13  " )
f.write( str(ee) + "\n" )
f.write( MOL.save_string_xyz() )
f.close()
--------------------------------------------------------------------------

    Molecular point group: c1
  Charge       = 0
  Multiplicity = 1
  Basis Set: CC-PVTZ
  Basis Set:
  @DF-RHF Final Energy:  -527.73971318739291
    Total Energy =                       -527.7397131873926810
    Molecular point group: c1
  Basis Set: CC-PVTZ
  Basis Set:
  Basis Set: CC-PVTZ
  Basis Set:
  @DF-RHF Final Energy:  -527.74087808011063
    Total Energy =                       -527.7408780801104058
  Basis Set: CC-PVTZ
  Basis Set:
  Basis Set: CC-PVTZ
  Basis Set:
  @DF-RHF Final Energy:  -527.74122732734293
    Total Energy =                       -527.7412273273430401
  Basis Set: CC-PVTZ
  Basis Set:
  Basis Set: CC-PVTZ
  Basis Set:
  @DF-RHF Final Energy:  -527.74127490109231
    Total Energy =                       -527.7412749010923108
  Basis Set: CC-PVTZ
  Basis Set:
  Basis Set: CC-PVTZ
  Basis Set:
  @DF-RHF Final Energy:  -527.74127600239456
    Total Energy =                       -527.7412760023946703
  Basis Set: CC-PVTZ
  Basis Set:
  Charge       = 0
  Multiplicity = 1
  Basis Set: CC-PVTZ
  Basis Set:

    Orbital Energies (a.u.)
    -----------------------

    Doubly Occupied:

       1A    -26.342009     2A    -26.340754     3A    -26.338162
       4A    -20.604114     5A    -11.497977     6A    -11.320266
       7A    -11.299074     8A    -11.213922     9A     -1.750638
      10A     -1.647162    11A     -1.645516    12A     -1.444730
      13A     -1.088477    14A     -1.020568    15A     -0.932393
      16A     -0.844104    17A     -0.839791    18A     -0.827350
      19A     -0.798352    20A     -0.729291    21A     -0.719407
      22A     -0.704349    23A     -0.681909    24A     -0.668108
      25A     -0.661657    26A     -0.651095    27A     -0.639581
      28A     -0.588948    29A     -0.566187    30A     -0.529153
      31A     -0.518608    32A     -0.356418

  @DF-RHF Final Energy:  -527.74127654818653

   => Energetics <=

    Nuclear Repulsion Energy =            413.2287468035072493
    One-Electron Energy =               -1550.3199014472993440
    Two-Electron Energy =                 609.3498780956058454
    DFT Exchange-Correlation Energy =       0.0000000000000000
    Empirical Dispersion Energy =           0.0000000000000000
    PCM Polarization Energy =               0.0000000000000000
    EFP Energy =                            0.0000000000000000
    Total Energy =                       -527.7412765481863062
    Molecular point group: c1
  Basis Set: CC-PVTZ
  Basis Set:

  -Total Gradient:
     Atom            X                  Y                   Z
    ------   -----------------  -----------------  -----------------
       1        0.001815325443     0.004331838781     0.001805672245
       2       -0.003214832687    -0.008200765186    -0.003043162197
       3        0.003038477683     0.008770856304     0.002357315892
       4        0.000029845632     0.000003366850    -0.000026655273
       5       -0.000018602283    -0.000108068695    -0.000006076890
       6       -0.001647847618    -0.004830586867    -0.001105688333
       7        0.000005807384     0.000038867826     0.000025630643
       8       -0.000003596343    -0.000001653313    -0.000010541815
       9        0.000001745069    -0.000003532231    -0.000006316791
      10       -0.000002627601     0.000005946360     0.000002526164
      11        0.000008262971     0.000000736514    -0.000004345987
      12       -0.000008878160    -0.000015371967     0.000015012180
      13       -0.000003079491     0.000008365615    -0.000003369835

  **** Optimization is complete! (in 6 steps) ****
    Final optimized geometry and variables:
    Molecular point group: c1

    Geometry (in Angstrom), charge = 0, multiplicity = 1:

    H           -4.006636042223     0.672866609016    -0.340976669782
    C           -3.283950858782     0.125662923466     0.229038438376
    C           -2.114713003700    -0.144004126984    -0.299035946512
    H           -3.496328380556    -0.090810469863     1.257730388259
    O           -1.134956921623    -0.759990032838     0.401471487039
    H           -1.902463219792     0.023927168931    -1.339107343476
    C            0.066580568450    -1.025721920385    -0.230117377353
    C            1.057708772389     0.106642704334    -0.055691998314
    H           -0.054118056697    -1.202412401192    -1.292113071247
    H            0.496506416063    -1.906601138442     0.222365464564
    F            2.191879687109    -0.206906856336    -0.649090108552
    F            0.622367729125     1.226669368751    -0.592164572136
    F            1.316584409246     0.344964666995     1.207144309809

  Mulliken Charges: (a.u.)
   Center  Symbol    Alpha    Beta     Spin     Total
       1     H     0.42533  0.42533  0.00000  0.14934
       2     C     3.19764  3.19764  0.00000 -0.39528
       3     C     2.95784  2.95784  0.00000  0.08431
       4     H     0.42535  0.42535  0.00000  0.14930
       5     O     4.14455  4.14455  0.00000 -0.28909
       6     H     0.43462  0.43462  0.00000  0.13076
       7     C     3.01903  3.01903  0.00000 -0.03805
       8     C     2.67574  2.67574  0.00000  0.64852
       9     H     0.45520  0.45520  0.00000  0.08960
      10     H     0.43501  0.43501  0.00000  0.12998
      11     F     4.61256  4.61256  0.00000 -0.22512
      12     F     4.61044  4.61044  0.00000 -0.22088
      13     F     4.60669  4.60669  0.00000 -0.21339

   Total alpha = 32.00000, Total beta = 32.00000, Total charge =  0.00000

*** Psi4 exiting successfully. Buy a developer a beer!
