  ==> Input File <==

--------------------------------------------------------------------------
set {
	reference rhf
	basis 6-31G*
}

set_num_threads( 1 )
memory 2 gb

molecule MOL {
0 1

O	 -1.541663	 1.616442	 -1.612799
C	 -1.782942	 0.755264	 -0.822488
C	 -0.889235	 -0.467034	 -0.705952
C	 -2.962583	 0.849753	 0.119262
C	 0.379448	 -0.143569	 0.099626
H	 -0.612906	 -0.769335	 -1.710223
H	 -1.425069	 -1.289373	 -0.240477
C	 1.631333	 -0.777471	 -0.511575
H	 0.482768	 0.934507	 0.149241
H	 0.263088	 -0.495696	 1.123449
C	 2.915987	 -0.544314	 0.291766
H	 1.766672	 -0.399098	 -1.523130
H	 1.471257	 -1.849544	 -0.605828
C	 3.373361	 0.914346	 0.347591
H	 3.708709	 -1.142521	 -0.150311
H	 2.780642	 -0.921148	 1.303579
H	 3.506512	 1.320010	 -0.651625
H	 4.322697	 0.999599	 0.867103
H	 2.660624	 1.545032	 0.868198
H	 -3.683975	 0.072763	 -0.119789
H	 -3.434030	 1.818184	 0.026178
H	 -2.648206	 0.689477	 1.146531

	symmetry c1
}
set optking {
	frozen_dihedral = ("
		6 3 2 1,
		3 5 8 12,
		12 8 11 15
	")
}

ee = energy('scf')
oeprop('DIPOLE', 'QUADRUPOLE', 'MULLIKEN_CHARGES')
f=open( 'psi4out.xyz', 'w' )
f.write( "22  " )
f.write( str(ee) + "\n" )
f.write( MOL.save_string_xyz() )
f.close()
--------------------------------------------------------------------------

    Molecular point group: c1

    Geometry (in Angstrom), charge = 0, multiplicity = 1:

       Center              X                  Y                   Z               Mass
    ------------   -----------------  -----------------  -----------------  -----------------
           O         -1.686759081066     1.323592619567    -1.266702573334    15.994914619560
           C         -1.928038081066     0.462414619567    -0.476391573334    12.000000000000
           C         -1.034331081066    -0.759883380433    -0.359855573334    12.000000000000
           C         -3.107679081066     0.556903619567     0.465358426666    12.000000000000
           C          0.234351918934    -0.436418380433     0.445722426666    12.000000000000
           H         -0.758002081066    -1.062184380433    -1.364126573334     1.007825032070
           H         -1.570165081066    -1.582222380433     0.105619426666     1.007825032070
           C          1.486236918934    -1.070320380433    -0.165478573334    12.000000000000
           H          0.337671918934     0.641657619567     0.495337426666     1.007825032070
           H          0.117991918934    -0.788545380433     1.469545426666     1.007825032070
           C          2.770890918934    -0.837163380433     0.637862426666    12.000000000000
           H          1.621575918934    -0.691947380433    -1.177033573334     1.007825032070
           H          1.326160918934    -2.142393380433    -0.259731573334     1.007825032070
           C          3.228264918934     0.621496619567     0.693687426666    12.000000000000
           H          3.563612918934    -1.435370380433     0.195785426666     1.007825032070
           H          2.635545918934    -1.213997380433     1.649675426666     1.007825032070
           H          3.361415918934     1.027160619567    -0.305528573334     1.007825032070
           H          4.177600918934     0.706749619567     1.213199426666     1.007825032070
           H          2.515527918934     1.252182619567     1.214294426666     1.007825032070
           H         -3.829071081066    -0.220086380433     0.226307426666     1.007825032070
           H         -3.579126081066     1.525334619567     0.372274426666     1.007825032070
           H         -2.793302081066     0.396627619567     1.492627426666     1.007825032070

  Charge       = 0
  Multiplicity = 1
  Basis Set: 6-31G*
  Basis Set:

    Orbital Energies (a.u.)
    -----------------------

    Doubly Occupied:

       1A    -20.546736     2A    -11.324521     3A    -11.228299
       4A    -11.228209     5A    -11.227689     6A    -11.220661
       7A    -11.218756     8A    -11.209543     9A     -1.392902
      10A     -1.094608    11A     -1.043366    12A     -0.999214
      13A     -0.936125    14A     -0.856912    15A     -0.785837
      16A     -0.734049    17A     -0.662372    18A     -0.639106
      19A     -0.627267    20A     -0.614935    21A     -0.598797
      22A     -0.587768    23A     -0.556626    24A     -0.544537
      25A     -0.530895    26A     -0.521237    27A     -0.500998
      28A     -0.481727    29A     -0.465775    30A     -0.463293
      31A     -0.459039    32A     -0.396123

  @DF-RHF Final Energy:  -348.09377494793927

   => Energetics <=

    Nuclear Repulsion Energy =            374.8654519581138516
    One-Electron Energy =               -1214.5226818888495472
    Two-Electron Energy =                 491.5634549827965429
    DFT Exchange-Correlation Energy =       0.0000000000000000
    Empirical Dispersion Energy =           0.0000000000000000
    PCM Polarization Energy =               0.0000000000000000
    EFP Energy =                            0.0000000000000000
    Total Energy =                       -348.0937749479390959

  Mulliken Charges: (a.u.)
   Center  Symbol    Alpha    Beta     Spin     Total
       1     O     4.26275  4.26275  0.00000 -0.52550
       2     C     2.74148  2.74148  0.00000  0.51703
       3     C     3.19991  3.19991  0.00000 -0.39982
       4     C     3.28950  3.28950  0.00000 -0.57900
       5     C     3.16269  3.16269  0.00000 -0.32538
       6     H     0.39955  0.39955  0.00000  0.20089
       7     H     0.41516  0.41516  0.00000  0.16968
       8     C     3.15514  3.15514  0.00000 -0.31027
       9     H     0.40536  0.40536  0.00000  0.18928
      10     H     0.41993  0.41993  0.00000  0.16014
      11     C     3.15438  3.15438  0.00000 -0.30876
      12     H     0.41673  0.41673  0.00000  0.16653
      13     H     0.42124  0.42124  0.00000  0.15751
      14     C     3.24148  3.24148  0.00000 -0.48296
      15     H     0.41956  0.41956  0.00000  0.16089
      16     H     0.42370  0.42370  0.00000  0.15260
      17     H     0.41923  0.41923  0.00000  0.16154
      18     H     0.41878  0.41878  0.00000  0.16245
      19     H     0.41973  0.41973  0.00000  0.16053
      20     H     0.40681  0.40681  0.00000  0.18638
      21     H     0.39724  0.39724  0.00000  0.20552
      22     H     0.40964  0.40964  0.00000  0.18071

   Total alpha = 32.00000, Total beta = 32.00000, Total charge = -0.00000
