  ==> Input File <==

--------------------------------------------------------------------------
set {
	reference rhf
	basis 6-31G*
}

set_num_threads( 1 )
memory 2 gb

molecule MOL {
0 1

H	 -3.301617	 0.570527	 0.000000
C	 -2.250981	 0.344174	 0.000000
C	 -1.813665	 -0.976045	 0.000000
C	 -1.315303	 1.358057	 0.000000
H	 -2.528860	 -1.779366	 0.000000
C	 -0.467298	 -1.270142	 0.000000
H	 -1.635074	 2.385107	 0.000000
C	 0.047081	 1.078114	 0.000000
H	 -0.115948	 -2.285222	 0.000000
C	 0.472063	 -0.241155	 0.000000
H	 0.749976	 1.888426	 0.000000
O	 1.765256	 -0.628444	 0.000000
C	 2.256078	 -1.408961	 1.051170
H	 2.176553	 -0.891063	 2.001322
H	 3.297968	 -1.589267	 0.832610
H	 1.736796	 -2.359451	 1.116346

	symmetry c1
}
set optking {
	frozen_dihedral = ("
		10 12 13 14
	")
}

ee = energy('scf')
oeprop('DIPOLE', 'QUADRUPOLE', 'MULLIKEN_CHARGES')
f=open( 'psi4out.xyz', 'w' )
f.write( "16  " )
f.write( str(ee) + "\n" )
f.write( MOL.save_string_xyz() )
f.close()
--------------------------------------------------------------------------

    Molecular point group: c1

    Geometry (in Angstrom), charge = 0, multiplicity = 1:

       Center              X                  Y                   Z               Mass
    ------------   -----------------  -----------------  -----------------  -----------------
           H         -3.225301945859     0.825349491549    -0.153577741178     1.007825032070
           C         -2.174665945859     0.598996491549    -0.153577741178    12.000000000000
           C         -1.737349945859    -0.721222508451    -0.153577741178    12.000000000000
           C         -1.238987945859     1.612879491549    -0.153577741178    12.000000000000
           H         -2.452544945859    -1.524543508451    -0.153577741178     1.007825032070
           C         -0.390982945859    -1.015319508451    -0.153577741178    12.000000000000
           H         -1.558758945859     2.639929491549    -0.153577741178     1.007825032070
           C          0.123396054141     1.332936491549    -0.153577741178    12.000000000000
           H         -0.039632945859    -2.030399508451    -0.153577741178     1.007825032070
           C          0.548378054141     0.013667491549    -0.153577741178    12.000000000000
           H          0.826291054141     2.143248491549    -0.153577741178     1.007825032070
           O          1.841571054141    -0.373621508451    -0.153577741178    15.994914619560
           C          2.332393054141    -1.154138508451     0.897592258822    12.000000000000
           H          2.252868054141    -0.636240508451     1.847744258822     1.007825032070
           H          3.374283054141    -1.334444508451     0.679032258822     1.007825032070
           H          1.813111054141    -2.104628508451     0.962768258822     1.007825032070

  Charge       = 0
  Multiplicity = 1
  Basis Set: 6-31G*
  Basis Set:

    Orbital Energies (a.u.)
    -----------------------

    Doubly Occupied:

       1A    -20.572493     2A    -11.289253     3A    -11.277637
       4A    -11.232735     5A    -11.232176     6A    -11.225702
       7A    -11.223938     8A    -11.222087     9A     -1.406886
      10A     -1.146495    11A     -1.018134    12A     -1.014939
      13A     -0.937389    14A     -0.833837    15A     -0.805473
      16A     -0.717189    17A     -0.670010    18A     -0.661113
      19A     -0.641830    20A     -0.613009    21A     -0.597325
      22A     -0.581356    23A     -0.529436    24A     -0.510638
      25A     -0.507169    26A     -0.478213    27A     -0.438826
      28A     -0.334743    29A     -0.314853

  @DF-RHF Final Energy:  -344.57629361913740

   => Energetics <=

    Nuclear Repulsion Energy =            348.3390841701071281
    One-Electron Energy =               -1157.7608386457852703
    Two-Electron Energy =                 464.8454608565409671
    DFT Exchange-Correlation Energy =       0.0000000000000000
    Empirical Dispersion Energy =           0.0000000000000000
    PCM Polarization Energy =               0.0000000000000000
    EFP Energy =                            0.0000000000000000
    Total Energy =                       -344.5762936191372319

  Mulliken Charges: (a.u.)
   Center  Symbol    Alpha    Beta     Spin     Total
       1     H     0.39992  0.39992  0.00000  0.20017
       2     C     3.10744  3.10744  0.00000 -0.21488
       3     C     3.09482  3.09482  0.00000 -0.18963
       4     C     3.09575  3.09575  0.00000 -0.19150
       5     H     0.39982  0.39982  0.00000  0.20036
       6     C     3.12929  3.12929  0.00000 -0.25858
       7     H     0.39870  0.39870  0.00000  0.20261
       8     C     3.12516  3.12516  0.00000 -0.25032
       9     H     0.39641  0.39641  0.00000  0.20718
      10     C     2.78967  2.78967  0.00000  0.42066
      11     H     0.39407  0.39407  0.00000  0.21187
      12     O     4.33272  4.33272  0.00000 -0.66543
      13     C     3.08109  3.08109  0.00000 -0.16217
      14     H     0.42093  0.42093  0.00000  0.15813
      15     H     0.40892  0.40892  0.00000  0.18216
      16     H     0.42530  0.42530  0.00000  0.14939

   Total alpha = 29.00000, Total beta = 29.00000, Total charge =  0.00000
