  ==> Input File <==

--------------------------------------------------------------------------
set {
	reference rhf
	basis 6-31G*
}

set_num_threads( 4 )
memory 2 gb

molecule MOL {
0 1

H	 -2.418099	 -1.482710	 1.785729
C	 -1.895360	 -0.912509	 1.040752
C	 -2.583767	 -0.108664	 0.148073
C	 -0.520534	 -0.974318	 0.963410
H	 -3.656229	 -0.046904	 0.192252
C	 -1.897890	 0.619825	 -0.805660
H	 0.040882	 -1.585744	 1.638501
C	 0.154804	 -0.237046	 -0.000077
H	 -2.450256	 1.237816	 -1.489089
C	 -0.509377	 0.584615	 -0.917010
N	 1.611208	 -0.370857	 -0.000034
C	 0.136955	 1.422659	 -1.998152
O	 2.274126	 0.622059	 -0.008063
O	 2.068510	 -1.474748	 0.007823
H	 0.697708	 0.812146	 -2.692383
H	 -0.633728	 1.951484	 -2.544749
H	 0.825423	 2.145474	 -1.582610

	symmetry c1
}
set optking {
	frozen_dihedral = ("
		4 8 11 13
	")
}

ee = optimize('scf')
oeprop('DIPOLE', 'QUADRUPOLE', 'MULLIKEN_CHARGES')
f=open( 'psi4out.xyz', 'w' )
f.write( "17  " )
f.write( str(ee) + "\n" )
f.write( MOL.save_string_xyz() )
f.close()
--------------------------------------------------------------------------

    Molecular point group: c1
  Charge       = 0
  Multiplicity = 1
  Basis Set: 6-31G*
  Basis Set:
  @DF-RHF Final Energy:  -473.20342833316727
    Total Energy =                       -473.2034283331670395
    Molecular point group: c1
  Basis Set: 6-31G*
  Basis Set:
  Basis Set: 6-31G*
  Basis Set:
  @DF-RHF Final Energy:  -473.19761875400633
    Total Energy =                       -473.1976187540064984
  Basis Set: 6-31G*
  Basis Set:
  Basis Set: 6-31G*
  Basis Set:
  @DF-RHF Final Energy:  -473.20421333818433
    Total Energy =                       -473.2042133381842177
  Basis Set: 6-31G*
  Basis Set:
  Basis Set: 6-31G*
  Basis Set:
  @DF-RHF Final Energy:  -473.20501086992823
    Total Energy =                       -473.2050108699279463
  Basis Set: 6-31G*
  Basis Set:
  Basis Set: 6-31G*
  Basis Set:
  @DF-RHF Final Energy:  -473.20516165541130
    Total Energy =                       -473.2051616554111888
  Basis Set: 6-31G*
  Basis Set:
  Basis Set: 6-31G*
  Basis Set:
  @DF-RHF Final Energy:  -473.20520209409273
    Total Energy =                       -473.2052020940918737
  Basis Set: 6-31G*
  Basis Set:
  Basis Set: 6-31G*
  Basis Set:
  @DF-RHF Final Energy:  -473.20520673703476
    Total Energy =                       -473.2052067370345867
  Basis Set: 6-31G*
  Basis Set:
  Charge       = 0
  Multiplicity = 1
  Basis Set: 6-31G*
  Basis Set:

    Orbital Energies (a.u.)
    -----------------------

    Doubly Occupied:

       1A    -20.602528     2A    -20.602214     3A    -15.852839
       4A    -11.301041     5A    -11.279159     6A    -11.267384
       7A    -11.261315     8A    -11.255242     9A    -11.254344
      10A    -11.237103    11A     -1.634058    12A     -1.417351
      13A     -1.201414    14A     -1.092077    15A     -1.072636
      16A     -0.979543    17A     -0.933770    18A     -0.850970
      19A     -0.820711    20A     -0.770647    21A     -0.733244
      22A     -0.727721    23A     -0.694748    24A     -0.656764
      25A     -0.636888    26A     -0.599461    27A     -0.595329
      28A     -0.567589    29A     -0.541199    30A     -0.523743
      31A     -0.520457    32A     -0.489369    33A     -0.480403
      34A     -0.448672    35A     -0.366159    36A     -0.353539

  @DF-RHF Final Energy:  -473.20520730866059

   => Energetics <=

    Nuclear Repulsion Energy =            509.9709506028506780
    One-Electron Energy =               -1655.1090587311198306
    Two-Electron Energy =                 671.9329008196086761
    DFT Exchange-Correlation Energy =       0.0000000000000000
    Empirical Dispersion Energy =           0.0000000000000000
    PCM Polarization Energy =               0.0000000000000000
    EFP Energy =                            0.0000000000000000
    Total Energy =                       -473.2052073086604196
    Molecular point group: c1
  Basis Set: 6-31G*
  Basis Set:

  -Total Gradient:
     Atom            X                  Y                   Z
    ------   -----------------  -----------------  -----------------
       1        0.000009450719    -0.000009707037    -0.000001032422
       2       -0.000082982858     0.000033190007    -0.000024265612
       3       -0.000007107944    -0.000066178530     0.000072673974
       4        0.000289986091     0.002381838457     0.001877758617
       5        0.000003994512     0.000012551326     0.000000605660
       6        0.000094272847     0.000005862999    -0.000092860356
       7        0.000000290956    -0.000011942616     0.000002877750
       8       -0.000227187202    -0.003351449073    -0.001289366902
       9       -0.000007672546    -0.000001307173    -0.000000219537
      10       -0.000069328464     0.000095958102     0.000014893075
      11        0.000001833875     0.000920323655    -0.004106295816
      12       -0.000012375855    -0.000047242985    -0.000038043329
      13        0.000031243060     0.000083675821     0.003553734189
      14       -0.000017052225    -0.000073363188    -0.000001248098
      15       -0.000008617453     0.000010818383     0.000012776775
      16       -0.000003474862     0.000000851804     0.000006227273
      17        0.000004727354     0.000016120052     0.000011784758

  **** Optimization is complete! (in 8 steps) ****
    Final optimized geometry and variables:
    Molecular point group: c1

    Geometry (in Angstrom), charge = 0, multiplicity = 1:

    H           -2.389164097814    -1.392074302643     1.992165932145
    C           -1.871931248809    -0.829178232054     1.237726636325
    C           -2.566629714774    -0.004246149545     0.369267104989
    C           -0.498964991701    -0.928228852640     1.120697245399
    H           -3.636171549930     0.074714803120     0.442796350127
    C           -1.894040253224     0.720568118477    -0.600034034740
    H            0.070609312137    -1.570694958000     1.763662529097
    C            0.148678455236    -0.186149509669     0.151241467399
    H           -2.451154807273     1.348104719317    -1.271760927059
    C           -0.510230016506     0.665889493949    -0.727529195579
    N            1.604960624917    -0.291153220790     0.123837850241
    C            0.189353230575     1.487057548374    -1.786320711589
    O            2.233931845590     0.723238339154     0.102157008357
    O            2.076219767821    -1.386972871012     0.169974183738
    H            0.950278267547     0.916814109439    -2.304377828153
    H           -0.531260883860     1.830704365761    -2.517631793310
    H            0.674369274139     2.349465616989    -1.346893115685

  Mulliken Charges: (a.u.)
   Center  Symbol    Alpha    Beta     Spin     Total
       1     H     0.38961  0.38961  0.00000  0.22079
       2     C     3.11126  3.11126  0.00000 -0.22251
       3     C     3.08460  3.08460  0.00000 -0.16920
       4     C     3.08232  3.08232  0.00000 -0.16464
       5     H     0.39041  0.39041  0.00000  0.21919
       6     C     3.12212  3.12212  0.00000 -0.24424
       7     H     0.37145  0.37145  0.00000  0.25709
       8     C     2.91913  2.91913  0.00000  0.16174
       9     H     0.39271  0.39271  0.00000  0.21457
      10     C     2.96512  2.96512  0.00000  0.06976
      11     N     3.26255  3.26255  0.00000  0.47489
      12     C     3.24722  3.24722  0.00000 -0.49445
      13     O     4.22750  4.22750  0.00000 -0.45500
      14     O     4.22652  4.22652  0.00000 -0.45304
      15     H     0.40343  0.40343  0.00000  0.19314
      16     H     0.41174  0.41174  0.00000  0.17653
      17     H     0.39232  0.39232  0.00000  0.21536

   Total alpha = 36.00000, Total beta = 36.00000, Total charge =  0.00000
