                              Psi4 1.0.54 Driver

  ==> Input File <==

--------------------------------------------------------------------------
set {
	reference rhf
	basis cc-pvtz
}

set_num_threads( 4 )
memory 2 gb

molecule MOL {
0 1

O	 -2.071633	 -1.227563	 -0.223463
C	 -1.652164	 -0.152425	 0.058082
C	 -0.327811	 0.006324	 0.778296
C	 -2.402515	 1.108629	 -0.298924
C	 0.843231	 -0.001575	 -0.211665
H	 -0.319484	 0.928173	 1.350354
H	 -0.227804	 -0.823091	 1.466705
C	 2.197693	 0.138030	 0.476937
H	 0.722944	 0.805202	 -0.930230
H	 0.813976	 -0.926978	 -0.776588
C	 3.350256	 -0.394552	 -0.367526
H	 2.375857	 1.183470	 0.713235
H	 2.171036	 -0.389715	 1.425785
H	 3.424693	 0.138096	 -1.309747
H	 3.215669	 -1.446851	 -0.593187
H	 4.296452	 -0.285263	 0.149359
H	 -3.240910	 0.874416	 -0.936711
H	 -1.747554	 1.818823	 -0.790984
H	 -2.760419	 1.579708	 0.610998

	symmetry c1
}
set optking {
	frozen_dihedral = ("
		11 8 5 9
	")
}

ee,wfn = optimize('scf', return_wfn=True)
oeprop( wfn, 'DIPOLE', 'QUADRUPOLE', 'MULLIKEN_CHARGES')
f=open( 'psi4out.xyz', 'w' )
f.write( "19  " )
f.write( str(ee) + "\n" )
f.write( MOL.save_string_xyz() )
f.close()
--------------------------------------------------------------------------

    Molecular point group: c1
  Charge       = 0
  Multiplicity = 1
  Basis Set: CC-PVTZ
  Basis Set:
  @DF-RHF Final Energy:  -309.17563226791589
    Total Energy =                       -309.1756322679157165
    Molecular point group: c1
  Basis Set: CC-PVTZ
  Basis Set:
  Basis Set: CC-PVTZ
  Basis Set:
  @DF-RHF Final Energy:  -308.37614003197478
    Total Energy =                       -308.3761400319748418
  Basis Set: CC-PVTZ
  Basis Set:
  Basis Set: CC-PVTZ
  Basis Set:
  @DF-RHF Final Energy:  -308.59227935863322
    Total Energy =                       -308.5922793586330499
  Basis Set: CC-PVTZ
  Basis Set:
  Basis Set: CC-PVTZ
  Basis Set:
  @DF-RHF Final Energy:  -308.93762284526838
    Total Energy =                       -308.9376228452683790
  Basis Set: CC-PVTZ
  Basis Set:
  @DF-RHF Final Energy:  -309.11130099051906
    Total Energy =                       -309.1113009905193394
  @DF-RHF Final Energy:  -309.17073192476312
    Total Energy =                       -309.1707319247631176
  @DF-RHF Final Energy:  -309.17453401961490
    Total Energy =                       -309.1745340196149527
  @DF-RHF Final Energy:  -309.17568133846294
    Total Energy =                       -309.1756813384632210
  @DF-RHF Final Energy:  -309.17502804783095
    Total Energy =                       -309.1750280478306649
  @DF-RHF Final Energy:  -309.17576459302506
    Total Energy =                       -309.1757645930248941
  @DF-RHF Final Energy:  -309.17577502588875
    Total Energy =                       -309.1757750258886972
  Basis Set: CC-PVTZ
  Basis Set:
  @DF-RHF Final Energy:  -309.17581514181103
    Total Energy =                       -309.1758151418107445
  Basis Set: CC-PVTZ
  Basis Set:
  Basis Set: CC-PVTZ
  Basis Set:
  @DF-RHF Final Energy:  -309.17582642941375
    Total Energy =                       -309.1758264294139167
  Basis Set: CC-PVTZ
  Basis Set:
  Basis Set: CC-PVTZ
  Basis Set:
  @DF-RHF Final Energy:  -309.17582905352907
    Total Energy =                       -309.1758290535290712
  Basis Set: CC-PVTZ
  Basis Set:
  Charge       = 0
  Multiplicity = 1
  Basis Set: CC-PVTZ
  Basis Set:

    Orbital Energies (a.u.)
    -----------------------

    Doubly Occupied:

       1A    -20.536893     2A    -11.319322     3A    -11.228849
       4A    -11.227792     5A    -11.227064     6A    -11.223072
       7A    -11.212895     8A     -1.397007     9A     -1.092306
      10A     -1.030180    11A     -0.984607    12A     -0.890649
      13A     -0.807339    14A     -0.734777    15A     -0.663501
      16A     -0.649837    17A     -0.623062    18A     -0.615070
      19A     -0.582991    20A     -0.578437    21A     -0.550102
      22A     -0.537506    23A     -0.518378    24A     -0.498752
      25A     -0.482452    26A     -0.477343    27A     -0.468661
      28A     -0.399023

  @DF-RHF Final Energy:  -309.17582980916177

   => Energetics <=

    Nuclear Repulsion Energy =            301.8507549805731287
    One-Electron Energy =               -1016.9374409284632748
    Two-Electron Energy =                 405.9108561387281497
    DFT Exchange-Correlation Energy =       0.0000000000000000
    Empirical Dispersion Energy =           0.0000000000000000
    PCM Polarization Energy =               0.0000000000000000
    EFP Energy =                            0.0000000000000000
    Total Energy =                       -309.1758298091619963
    Molecular point group: c1
  Basis Set: CC-PVTZ
  Basis Set:

  -Total Gradient:
     Atom            X                  Y                   Z
    ------   -----------------  -----------------  -----------------
       1        0.000059579461     0.000039400803    -0.000025520343
       2       -0.000081472947    -0.000079070784    -0.000003448733
       3        0.000052134427     0.000025114863    -0.000026555397
       4       -0.000026680830     0.000001219976     0.000035999283
       5        0.001249499015    -0.004682257842     0.001356749682
       6        0.000002406715    -0.000008693879     0.000010224765
       7       -0.000001331550     0.000014517300     0.000005458979
       8        0.000695385559     0.001662774761    -0.003711394550
       9       -0.001260753006     0.003597856572    -0.000238121793
      10       -0.000003101909     0.000016871669    -0.000015453772
      11       -0.000711016242    -0.000588776169     0.002615462615
      12        0.000001842333    -0.000008072276     0.000008411055
      13        0.000000291201    -0.000003394220    -0.000003031265
      14       -0.000002246288     0.000000380901     0.000008770110
      15        0.000001948881     0.000005388450    -0.000000090984
      16       -0.000001948682    -0.000000936732     0.000000100706
      17       -0.000006710858    -0.000001709322    -0.000008528106
      18        0.000025498691    -0.000000948906    -0.000007875279
      19        0.000006676022     0.000010334832    -0.000001156974

  **** Optimization is complete! (in 15 steps) ****
    Final optimized geometry and variables:
    Molecular point group: c1

    Geometry (in Angstrom), charge = 0, multiplicity = 1:

    O           -2.257832231224    -0.665573253335     0.425074386857
    C           -1.639789516491     0.162647510978    -0.160869219256
    C           -0.313591295471     0.669056696771     0.370354176877
    C           -2.130337164945     0.740152220213    -1.467199514697
    C            0.838098048025    -0.254671336426    -0.050434942125
    H           -0.125324233836     1.676511948101     0.013588043300
    H           -0.381630072539     0.697151320641     1.450197602833
    C            2.198427109249     0.252737799348     0.432440441662
    H            0.847158476410    -0.323154848605    -1.134861996943
    H            0.645585769660    -1.247621798805     0.337822136381
    C            3.261814413416    -0.839690986194     0.476102352163
    H            2.527833739615     1.070114467787    -0.201439741644
    H            2.089137950431     0.667237460291     1.430495497551
    H            3.404518757169    -1.293053513843    -0.499566128243
    H            2.977864744653    -1.626016273552     1.166386284549
    H            4.217551263072    -0.442912657617     0.798194296754
    H           -2.993308941651     0.193378471694    -1.814888626520
    H           -1.347223047960     0.715408168263    -2.216634103450
    H           -2.397848343383     1.781341592170    -1.317483671105

  Mulliken Charges: (a.u.)
   Center  Symbol    Alpha    Beta     Spin     Total
       1     O     4.17745  4.17745  0.00000 -0.35491
       2     C     2.85837  2.85837  0.00000  0.28326
       3     C     3.09916  3.09916  0.00000 -0.19832
       4     C     3.15494  3.15494  0.00000 -0.30988
       5     C     3.09728  3.09728  0.00000 -0.19455
       6     H     0.44923  0.44923  0.00000  0.10153
       7     H     0.43923  0.43923  0.00000  0.12154
       8     C     3.08671  3.08671  0.00000 -0.17341
       9     H     0.45169  0.45169  0.00000  0.09663
      10     H     0.44140  0.44140  0.00000  0.11720
      11     C     3.14808  3.14808  0.00000 -0.29615
      12     H     0.45198  0.45198  0.00000  0.09603
      13     H     0.45393  0.45393  0.00000  0.09214
      14     H     0.45457  0.45457  0.00000  0.09087
      15     H     0.45253  0.45253  0.00000  0.09493
      16     H     0.44808  0.44808  0.00000  0.10384
      17     H     0.43604  0.43604  0.00000  0.12792
      18     H     0.45105  0.45105  0.00000  0.09791
      19     H     0.44829  0.44829  0.00000  0.10342

   Total alpha = 28.00000, Total beta = 28.00000, Total charge = -0.00000

*** Psi4 exiting successfully. Buy a developer a beer!
