                              Psi4 1.0.54 Driver

  ==> Input File <==

--------------------------------------------------------------------------
set {
	reference rhf
	basis cc-pvtz
}

set_num_threads( 4 )
memory 2 gb

molecule MOL {
0 1

H	 -2.266619	 1.169943	 0.000098
O	 -1.438073	 1.611259	 0.000041
C	 -0.408657	 0.734701	 0.000005
C	 -0.206714	 0.008583	 -1.159038
C	 0.416198	 0.560822	 1.105217
H	 -0.864698	 0.171548	 -1.989959
C	 0.824889	 -0.903452	 -1.229431
C	 1.444688	 -0.362192	 1.006316
C	 0.194514	 1.353997	 2.369310
H	 0.975600	 -1.463568	 -2.132501
C	 1.658405	 -1.094393	 -0.144432
H	 2.091001	 -0.508227	 1.851846
H	 -0.787034	 1.166796	 2.795737
H	 0.926190	 1.089505	 3.119066
H	 0.282372	 2.422776	 2.195190
H	 2.462907	 -1.802128	 -0.191948

	symmetry c1
}
set optking {
	frozen_dihedral = ("
		4 3 2 1
	")
}

ee,wfn = optimize('scf', return_wfn=True)
oeprop( wfn, 'DIPOLE', 'QUADRUPOLE', 'MULLIKEN_CHARGES')
f=open( 'psi4out.xyz', 'w' )
f.write( "16  " )
f.write( str(ee) + "\n" )
f.write( MOL.save_string_xyz() )
f.close()
--------------------------------------------------------------------------

    Molecular point group: c1
  Charge       = 0
  Multiplicity = 1
  Basis Set: CC-PVTZ
  Basis Set:
  @DF-RHF Final Energy:  -344.71511355092747
    Total Energy =                       -344.7151135509274127
    Molecular point group: c1
  Basis Set: CC-PVTZ
  Basis Set:
  Basis Set: CC-PVTZ
  Basis Set:
  @DF-RHF Final Energy:  -344.71649031640760
    Total Energy =                       -344.7164903164076577
  Basis Set: CC-PVTZ
  Basis Set:
  Basis Set: CC-PVTZ
  Basis Set:
  @DF-RHF Final Energy:  -344.71656954815438
    Total Energy =                       -344.7165695481545526
  Basis Set: CC-PVTZ
  Basis Set:
  Basis Set: CC-PVTZ
  Basis Set:
  @DF-RHF Final Energy:  -344.71657486817196
    Total Energy =                       -344.7165748681717332
  Basis Set: CC-PVTZ
  Basis Set:
  Basis Set: CC-PVTZ
  Basis Set:
  @DF-RHF Final Energy:  -344.71657622930366
    Total Energy =                       -344.7165762293037119
  Basis Set: CC-PVTZ
  Basis Set:
  Charge       = 0
  Multiplicity = 1
  Basis Set: CC-PVTZ
  Basis Set:

    Orbital Energies (a.u.)
    -----------------------

    Doubly Occupied:

       1A    -20.571225     2A    -11.283594     3A    -11.232338
       4A    -11.227490     5A    -11.225812     6A    -11.223584
       7A    -11.222116     8A    -11.215641     9A     -1.397968
      10A     -1.153370    11A     -1.047584    12A     -1.006717
      13A     -0.933720    14A     -0.836795    15A     -0.805849
      16A     -0.731315    17A     -0.669834    18A     -0.659591
      19A     -0.624140    20A     -0.594374    21A     -0.573972
      22A     -0.565397    23A     -0.544537    24A     -0.524085
      25A     -0.502507    26A     -0.487311    27A     -0.467884
      28A     -0.333504    29A     -0.320244

  @DF-RHF Final Energy:  -344.71657642064957

   => Energetics <=

    Nuclear Repulsion Energy =            350.4813288890561012
    One-Electron Energy =               -1162.4308131430248068
    Two-Electron Energy =                 467.2329078333190751
    DFT Exchange-Correlation Energy =       0.0000000000000000
    Empirical Dispersion Energy =           0.0000000000000000
    PCM Polarization Energy =               0.0000000000000000
    EFP Energy =                            0.0000000000000000
    Total Energy =                       -344.7165764206495737
    Molecular point group: c1
  Basis Set: CC-PVTZ
  Basis Set:

  -Total Gradient:
     Atom            X                  Y                   Z
    ------   -----------------  -----------------  -----------------
       1        0.000029371005    -0.000080963838     0.001540400220
       2        0.000301674694     0.000540953700    -0.002111385234
       3       -0.001033531645    -0.001291399015     0.000941737131
       4        0.000688961926     0.000824055971    -0.000378853706
       5       -0.000013980151     0.000014806829    -0.000011567712
       6        0.000003966061    -0.000002843271     0.000005322388
       7        0.000004306555     0.000000606584    -0.000015912370
       8        0.000000930678     0.000004618997     0.000001251958
       9        0.000011512149    -0.000017931531     0.000011832603
      10        0.000002773861    -0.000005249144     0.000001862528
      11        0.000000954773     0.000009888909     0.000021379949
      12        0.000000632536     0.000000182527     0.000006820946
      13        0.000000727360    -0.000001331606    -0.000006685318
      14       -0.000000000114     0.000001140329     0.000003160628
      15        0.000004519211     0.000004546897    -0.000006106033
      16       -0.000002818903    -0.000001082337    -0.000003257980

  **** Optimization is complete! (in 6 steps) ****
    Final optimized geometry and variables:
    Molecular point group: c1

    Geometry (in Angstrom), charge = 0, multiplicity = 1:

    H           -2.509902574524     0.938423313179    -0.227657031934
    O           -1.665812731424     1.353780618371    -0.216659270320
    C           -0.666652579626     0.420579938077    -0.274387099976
    C           -0.454365956730    -0.292798242623    -1.436213097710
    C            0.159744404402     0.258757828239     0.830001495585
    H           -1.097780243326    -0.121154174245    -2.278224872214
    C            0.580325228065    -1.206173600277    -1.509608189576
    C            1.196025095055    -0.654622624416     0.730743737419
    C           -0.070801554320     1.060090538060     2.084655376189
    H            0.739410292699    -1.762038288103    -2.413654983253
    C            1.409061286509    -1.387947356128    -0.422269903806
    H            1.847223698665    -0.795985415285     1.573009184187
    H           -1.052374433777     0.865241674410     2.500344751807
    H            0.668650923879     0.814807058627     2.834988436168
    H           -0.016152556768     2.122661279041     1.884012902088
    H            2.219179853554    -2.089979335445    -0.469074082397

  Mulliken Charges: (a.u.)
   Center  Symbol    Alpha    Beta     Spin     Total
       1     H     0.38699  0.38699  0.00000  0.22602
       2     O     4.18931  4.18931  0.00000 -0.37862
       3     C     2.88574  2.88574  0.00000  0.22852
       4     C     3.11381  3.11381  0.00000 -0.22762
       5     C     2.99178  2.99178  0.00000  0.01643
       6     H     0.42153  0.42153  0.00000  0.15693
       7     C     3.07636  3.07636  0.00000 -0.15273
       8     C     3.09337  3.09337  0.00000 -0.18674
       9     C     3.13974  3.13974  0.00000 -0.27948
      10     H     0.42228  0.42228  0.00000  0.15544
      11     C     3.08042  3.08042  0.00000 -0.16084
      12     H     0.42446  0.42446  0.00000  0.15108
      13     H     0.45320  0.45320  0.00000  0.09361
      14     H     0.45329  0.45329  0.00000  0.09342
      15     H     0.44356  0.44356  0.00000  0.11287
      16     H     0.42415  0.42415  0.00000  0.15170

   Total alpha = 29.00000, Total beta = 29.00000, Total charge = -0.00000

*** Psi4 exiting successfully. Buy a developer a beer!
