  ==> Input File <==

--------------------------------------------------------------------------
set {
	reference rhf
	basis 6-31G*
}

set_num_threads( 1 )
memory 2 gb

molecule MOL {
0 1

O	 0.074228	 1.262779	 -0.000085
C	 0.028650	 0.075053	 -0.000277
C	 -1.233602	 -0.752807	 0.000328
O	 1.109162	 -0.694619	 -0.000298
C	 -2.501530	 0.091881	 0.000126
H	 -1.193807	 -1.406641	 -0.865785
H	 -1.193516	 -1.405779	 0.867015
H	 -2.545121	 0.729328	 -0.874513
H	 -3.377167	 -0.548497	 0.000561
H	 -2.544818	 0.730135	 0.874258
C	 1.998367	 -0.553869	 -1.093501
H	 1.498282	 -0.787698	 -2.022291
H	 2.799840	 -1.253305	 -0.913797
H	 2.384527	 0.454110	 -1.141783

	symmetry c1
}
set optking {
	frozen_dihedral = ("
		4 2 3 6
	")
}

ee = energy('scf')
oeprop('DIPOLE', 'QUADRUPOLE', 'MULLIKEN_CHARGES')
f=open( 'psi4out.xyz', 'w' )
f.write( "14  " )
f.write( str(ee) + "\n" )
f.write( MOL.save_string_xyz() )
f.close()
--------------------------------------------------------------------------

    Molecular point group: c1

    Geometry (in Angstrom), charge = 0, multiplicity = 1:

       Center              X                  Y                   Z               Mass
    ------------   -----------------  -----------------  -----------------  -----------------
           O          0.139797823953     1.354825031930     0.195642098084    15.994914619560
           C          0.094219823953     0.167099031930     0.195450098084    12.000000000000
           C         -1.168032176047    -0.660760968070     0.196055098084    12.000000000000
           O          1.174731823953    -0.602572968070     0.195429098084    15.994914619560
           C         -2.435960176047     0.183927031930     0.195853098084    12.000000000000
           H         -1.128237176047    -1.314594968070    -0.670057901916     1.007825032070
           H         -1.127946176047    -1.313732968070     1.062742098084     1.007825032070
           H         -2.479551176047     0.821374031930    -0.678785901916     1.007825032070
           H         -3.311597176047    -0.456450968070     0.196288098084     1.007825032070
           H         -2.479248176047     0.822181031930     1.069985098084     1.007825032070
           C          2.063936823953    -0.461822968070    -0.897773901916    12.000000000000
           H          1.563851823953    -0.695651968070    -1.826563901916     1.007825032070
           H          2.865409823953    -1.161258968070    -0.718069901916     1.007825032070
           H          2.450096823953     0.546156031930    -0.946055901916     1.007825032070

  Charge       = 0
  Multiplicity = 1
  Basis Set: 6-31G*
  Basis Set:

    Orbital Energies (a.u.)
    -----------------------

    Doubly Occupied:

       1A    -20.591245     2A    -20.552718     3A    -11.373900
       4A    -11.290301     5A    -11.239382     6A    -11.216663
       7A     -1.466226     8A     -1.365847     9A     -1.062742
      10A     -0.981729    11A     -0.884858    12A     -0.769452
      13A     -0.699861    14A     -0.680550    15A     -0.672921
      16A     -0.619324    17A     -0.613112    18A     -0.554768
      19A     -0.541448    20A     -0.522264    21A     -0.508763
      22A     -0.493171    23A     -0.455609    24A     -0.436553

  @DF-RHF Final Energy:  -305.85708015294426

   => Energetics <=

    Nuclear Repulsion Energy =            247.1692784098197535
    One-Electron Energy =                -906.8658655831917486
    Two-Electron Energy =                 353.8395070204278454
    DFT Exchange-Correlation Energy =       0.0000000000000000
    Empirical Dispersion Energy =           0.0000000000000000
    PCM Polarization Energy =               0.0000000000000000
    EFP Energy =                            0.0000000000000000
    Total Energy =                       -305.8570801529441496

  Mulliken Charges: (a.u.)
   Center  Symbol    Alpha    Beta     Spin     Total
       1     O     4.26791  4.26791  0.00000 -0.53582
       2     C     2.61192  2.61192  0.00000  0.77616
       3     C     3.20688  3.20688  0.00000 -0.41375
       4     O     4.30971  4.30971  0.00000 -0.61942
       5     C     3.24001  3.24001  0.00000 -0.48002
       6     H     0.40559  0.40559  0.00000  0.18883
       7     H     0.39856  0.39856  0.00000  0.20289
       8     H     0.41109  0.41109  0.00000  0.17781
       9     H     0.41835  0.41835  0.00000  0.16329
      10     H     0.40888  0.40888  0.00000  0.18225
      11     C     3.09447  3.09447  0.00000 -0.18894
      12     H     0.41931  0.41931  0.00000  0.16138
      13     H     0.40415  0.40415  0.00000  0.19169
      14     H     0.40317  0.40317  0.00000  0.19366

   Total alpha = 24.00000, Total beta = 24.00000, Total charge =  0.00000
