                              Psi4 1.0.54 Driver

  ==> Input File <==

--------------------------------------------------------------------------
set {
	reference rhf
	basis cc-pvtz
}

set_num_threads( 4 )
memory 2 gb

molecule MOL {
0 1

H	 3.444384	 -0.062458	 -0.824248
C	 2.734029	 -0.255294	 -0.030843
C	 1.322304	 0.099773	 -0.484271
H	 2.810572	 -1.303432	 0.235460
H	 3.030980	 0.332412	 0.830414
C	 0.308557	 -0.162619	 0.622645
H	 1.051679	 -0.485701	 -1.354165
H	 1.272625	 1.144526	 -0.765269
N	 -1.069352	 -0.004081	 0.085342
H	 0.371632	 -1.172932	 0.991288
H	 0.400391	 0.548875	 1.426218
O	 -1.584901	 -0.965470	 -0.377818
O	 -1.548033	 1.079343	 0.130056

	symmetry c1
}
set optking {
	frozen_dihedral = ("
		7 3 6 9
	")
}

ee,wfn = optimize('scf', return_wfn=True)
oeprop( wfn, 'DIPOLE', 'QUADRUPOLE', 'MULLIKEN_CHARGES')
f=open( 'psi4out.xyz', 'w' )
f.write( "13  " )
f.write( str(ee) + "\n" )
f.write( MOL.save_string_xyz() )
f.close()
--------------------------------------------------------------------------

    Molecular point group: c1
  Charge       = 0
  Multiplicity = 1
  Basis Set: CC-PVTZ
  Basis Set:
  @DF-RHF Final Energy:  -321.86126214286321
    Total Energy =                       -321.8612621428631542
    Molecular point group: c1
  Basis Set: CC-PVTZ
  Basis Set:
  Basis Set: CC-PVTZ
  Basis Set:
  @DF-RHF Final Energy:  -321.86128159663474
    Total Energy =                       -321.8612815966346830
  Basis Set: CC-PVTZ
  Basis Set:
  Basis Set: CC-PVTZ
  Basis Set:
  @DF-RHF Final Energy:  -321.86076124130182
    Total Energy =                       -321.8607612413018728
  Basis Set: CC-PVTZ
  Basis Set:
  Basis Set: CC-PVTZ
  Basis Set:
  @DF-RHF Final Energy:  -321.86128510631596
    Total Energy =                       -321.8612851063159610
  Basis Set: CC-PVTZ
  Basis Set:
  Basis Set: CC-PVTZ
  Basis Set:
  @DF-RHF Final Energy:  -321.86128920731926
    Total Energy =                       -321.8612892073193734
  Basis Set: CC-PVTZ
  Basis Set:
  Basis Set: CC-PVTZ
  Basis Set:
  @DF-RHF Final Energy:  -321.86129332590701
    Total Energy =                       -321.8612933259070132
  Basis Set: CC-PVTZ
  Basis Set:
  Charge       = 0
  Multiplicity = 1
  Basis Set: CC-PVTZ
  Basis Set:

    Orbital Energies (a.u.)
    -----------------------

    Doubly Occupied:

       1A    -20.590457     2A    -20.590308     3A    -15.836953
       4A    -11.297250     5A    -11.254350     6A    -11.237294
       7A     -1.636021     8A     -1.420314     9A     -1.134265
      10A     -1.027986    11A     -0.884190    12A     -0.834637
      13A     -0.761629    14A     -0.738559    15A     -0.727563
      16A     -0.672679    17A     -0.604484    18A     -0.588973
      19A     -0.551518    20A     -0.520693    21A     -0.514429
      22A     -0.486767    23A     -0.475298    24A     -0.452944

  @DF-RHF Final Energy:  -321.86129360671509

   => Energetics <=

    Nuclear Repulsion Energy =            248.0372640011099747
    One-Electron Energy =                -930.1179932588268002
    Two-Electron Energy =                 360.2194356510018451
    DFT Exchange-Correlation Energy =       0.0000000000000000
    Empirical Dispersion Energy =           0.0000000000000000
    PCM Polarization Energy =               0.0000000000000000
    EFP Energy =                            0.0000000000000000
    Total Energy =                       -321.8612936067149803
    Molecular point group: c1
  Basis Set: CC-PVTZ
  Basis Set:

  -Total Gradient:
     Atom            X                  Y                   Z
    ------   -----------------  -----------------  -----------------
       1       -0.000001225645    -0.000001791385     0.000002115480
       2       -0.000005015250    -0.000002787650    -0.000005414081
       3        0.001164906377    -0.002012360854     0.000613640366
       4       -0.000000327594     0.000003264079     0.000002427755
       5       -0.000002427650     0.000000642734    -0.000003809314
       6       -0.000185146205     0.001902707848     0.000270771694
       7       -0.000948417010     0.001297101140    -0.000559188803
       8        0.000000606999     0.000021041462    -0.000006268996
       9       -0.000024548851    -0.001220845566    -0.000309658281
      10        0.000012520416    -0.000009708192     0.000010188184
      11        0.000009103488    -0.000005701848    -0.000013802879
      12        0.000008851668     0.000076856064     0.000009216556
      13       -0.000028880744    -0.000048417831    -0.000010217683

  **** Optimization is complete! (in 7 steps) ****
    Final optimized geometry and variables:
    Molecular point group: c1

    Geometry (in Angstrom), charge = 0, multiplicity = 1:

    H            3.448649127518    -0.025003731333    -0.813258481247
    C            2.737708771216    -0.230656928265    -0.023615312175
    C            1.325281460544     0.120067923520    -0.476026553978
    H            2.819757474880    -1.280558429354     0.233055049161
    H            3.029382506549     0.350751737460     0.843975965894
    C            0.310224758920    -0.133326441743     0.632911631417
    H            1.048593057286    -0.463589209264    -1.345565335648
    H            1.273611707433     1.162744498372    -0.764458989547
    N           -1.066878307614     0.036622708363     0.097464464501
    H            0.362073297446    -1.146368189221     0.995658619483
    H            0.411459668932     0.571861037096     1.440942315320
    O           -1.603406568101    -0.926748965055    -0.336865504928
    O           -1.524431983559     1.129989386931     0.114356787536

  Mulliken Charges: (a.u.)
   Center  Symbol    Alpha    Beta     Spin     Total
       1     H     0.44174  0.44174  0.00000  0.11651
       2     C     3.15081  3.15081  0.00000 -0.30163
       3     C     3.09583  3.09583  0.00000 -0.19167
       4     H     0.45091  0.45091  0.00000  0.09817
       5     H     0.45203  0.45203  0.00000  0.09593
       6     C     3.03886  3.03886  0.00000 -0.07772
       7     H     0.43799  0.43799  0.00000  0.12402
       8     H     0.43858  0.43858  0.00000  0.12283
       9     N     3.27648  3.27648  0.00000  0.44703
      10     H     0.43567  0.43567  0.00000  0.12865
      11     H     0.43381  0.43381  0.00000  0.13238
      12     O     4.17286  4.17286  0.00000 -0.34572
      13     O     4.17440  4.17440  0.00000 -0.34880

   Total alpha = 24.00000, Total beta = 24.00000, Total charge =  0.00000

*** Psi4 exiting successfully. Buy a developer a beer!
