  ==> Input File <==

--------------------------------------------------------------------------
set {
	reference rhf
	basis 6-31G*
}

set_num_threads( 4 )
memory 2 gb

molecule MOL {
0 1

H	 2.168912	 2.716896	 -1.017497
O	 2.978105	 2.310723	 -1.291908
C	 3.416461	 1.413344	 -0.303673
C	 2.581531	 0.139384	 -0.235516
H	 4.438385	 1.167206	 -0.562059
H	 3.437818	 1.900150	 0.670669
C	 1.124054	 0.371452	 0.170408
H	 2.616805	 -0.348371	 -1.206194
H	 3.052006	 -0.536634	 0.476538
C	 0.326841	 -0.931130	 0.282431
H	 0.650610	 1.025197	 -0.556802
H	 1.093299	 0.892434	 1.127472
C	 -1.117096	 -0.762516	 0.769210
H	 0.324706	 -1.433699	 -0.683109
H	 0.846008	 -1.596669	 0.968889
C	 -2.037799	 -0.007733	 -0.193645
H	 -1.535792	 -1.751107	 0.945839
H	 -1.114369	 -0.259170	 1.734856
C	 -3.489788	 0.042957	 0.286558
H	 -2.000669	 -0.483194	 -1.172761
H	 -1.679079	 1.008967	 -0.334863
C	 -4.216917	 1.317354	 -0.141063
H	 -4.025645	 -0.823308	 -0.095450
H	 -3.513059	 -0.038752	 1.371301
H	 -4.239342	 1.411634	 -1.223113
H	 -5.243387	 1.322503	 0.212445
H	 -3.726170	 2.201406	 0.256408

	symmetry c1
}
set optking {
	frozen_dihedral = ("
		20 16 19 22
	")
}

ee = optimize('scf')
oeprop('DIPOLE', 'QUADRUPOLE', 'MULLIKEN_CHARGES')
f=open( 'psi4out.xyz', 'w' )
f.write( "27  " )
f.write( str(ee) + "\n" )
f.write( MOL.save_string_xyz() )
f.close()
--------------------------------------------------------------------------

    Molecular point group: c1
  Charge       = 0
  Multiplicity = 1
  Basis Set: 6-31G*
  Basis Set:
  @DF-RHF Final Energy:  -388.27859027295756
    Total Energy =                       -388.2785902729571035
    Molecular point group: c1
  Basis Set: 6-31G*
  Basis Set:
  Basis Set: 6-31G*
  Basis Set:
  @DF-RHF Final Energy:  -388.27880334060035
    Total Energy =                       -388.2788033406009163
  Basis Set: 6-31G*
  Basis Set:
  Basis Set: 6-31G*
  Basis Set:
  @DF-RHF Final Energy:  -388.27882793100491
    Total Energy =                       -388.2788279310051394
  Basis Set: 6-31G*
  Basis Set:
  Basis Set: 6-31G*
  Basis Set:
  @DF-RHF Final Energy:  -388.27887707568942
    Total Energy =                       -388.2788770756897065
  Basis Set: 6-31G*
  Basis Set:
  Basis Set: 6-31G*
  Basis Set:
  @DF-RHF Final Energy:  -388.27887815094351
    Total Energy =                       -388.2788781509434557
  Basis Set: 6-31G*
  Basis Set:
  Basis Set: 6-31G*
  Basis Set:
  @DF-RHF Final Energy:  -388.27888148189862
    Total Energy =                       -388.2788814818981109
  Basis Set: 6-31G*
  Basis Set:
  Basis Set: 6-31G*
  Basis Set:
  @DF-RHF Final Energy:  -388.27888363131484
    Total Energy =                       -388.2788836313144429
  Basis Set: 6-31G*
  Basis Set:
  Charge       = 0
  Multiplicity = 1
  Basis Set: 6-31G*
  Basis Set:

    Orbital Energies (a.u.)
    -----------------------

    Doubly Occupied:

       1A    -20.552285     2A    -11.267039     3A    -11.219819
       4A    -11.217069     5A    -11.216039     6A    -11.215698
       7A    -11.215209     8A    -11.214318     9A    -11.209725
      10A     -1.359041    11A     -1.094820    12A     -1.060681
      13A     -1.011283    14A     -0.948498    15A     -0.887832
      16A     -0.820229    17A     -0.802219    18A     -0.777741
      19A     -0.693690    20A     -0.651445    21A     -0.633714
      22A     -0.614548    23A     -0.604912    24A     -0.583217
      25A     -0.581665    26A     -0.550049    27A     -0.539745
      28A     -0.534067    29A     -0.503832    30A     -0.494104
      31A     -0.487307    32A     -0.472516    33A     -0.470886
      34A     -0.458597    35A     -0.452045    36A     -0.440595
      37A     -0.422805

  @DF-RHF Final Energy:  -388.27888365696191

   => Energetics <=

    Nuclear Repulsion Energy =            460.1408452134560889
    One-Electron Energy =               -1438.2808880288735054
    Two-Electron Energy =                 589.8611591584556209
    DFT Exchange-Correlation Energy =       0.0000000000000000
    Empirical Dispersion Energy =           0.0000000000000000
    PCM Polarization Energy =               0.0000000000000000
    EFP Energy =                            0.0000000000000000
    Total Energy =                       -388.2788836569618525
    Molecular point group: c1
  Basis Set: 6-31G*
  Basis Set:

  -Total Gradient:
     Atom            X                  Y                   Z
    ------   -----------------  -----------------  -----------------
       1        0.000006977020    -0.000001505258     0.000001790202
       2        0.000012802124    -0.000000358029    -0.000009303654
       3       -0.000016724344     0.000013502711     0.000019310404
       4        0.000001837345    -0.000007175527    -0.000010430822
       5       -0.000004266118     0.000004493335    -0.000004618832
       6        0.000005898179     0.000002488267     0.000002351253
       7        0.000000741084     0.000000618996    -0.000000818528
       8       -0.000005336894    -0.000004255265    -0.000000746101
       9       -0.000002817668    -0.000001260051    -0.000001778133
      10        0.000002075827    -0.000001466514     0.000000724866
      11        0.000000580038    -0.000007853033     0.000000500064
      12       -0.000000082840    -0.000000339213    -0.000000451565
      13       -0.000001477742     0.000001197899     0.000007427473
      14        0.000001571459     0.000000901095     0.000000494978
      15        0.000001127824     0.000000763044    -0.000001954082
      16       -0.000386185812     0.005354697382    -0.001257619503
      17       -0.000000214951     0.000001607047     0.000000336761
      18        0.000000396645    -0.000003508576     0.000004006032
      19       -0.001053714323    -0.002919197695    -0.003330508189
      20        0.000582702736    -0.003873757983     0.001874869429
      21       -0.000004824470    -0.000002003048     0.000003758248
      22        0.000851757385     0.001441790909     0.002701841845
      23        0.000005844793     0.000000350649     0.000002229640
      24        0.000001164619     0.000000414346     0.000001311378
      25       -0.000001536668     0.000001774376    -0.000002273121
      26        0.000000678226    -0.000000563997     0.000000455879
      27        0.000001026523    -0.000001355864    -0.000000905922

  **** Optimization is complete! (in 8 steps) ****
    Final optimized geometry and variables:
    Molecular point group: c1

    Geometry (in Angstrom), charge = 0, multiplicity = 1:

    H            2.208022303211     2.228342101771    -0.931287446274
    O            3.013797049123     1.815129012712    -1.205253920279
    C            3.445696103450     0.916935089143    -0.214960991624
    C            2.601069393159    -0.350435179718    -0.143233283174
    H            4.465453852502     0.662323496749    -0.473607344506
    H            3.471643442389     1.405979163522     0.758153310407
    C            1.145888233095    -0.106422657516     0.263736233199
    H            2.631576711506    -0.840604426761    -1.112858204248
    H            3.067012639274    -1.028502722498     0.569829322042
    C            0.337909027456    -1.402297489916     0.376868399871
    H            0.677053316691     0.550668966605    -0.463545025307
    H            1.120086744417     0.415423699474     1.220498271352
    C           -1.102974397845    -1.220108856252     0.866239339808
    H            0.329531889184    -1.903995360193    -0.589156823668
    H            0.852409609038    -2.073090464567     1.061785292352
    C           -2.016058699919    -0.440384281911    -0.087233946525
    H           -1.535987341628    -2.204953163679     1.030780686086
    H           -1.094354277861    -0.728787478095     1.837996282230
    C           -3.483380118324    -0.438893565381     0.373833467071
    H           -1.946314968286    -0.905267879011    -1.068684284179
    H           -1.662238793089     0.581255994788    -0.189278360498
    C           -4.251616970351     0.812806499759    -0.050264312604
    H           -3.984753167479    -1.328417014756     0.002162963003
    H           -3.517317388930    -0.506784785728     1.459207387528
    H           -4.245786660308     0.935722281308    -1.130090703395
    H           -5.287782866538     0.767770159386     0.270874844274
    H           -3.807443956053     1.703447823827     0.384696173356

  Mulliken Charges: (a.u.)
   Center  Symbol    Alpha    Beta     Spin     Total
       1     H     0.27992  0.27992  0.00000  0.44017
       2     O     4.37093  4.37093  0.00000 -0.74185
       3     C     2.99738  2.99738  0.00000  0.00525
       4     C     3.16089  3.16089  0.00000 -0.32178
       5     H     0.41444  0.41444  0.00000  0.17111
       6     H     0.43206  0.43206  0.00000  0.13589
       7     C     3.16334  3.16334  0.00000 -0.32667
       8     H     0.41497  0.41497  0.00000  0.17005
       9     H     0.42432  0.42432  0.00000  0.15136
      10     C     3.15238  3.15238  0.00000 -0.30477
      11     H     0.42285  0.42285  0.00000  0.15430
      12     H     0.42548  0.42548  0.00000  0.14905
      13     C     3.15529  3.15529  0.00000 -0.31057
      14     H     0.42179  0.42179  0.00000  0.15643
      15     H     0.42152  0.42152  0.00000  0.15695
      16     C     3.15395  3.15395  0.00000 -0.30789
      17     H     0.42099  0.42099  0.00000  0.15803
      18     H     0.42424  0.42424  0.00000  0.15153
      19     C     3.15291  3.15291  0.00000 -0.30581
      20     H     0.42194  0.42194  0.00000  0.15612
      21     H     0.42218  0.42218  0.00000  0.15565
      22     C     3.23966  3.23966  0.00000 -0.47932
      23     H     0.42049  0.42049  0.00000  0.15901
      24     H     0.42230  0.42230  0.00000  0.15541
      25     H     0.42158  0.42158  0.00000  0.15684
      26     H     0.41988  0.41988  0.00000  0.16024
      27     H     0.42236  0.42236  0.00000  0.15528

   Total alpha = 37.00000, Total beta = 37.00000, Total charge =  0.00000
