                              Psi4 1.0.54 Driver

  ==> Input File <==

--------------------------------------------------------------------------
set {
	reference rhf
	basis cc-pvtz
}

set_num_threads( 4 )
memory 2 gb

molecule MOL {
0 1

H	 1.974850	 -3.594059	 -3.719716
C	 1.794199	 -3.230222	 -2.715178
C	 0.575541	 -2.314885	 -2.674154
H	 1.657617	 -4.093069	 -2.071845
H	 2.688809	 -2.712033	 -2.386286
C	 0.285399	 -1.779579	 -1.279797
H	 -0.300597	 -2.844192	 -3.031900
H	 0.730235	 -1.479189	 -3.352578
N	 -0.889000	 -0.934344	 -1.269871
H	 0.106203	 -2.612391	 -0.606386
H	 1.170457	 -1.260831	 -0.899460
C	 -1.215959	 -0.382435	 0.027143
H	 -0.777918	 -0.195312	 -1.932299
C	 -2.451944	 0.502410	 -0.038737
H	 -1.402473	 -1.208444	 0.706922
H	 -0.385227	 0.186858	 0.454772
C	 -3.752217	 -0.292550	 0.005776
H	 -2.407325	 1.093801	 -0.946480
H	 -2.431979	 1.206234	 0.790023
H	 -3.817783	 -0.982946	 -0.828547
H	 -4.612613	 0.364348	 -0.042306
H	 -3.830160	 -0.871666	 0.919868

	symmetry c1
}
set optking {
	frozen_dihedral = ("
		15 12 14 18
	")
}

ee,wfn = optimize('scf', return_wfn=True)
oeprop( wfn, 'DIPOLE', 'QUADRUPOLE', 'MULLIKEN_CHARGES')
f=open( 'psi4out.xyz', 'w' )
f.write( "22  " )
f.write( str(ee) + "\n" )
f.write( MOL.save_string_xyz() )
f.close()
--------------------------------------------------------------------------

    Molecular point group: c1
  Charge       = 0
  Multiplicity = 1
  Basis Set: CC-PVTZ
  Basis Set:
  @DF-RHF Final Energy:  -290.48814926544071
    Total Energy =                       -290.4881492654404838
    Molecular point group: c1
  Basis Set: CC-PVTZ
  Basis Set:
  Basis Set: CC-PVTZ
  Basis Set:
  @DF-RHF Final Energy:  -290.48843902009872
    Total Energy =                       -290.4884390200985536
  Basis Set: CC-PVTZ
  Basis Set:
  Basis Set: CC-PVTZ
  Basis Set:
  @DF-RHF Final Energy:  -290.48852590907131
    Total Energy =                       -290.4885259090713703
  Basis Set: CC-PVTZ
  Basis Set:
  Basis Set: CC-PVTZ
  Basis Set:
  @DF-RHF Final Energy:  -290.48852820797140
    Total Energy =                       -290.4885282079716262
  Basis Set: CC-PVTZ
  Basis Set:
  Charge       = 0
  Multiplicity = 1
  Basis Set: CC-PVTZ
  Basis Set:

    Orbital Energies (a.u.)
    -----------------------

    Doubly Occupied:

       1A    -15.528759     2A    -11.236661     3A    -11.236516
       4A    -11.212279     5A    -11.212025     6A    -11.207871
       7A    -11.200132     8A     -1.207710     9A     -1.059277
      10A     -1.023716    11A     -0.926801    12A     -0.872918
      13A     -0.809421    14A     -0.792712    15A     -0.662584
      16A     -0.635566    17A     -0.613992    18A     -0.610113
      19A     -0.571593    20A     -0.564182    21A     -0.540249
      22A     -0.524848    23A     -0.503389    24A     -0.488688
      25A     -0.479495    26A     -0.473785    27A     -0.467471
      28A     -0.451733    29A     -0.361213

  @DF-RHF Final Energy:  -290.48852855829693

   => Energetics <=

    Nuclear Repulsion Energy =            317.2698579175361147
    One-Electron Energy =               -1020.5653835968166732
    Two-Electron Energy =                 412.8069971209835671
    DFT Exchange-Correlation Energy =       0.0000000000000000
    Empirical Dispersion Energy =           0.0000000000000000
    PCM Polarization Energy =               0.0000000000000000
    EFP Energy =                            0.0000000000000000
    Total Energy =                       -290.4885285582969914
    Molecular point group: c1
  Basis Set: CC-PVTZ
  Basis Set:

  -Total Gradient:
     Atom            X                  Y                   Z
    ------   -----------------  -----------------  -----------------
       1       -0.000000776015    -0.000000635046     0.000000581431
       2       -0.000001914601     0.000000757876    -0.000001034564
       3        0.000002970571    -0.000000278528     0.000004035816
       4        0.000000943513    -0.000002184624     0.000001553152
       5       -0.000000426599     0.000000583943     0.000000081627
       6       -0.000024356884     0.000021971850    -0.000010596344
       7       -0.000000882779    -0.000000106759    -0.000003872217
       8       -0.000001036162     0.000001013912    -0.000001745065
       9        0.000028901040    -0.000013870009     0.000006156478
      10        0.000002112340    -0.000001026672     0.000003530743
      11        0.000011556545    -0.000003516598     0.000001794252
      12        0.001026458825     0.001716122927     0.002717323024
      13        0.000000848168    -0.000003460482     0.000007092638
      14        0.001626221767     0.002580903866     0.001425619465
      15       -0.001114989291    -0.001836774881    -0.002516677309
      16       -0.000011630448    -0.000002992211    -0.000004069562
      17       -0.000020464749    -0.000016121372    -0.000028491769
      18       -0.001531201190    -0.002444471680    -0.001616295458
      19        0.000010365290     0.000003420755    -0.000001973609
      20        0.000002186487    -0.000003723583     0.000004454652
      21       -0.000001851101     0.000003986817     0.000008827923
      22       -0.000003034730     0.000000400498     0.000003704698

  **** Optimization is complete! (in 5 steps) ****
    Final optimized geometry and variables:
    Molecular point group: c1

    Geometry (in Angstrom), charge = 0, multiplicity = 1:

    H            2.743996188627    -2.399436819361    -2.587563450645
    C            2.566555440567    -2.039576036334    -1.581014242398
    C            1.369662842924    -1.096057405960    -1.538880724373
    H            2.406138757647    -2.904072774212    -0.945458909082
    H            3.471256615086    -1.545200169517    -1.243227048623
    C            1.084048689317    -0.566485161752    -0.141326199578
    H            0.483577753184    -1.601587162680    -1.906485235692
    H            1.548244189217    -0.258331822552    -2.208880534031
    N           -0.071083325126     0.304646946013    -0.129645287150
    H            0.883907216504    -1.401042057851     0.523880991181
    H            1.978628806655    -0.070442565820     0.247294652890
    C           -0.382770840478     0.867234475323     1.170124065777
    H            0.057661471394     1.041691873755    -0.791058343132
    C           -1.658794045885     1.704657380106     1.117085903327
    H           -0.528843742073     0.032725002484     1.848711815653
    H            0.441525601779     1.464774362329     1.564975334622
    C           -2.930044745168     0.859632220748     1.122008612538
    H           -1.647569384714     2.301645618034     0.209041014812
    H           -1.673702978656     2.395362510874     1.953448690638
    H           -2.919438910071     0.147630175682     0.306505502385
    H           -3.812962854770     1.480335714162     1.018024233063
    H           -3.024116739053     0.304999424666     2.049948446750

  Mulliken Charges: (a.u.)
   Center  Symbol    Alpha    Beta     Spin     Total
       1     H     0.44769  0.44769  0.00000  0.10463
       2     C     3.15354  3.15354  0.00000 -0.30709
       3     C     3.08098  3.08098  0.00000 -0.16196
       4     H     0.45470  0.45470  0.00000  0.09059
       5     H     0.45610  0.45610  0.00000  0.08780
       6     C     3.02169  3.02169  0.00000 -0.04338
       7     H     0.44917  0.44917  0.00000  0.10166
       8     H     0.45954  0.45954  0.00000  0.08093
       9     N     3.64131  3.64131  0.00000 -0.28262
      10     H     0.45940  0.45940  0.00000  0.08119
      11     H     0.47516  0.47516  0.00000  0.04968
      12     C     3.03477  3.03477  0.00000 -0.06953
      13     H     0.44496  0.44496  0.00000  0.11009
      14     C     3.08024  3.08024  0.00000 -0.16049
      15     H     0.45907  0.45907  0.00000  0.08186
      16     H     0.46339  0.46339  0.00000  0.07321
      17     C     3.14930  3.14930  0.00000 -0.29861
      18     H     0.46045  0.46045  0.00000  0.07911
      19     H     0.45142  0.45142  0.00000  0.09717
      20     H     0.44826  0.44826  0.00000  0.10347
      21     H     0.45136  0.45136  0.00000  0.09729
      22     H     0.45751  0.45751  0.00000  0.08498

   Total alpha = 29.00000, Total beta = 29.00000, Total charge = -0.00000

*** Psi4 exiting successfully. Buy a developer a beer!
