  ==> Input File <==

--------------------------------------------------------------------------
set {
	reference rhf
	basis 6-31G*
}

set_num_threads( 1 )
memory 2 gb

molecule MOL {
0 1

H	 -3.135461	 -1.215070	 0.001379
O	 -2.310168	 -0.871793	 -0.309793
C	 -2.026376	 0.340750	 0.341611
C	 -0.673256	 0.843270	 -0.132153
H	 -2.792215	 1.080697	 0.115987
H	 -2.013526	 0.200402	 1.421792
C	 0.486613	 -0.083066	 0.235839
H	 -0.715586	 0.970948	 -1.210718
H	 -0.508072	 1.829858	 0.297090
C	 1.726605	 0.675128	 0.712679
H	 0.740799	 -0.693641	 -0.624452
H	 0.163179	 -0.769008	 1.017960
C	 2.883714	 -0.250835	 1.085993
H	 2.051203	 1.360029	 -0.067875
H	 1.467558	 1.292067	 1.571005
H	 3.188954	 -0.856687	 0.237664
H	 3.749494	 0.314074	 1.418028
H	 2.601917	 -0.926465	 1.888879

	symmetry c1
}
set optking {
	frozen_dihedral = ("
		14 10 7 11,
		2 3 4 8,
		1 2 3 4
	")
}

ee = energy('scf')
oeprop('DIPOLE', 'QUADRUPOLE', 'MULLIKEN_CHARGES')
f=open( 'psi4out.xyz', 'w' )
f.write( "18  " )
f.write( str(ee) + "\n" )
f.write( MOL.save_string_xyz() )
f.close()
--------------------------------------------------------------------------

    Molecular point group: c1

    Geometry (in Angstrom), charge = 0, multiplicity = 1:

       Center              X                  Y                   Z               Mass
    ------------   -----------------  -----------------  -----------------  -----------------
           H         -3.097459018665    -1.294151076899    -0.317466551970     1.007825032070
           O         -2.272166018665    -0.950874076899    -0.628638551970    15.994914619560
           C         -1.988374018665     0.261668923101     0.022765448030    12.000000000000
           C         -0.635254018665     0.764188923101    -0.450998551970    12.000000000000
           H         -2.754213018665     1.001615923101    -0.202858551970     1.007825032070
           H         -1.975524018665     0.121320923101     1.102946448030     1.007825032070
           C          0.524614981335    -0.162147076899    -0.083006551970    12.000000000000
           H         -0.677584018665     0.891866923101    -1.529563551970     1.007825032070
           H         -0.470070018665     1.750776923101    -0.021755551970     1.007825032070
           C          1.764606981335     0.596046923101     0.393833448030    12.000000000000
           H          0.778800981335    -0.772722076899    -0.943297551970     1.007825032070
           H          0.201180981335    -0.848089076899     0.699114448030     1.007825032070
           C          2.921715981335    -0.329916076899     0.767147448030    12.000000000000
           H          2.089204981335     1.280947923101    -0.386720551970     1.007825032070
           H          1.505559981335     1.212985923101     1.252159448030     1.007825032070
           H          3.226955981335    -0.935768076899    -0.081181551970     1.007825032070
           H          3.787495981335     0.234992923101     1.099182448030     1.007825032070
           H          2.639918981335    -1.005546076899     1.570033448030     1.007825032070

  Charge       = 0
  Multiplicity = 1
  Basis Set: 6-31G*
  Basis Set:

    Orbital Energies (a.u.)
    -----------------------

    Doubly Occupied:

       1A    -20.552766     2A    -11.267939     3A    -11.211963
       4A    -11.210913     5A    -11.206359     6A    -11.205014
       7A     -1.359427     8A     -1.075599     9A     -1.008614
      10A     -0.913123    11A     -0.819868    12A     -0.783392
      13A     -0.702071    14A     -0.650419    15A     -0.619476
      16A     -0.577068    17A     -0.573145    18A     -0.558088
      19A     -0.522991    20A     -0.505924    21A     -0.484160
      22A     -0.467507    23A     -0.456355    24A     -0.448745
      25A     -0.428733

  @DF-RHF Final Energy:  -271.17576500621243

   => Energetics <=

    Nuclear Repulsion Energy =            249.2442800039489725
    One-Electron Energy =                -861.6208062241073549
    Two-Electron Energy =                 341.2007612139461230
    DFT Exchange-Correlation Energy =       0.0000000000000000
    Empirical Dispersion Energy =           0.0000000000000000
    PCM Polarization Energy =               0.0000000000000000
    EFP Energy =                            0.0000000000000000
    Total Energy =                       -271.1757650062123162

  Mulliken Charges: (a.u.)
   Center  Symbol    Alpha    Beta     Spin     Total
       1     H     0.28076  0.28076  0.00000  0.43849
       2     O     4.36948  4.36948  0.00000 -0.73896
       3     C     2.99953  2.99953  0.00000  0.00093
       4     C     3.16172  3.16172  0.00000 -0.32345
       5     H     0.43004  0.43004  0.00000  0.13991
       6     H     0.43279  0.43279  0.00000  0.13443
       7     C     3.14895  3.14895  0.00000 -0.29790
       8     H     0.41300  0.41300  0.00000  0.17401
       9     H     0.42213  0.42213  0.00000  0.15575
      10     C     3.15486  3.15486  0.00000 -0.30972
      11     H     0.41539  0.41539  0.00000  0.16923
      12     H     0.41996  0.41996  0.00000  0.16008
      13     C     3.23922  3.23922  0.00000 -0.47844
      14     H     0.42336  0.42336  0.00000  0.15328
      15     H     0.42510  0.42510  0.00000  0.14980
      16     H     0.42114  0.42114  0.00000  0.15772
      17     H     0.42051  0.42051  0.00000  0.15898
      18     H     0.42205  0.42205  0.00000  0.15589

   Total alpha = 25.00000, Total beta = 25.00000, Total charge = -0.00000
