                              Psi4 1.0.54 Driver

  ==> Input File <==

--------------------------------------------------------------------------
set {
	reference rhf
	basis cc-pvtz
}

set_num_threads( 4 )
memory 2 gb

molecule MOL {
0 1

H	 -3.162190	 0.493205	 -0.000107
C	 -2.363908	 -0.234727	 0.000005
O	 -1.158738	 0.454634	 -0.000087
H	 -2.464314	 -0.863616	 -0.882153
H	 -2.464327	 -0.863359	 0.882345
C	 -0.028611	 -0.359694	 0.000037
C	 1.212847	 0.509314	 -0.000053
H	 -0.034155	 -1.007047	 -0.877198
H	 -0.034195	 -1.006836	 0.877430
C	 2.366420	 -0.123159	 0.770399
H	 1.506087	 0.692632	 -1.027832
H	 0.960313	 1.472424	 0.429594
H	 2.651695	 -1.078114	 0.341719
H	 3.239256	 0.517866	 0.754100
H	 2.102385	 -0.292834	 1.808939

	symmetry c1
}
set optking {
	frozen_dihedral = ("
		11 7 6 8
	")
}

ee,wfn = optimize('scf', return_wfn=True)
oeprop( wfn, 'DIPOLE', 'QUADRUPOLE', 'MULLIKEN_CHARGES')
f=open( 'psi4out.xyz', 'w' )
f.write( "15  " )
f.write( str(ee) + "\n" )
f.write( MOL.save_string_xyz() )
f.close()
--------------------------------------------------------------------------

    Molecular point group: c1
  Charge       = 0
  Multiplicity = 1
  Basis Set: CC-PVTZ
  Basis Set:
  @DF-RHF Final Energy:  -232.22463658877828
    Total Energy =                       -232.2246365887783099
    Molecular point group: c1
  Basis Set: CC-PVTZ
  Basis Set:
  Basis Set: CC-PVTZ
  Basis Set:
  @DF-RHF Final Energy:  -232.22497190436010
    Total Energy =                       -232.2249719043600749
  Basis Set: CC-PVTZ
  Basis Set:
  Basis Set: CC-PVTZ
  Basis Set:
  @DF-RHF Final Energy:  -232.22505869890335
    Total Energy =                       -232.2250586989033536
  Basis Set: CC-PVTZ
  Basis Set:
  Basis Set: CC-PVTZ
  Basis Set:
  @DF-RHF Final Energy:  -232.22506116390213
    Total Energy =                       -232.2250611639021258
  Basis Set: CC-PVTZ
  Basis Set:
  Charge       = 0
  Multiplicity = 1
  Basis Set: CC-PVTZ
  Basis Set:

    Orbital Energies (a.u.)
    -----------------------

    Doubly Occupied:

       1A    -20.546931     2A    -11.264730     3A    -11.261295
       4A    -11.212837     5A    -11.210051     6A     -1.380573
       7A     -1.056582     8A     -0.955305     9A     -0.877111
      10A     -0.809395    11A     -0.676099    12A     -0.655450
      13A     -0.632921    14A     -0.604299    15A     -0.567004
      16A     -0.544364    17A     -0.498248    18A     -0.489560
      19A     -0.479730    20A     -0.462599    21A     -0.415717

  @DF-RHF Final Energy:  -232.22506164261381

   => Energetics <=

    Nuclear Repulsion Energy =            189.9355692053642883
    One-Electron Energy =                -691.1196676330416722
    Two-Electron Energy =                 268.9590367850635744
    DFT Exchange-Correlation Energy =       0.0000000000000000
    Empirical Dispersion Energy =           0.0000000000000000
    PCM Polarization Energy =               0.0000000000000000
    EFP Energy =                            0.0000000000000000
    Total Energy =                       -232.2250616426138095
    Molecular point group: c1
  Basis Set: CC-PVTZ
  Basis Set:

  -Total Gradient:
     Atom            X                  Y                   Z
    ------   -----------------  -----------------  -----------------
       1        0.000004352515    -0.000003192439     0.000003423453
       2       -0.000043608278    -0.000019651962    -0.000005585430
       3        0.000061674468    -0.000026528728     0.000000934510
       4       -0.000002904544     0.000003359738     0.000006260467
       5       -0.000003563356     0.000003974250    -0.000004194677
       6        0.003399830516    -0.004764564941     0.002887360149
       7       -0.003759090309     0.005357981152    -0.000665544737
       8       -0.002270990834     0.003151623860    -0.002314784928
       9        0.000012015695     0.000011219049    -0.000007255248
      10       -0.000001300776     0.000019106350     0.000015678122
      11        0.002590519448    -0.003702697031     0.000079685424
      12        0.000000442634    -0.000016933577     0.000001922039
      13       -0.000004922903    -0.000004536419    -0.000001042240
      14        0.000003328576    -0.000002581336     0.000001279926
      15        0.000014217147    -0.000006577965     0.000001863171

  **** Optimization is complete! (in 5 steps) ****
    Final optimized geometry and variables:
    Molecular point group: c1

    Geometry (in Angstrom), charge = 0, multiplicity = 1:

    H           -3.145208785538     0.445850327357    -0.204896439588
    C           -2.343624139466    -0.278558940399    -0.192726293348
    O           -1.142247447743     0.414884179157    -0.146646956557
    H           -2.416019359831    -0.894526716722    -1.086855238121
    H           -2.467658427027    -0.921715223547     0.676360891842
    C           -0.007589841367    -0.399262199442    -0.114266573712
    C            1.236502587491     0.480979357661    -0.137212410961
    H           -0.024892224472    -1.053834541776    -0.984349741557
    H           -0.025417984897    -1.020311651090     0.779901881666
    C            2.418359597458    -0.160991658601     0.585640053379
    H            1.526940067342     0.666641724912    -1.165143972343
    H            0.990376654137     1.431246142047     0.318147138822
    H            2.661634120298    -1.130197982129     0.161374552562
    H            3.303166134851     0.459745528853     0.510204466760
    H            2.203059879141    -0.306749128479     1.638610439493

  Mulliken Charges: (a.u.)
   Center  Symbol    Alpha    Beta     Spin     Total
       1     H     0.44698  0.44698  0.00000  0.10605
       2     C     3.03040  3.03040  0.00000 -0.06079
       3     O     4.17235  4.17235  0.00000 -0.34470
       4     H     0.47227  0.47227  0.00000  0.05547
       5     H     0.47335  0.47335  0.00000  0.05330
       6     C     2.95910  2.95910  0.00000  0.08179
       7     C     3.08318  3.08318  0.00000 -0.16636
       8     H     0.47414  0.47414  0.00000  0.05173
       9     H     0.47510  0.47510  0.00000  0.04980
      10     C     3.15445  3.15445  0.00000 -0.30889
      11     H     0.45373  0.45373  0.00000  0.09255
      12     H     0.44632  0.44632  0.00000  0.10735
      13     H     0.45635  0.45635  0.00000  0.08730
      14     H     0.44766  0.44766  0.00000  0.10468
      15     H     0.45463  0.45463  0.00000  0.09074

   Total alpha = 21.00000, Total beta = 21.00000, Total charge = -0.00000

*** Psi4 exiting successfully. Buy a developer a beer!
