  ==> Input File <==

--------------------------------------------------------------------------
set {
	reference rhf
	basis 6-31G*
}

set_num_threads( 4 )
memory 2 gb

molecule MOL {
0 1

H	 1.872598	 -0.252764	 -2.940040
O	 2.335926	 0.158906	 -2.223412
C	 1.532767	 0.324085	 -1.153445
C	 2.087020	 0.919709	 -0.024739
C	 0.209397	 -0.071893	 -1.148428
H	 3.117861	 1.218700	 -0.053530
C	 1.315915	 1.116158	 1.102146
H	 -0.243398	 -0.533147	 -2.003851
C	 -0.536158	 0.140425	 0.000000
H	 1.751890	 1.576745	 1.969119
C	 -0.016541	 0.726914	 1.132068
N	 -1.935604	 -0.280333	 0.000000
H	 -0.627345	 0.872653	 1.998718
O	 -2.161694	 -1.452901	 0.000000
O	 -2.770341	 0.571417	 0.000000

	symmetry c1
}
set optking {
	frozen_dihedral = ("
		11 9 12 14
	")
}

ee = optimize('scf')
oeprop('DIPOLE', 'QUADRUPOLE', 'MULLIKEN_CHARGES')
f=open( 'psi4out.xyz', 'w' )
f.write( "15  " )
f.write( str(ee) + "\n" )
f.write( MOL.save_string_xyz() )
f.close()
--------------------------------------------------------------------------

    Molecular point group: c1
  Charge       = 0
  Multiplicity = 1
  Basis Set: 6-31G*
  Basis Set:
  @DF-RHF Final Energy:  -509.01796298730022
    Total Energy =                       -509.0179629873002796
    Molecular point group: c1
  Basis Set: 6-31G*
  Basis Set:
  Basis Set: 6-31G*
  Basis Set:
  @DF-RHF Final Energy:  -509.01254340685398
    Total Energy =                       -509.0125434068542063
  Basis Set: 6-31G*
  Basis Set:
  Basis Set: 6-31G*
  Basis Set:
  @DF-RHF Final Energy:  -509.01816567467517
    Total Energy =                       -509.0181656746751742
  Basis Set: 6-31G*
  Basis Set:
  Basis Set: 6-31G*
  Basis Set:
  @DF-RHF Final Energy:  -509.01850587148664
    Total Energy =                       -509.0185058714868092
  Basis Set: 6-31G*
  Basis Set:
  Basis Set: 6-31G*
  Basis Set:
  @DF-RHF Final Energy:  -509.01850811365733
    Total Energy =                       -509.0185081136573899
  Basis Set: 6-31G*
  Basis Set:
  Charge       = 0
  Multiplicity = 1
  Basis Set: 6-31G*
  Basis Set:

    Orbital Energies (a.u.)
    -----------------------

    Doubly Occupied:

       1A    -20.617962     2A    -20.609947     3A    -20.609584
       4A    -15.859167     5A    -11.333519     6A    -11.316495
       7A    -11.268838     8A    -11.268662     9A    -11.263414
      10A    -11.255201    11A     -1.641468    12A     -1.439010
      13A     -1.425503    14A     -1.202578    15A     -1.095736
      16A     -1.048552    17A     -0.965738    18A     -0.884146
      19A     -0.830331    20A     -0.789259    21A     -0.762887
      22A     -0.734574    23A     -0.720966    24A     -0.710597
      25A     -0.668732    26A     -0.635536    27A     -0.618094
      28A     -0.592952    29A     -0.563655    30A     -0.548638
      31A     -0.531707    32A     -0.490691    33A     -0.486274
      34A     -0.455034    35A     -0.374065    36A     -0.343207

  @DF-RHF Final Energy:  -509.01850844380095

   => Energetics <=

    Nuclear Repulsion Energy =            502.6782418695357251
    One-Electron Energy =               -1691.4680593659147689
    Two-Electron Energy =                 679.7713090525780899
    DFT Exchange-Correlation Energy =       0.0000000000000000
    Empirical Dispersion Energy =           0.0000000000000000
    PCM Polarization Energy =               0.0000000000000000
    EFP Energy =                            0.0000000000000000
    Total Energy =                       -509.0185084438010108
    Molecular point group: c1
  Basis Set: 6-31G*
  Basis Set:

  -Total Gradient:
     Atom            X                  Y                   Z
    ------   -----------------  -----------------  -----------------
       1       -0.000002119108     0.000004014021    -0.000004516751
       2        0.000008049864    -0.000004241887     0.000000617161
       3       -0.000038300737    -0.000012408855     0.000018152825
       4       -0.000007383922     0.000038162564     0.000007648623
       5       -0.000010564455     0.000100278142    -0.000015600034
       6        0.000002028066     0.000001195705    -0.000001355179
       7        0.000035451959    -0.000048211891    -0.000008393705
       8       -0.000012318566    -0.000007454784    -0.000014338743
       9       -0.001968289711     0.006013116987    -0.000020490979
      10       -0.000004857402     0.000001318882    -0.000003171175
      11        0.001387984195    -0.004280291414     0.001427376064
      12        0.000489796572    -0.001665832223    -0.006917087616
      13       -0.000011460011     0.000005093286     0.000013669106
      14        0.000121119433    -0.000158478466     0.005516149897
      15        0.000010863813     0.000013739936     0.000001340508

  **** Optimization is complete! (in 6 steps) ****
    Final optimized geometry and variables:
    Molecular point group: c1

    Geometry (in Angstrom), charge = 0, multiplicity = 1:

    H            1.929935911083    -0.444762542866    -2.668288861929
    O            2.388725191591    -0.028013101804    -1.951777868535
    C            1.584027525117     0.143127400947    -0.886271439776
    C            2.138378687014     0.731083622374     0.246288378553
    C            0.257298939773    -0.250293954918    -0.884468689226
    H            3.172467247723     1.018563753824     0.223920854484
    C            1.364045226508     0.928277927820     1.370291829443
    H           -0.187086577260    -0.733827735066    -1.735360750529
    C           -0.490414484824    -0.007177729436     0.251060368702
    H            1.802837868502     1.373759670372     2.243855678927
    C            0.023971880009     0.560428473495     1.390548290640
    N           -1.878955043937    -0.462813835968     0.265112161590
    H           -0.593189212227     0.719789902653     2.253428699277
    O           -2.063286935801    -1.640451576785     0.238809640479
    O           -2.725541097949     0.372228599197     0.344920251436

  Mulliken Charges: (a.u.)
   Center  Symbol    Alpha    Beta     Spin     Total
       1     H     0.26740  0.26740  0.00000  0.46519
       2     O     4.37419  4.37419  0.00000 -0.74838
       3     C     2.79120  2.79120  0.00000  0.41761
       4     C     3.11536  3.11536  0.00000 -0.23072
       5     C     3.13508  3.13508  0.00000 -0.27017
       6     H     0.38215  0.38215  0.00000  0.23570
       7     C     3.09594  3.09594  0.00000 -0.19187
       8     H     0.38060  0.38060  0.00000  0.23881
       9     C     2.88942  2.88942  0.00000  0.22116
      10     H     0.38666  0.38666  0.00000  0.22668
      11     C     3.10049  3.10049  0.00000 -0.20097
      12     N     3.25807  3.25807  0.00000  0.48386
      13     H     0.37605  0.37605  0.00000  0.24789
      14     O     4.22488  4.22488  0.00000 -0.44977
      15     O     4.22251  4.22251  0.00000 -0.44502

   Total alpha = 36.00000, Total beta = 36.00000, Total charge =  0.00000
