                              Psi4 1.0.54 Driver

  ==> Input File <==

--------------------------------------------------------------------------
set {
	reference rhf
	basis cc-pvtz
}

set_num_threads( 4 )
memory 2 gb

molecule MOL {
0 1

H	 -3.442232	 -0.174853	 0.071625
O	 -2.657674	 -0.702268	 0.076191
C	 -1.605397	 0.107680	 0.001145
C	 -0.310616	 -0.658853	 0.000791
O	 -1.719362	 1.282949	 -0.059893
C	 0.926581	 0.227233	 0.000178
H	 -0.327628	 -1.313681	 -0.864448
H	 -0.327041	 -1.313334	 0.866298
C	 2.220156	 -0.582071	 -0.000088
H	 0.899945	 0.878221	 -0.866390
H	 0.900542	 0.878581	 0.866486
C	 3.466689	 0.296012	 -0.000457
H	 2.239073	 -1.234095	 -0.869382
H	 2.239505	 -1.233985	 0.869270
H	 3.493549	 0.935857	 -0.875887
H	 4.368821	 -0.304526	 -0.001199
H	 3.494559	 0.935166	 0.875458

	symmetry c1
}
set optking {
	frozen_dihedral = ("
		2 3 4 7
	")
}

ee,wfn = optimize('scf', return_wfn=True)
oeprop( wfn, 'DIPOLE', 'QUADRUPOLE', 'MULLIKEN_CHARGES')
f=open( 'psi4out.xyz', 'w' )
f.write( "17  " )
f.write( str(ee) + "\n" )
f.write( MOL.save_string_xyz() )
f.close()
--------------------------------------------------------------------------

    Molecular point group: c1
  Charge       = 0
  Multiplicity = 1
  Basis Set: CC-PVTZ
  Basis Set:
  @DF-RHF Final Energy:  -345.04891524731596
    Total Energy =                       -345.0489152473165859
    Molecular point group: c1
  Basis Set: CC-PVTZ
  Basis Set:
  Basis Set: CC-PVTZ
  Basis Set:
  @DF-RHF Final Energy:  -345.04891498346188
    Total Energy =                       -345.0489149834612590
  Basis Set: CC-PVTZ
  Basis Set:
  Basis Set: CC-PVTZ
  Basis Set:
  @DF-RHF Final Energy:  -345.04891067160304
    Total Energy =                       -345.0489106716032666
  Basis Set: CC-PVTZ
  Basis Set:
  Charge       = 0
  Multiplicity = 1
  Basis Set: CC-PVTZ
  Basis Set:

    Orbital Energies (a.u.)
    -----------------------

    Doubly Occupied:

       1A    -20.604179     2A    -20.540719     3A    -11.373721
       4A    -11.239405     5A    -11.221334     6A    -11.220695
       7A    -11.210709     8A     -1.477728     9A     -1.369235
      10A     -1.092934    11A     -1.019866    12A     -0.914912
      13A     -0.824989    14A     -0.791080    15A     -0.703979
      16A     -0.688126    17A     -0.672224    18A     -0.631425
      19A     -0.593365    20A     -0.585347    21A     -0.574797
      22A     -0.538644    23A     -0.509297    24A     -0.484837
      25A     -0.482919    26A     -0.478455    27A     -0.472681
      28A     -0.446322

  @DF-RHF Final Energy:  -345.04892012488114

   => Energetics <=

    Nuclear Repulsion Energy =            304.7976360347867626
    One-Electron Energy =               -1074.1652673869139107
    Two-Electron Energy =                 424.3187112272463537
    DFT Exchange-Correlation Energy =       0.0000000000000000
    Empirical Dispersion Energy =           0.0000000000000000
    PCM Polarization Energy =               0.0000000000000000
    EFP Energy =                            0.0000000000000000
    Total Energy =                       -345.0489201248807376
    Molecular point group: c1
  Basis Set: CC-PVTZ
  Basis Set:

  -Total Gradient:
     Atom            X                  Y                   Z
    ------   -----------------  -----------------  -----------------
       1       -0.000066614740     0.000040749191    -0.000009285831
       2        0.000060481253    -0.000025302381     0.000206013869
       3        0.000021954917    -0.000021060290    -0.000374477906
       4       -0.000087169004    -0.000146602047     0.000213464555
       5       -0.000006065023     0.000027995615     0.000050928847
       6       -0.000008406303    -0.000011846988    -0.000012286818
       7        0.000071757011     0.000155372598    -0.000093487751
       8        0.000009452719    -0.000025751124     0.000018684643
       9        0.000003855554     0.000004738482     0.000003206285
      10        0.000004061566     0.000005347334    -0.000003106195
      11       -0.000002657397    -0.000001326520     0.000001769271
      12       -0.000001084873    -0.000001540281    -0.000001653450
      13       -0.000002548002     0.000001566908    -0.000001335160
      14        0.000002144603    -0.000002175537     0.000002298511
      15        0.000000087694     0.000000734893    -0.000000971802
      16        0.000001355450    -0.000000666340    -0.000000415038
      17       -0.000000605415    -0.000000233509     0.000000653971

  **** Optimization is complete! (in 4 steps) ****
    Final optimized geometry and variables:
    Molecular point group: c1

    Geometry (in Angstrom), charge = 0, multiplicity = 1:

    H           -3.442485540947    -0.174499296619     0.057027194512
    O           -2.658155520231    -0.702272535844     0.069733027187
    C           -1.605289729700     0.107323299065    -0.001201624910
    C           -0.310644503412    -0.659426771259     0.003426039564
    O           -1.718657848283     1.282701514261    -0.061569912186
    C            0.926352629565     0.227052862143    -0.001536121940
    H           -0.327974677662    -1.313036260445    -0.863119857203
    H           -0.326020313681    -1.313908572596     0.868446502454
    C            2.220130610238    -0.581882196435    -0.004491156752
    H            0.896821870590     0.877311582996    -0.868302861897
    H            0.902867107914     0.879018629705     0.864632005454
    C            3.466369938982     0.296565647261    -0.008809978698
    H            2.236809113340    -1.234304405593    -0.873526387636
    H            2.242087841889    -1.233292875054     0.865171876136
    H            3.490766324809     0.935604024896    -0.884895628981
    H            4.368679216733    -0.303709850978    -0.011261885012
    H            3.496244163204     0.936525128336     0.866453440944

  Mulliken Charges: (a.u.)
   Center  Symbol    Alpha    Beta     Spin     Total
       1     H     0.38239  0.38239  0.00000  0.23521
       2     O     4.15975  4.15975  0.00000 -0.31949
       3     C     2.80478  2.80478  0.00000  0.39044
       4     C     3.11072  3.11072  0.00000 -0.22144
       5     O     4.19117  4.19117  0.00000 -0.38235
       6     C     3.08207  3.08207  0.00000 -0.16415
       7     H     0.43864  0.43864  0.00000  0.12271
       8     H     0.43773  0.43773  0.00000  0.12454
       9     C     3.08604  3.08604  0.00000 -0.17209
      10     H     0.44556  0.44556  0.00000  0.10887
      11     H     0.44689  0.44689  0.00000  0.10621
      12     C     3.14924  3.14924  0.00000 -0.29848
      13     H     0.45481  0.45481  0.00000  0.09039
      14     H     0.45487  0.45487  0.00000  0.09027
      15     H     0.45360  0.45360  0.00000  0.09279
      16     H     0.44801  0.44801  0.00000  0.10398
      17     H     0.45371  0.45371  0.00000  0.09258

   Total alpha = 28.00000, Total beta = 28.00000, Total charge = -0.00000

*** Psi4 exiting successfully. Buy a developer a beer!
