  ==> Input File <==

--------------------------------------------------------------------------
set {
	reference rhf
	basis cc-pvtz
}

set_num_threads( 4 )
memory 2 gb

molecule MOL {
0 1

H	 -3.579911	 0.597780	 1.693602
O	 -2.877182	 0.038165	 1.419377
C	 -2.302264	 0.528872	 0.237390
C	 -1.175688	 -0.398187	 -0.171891
H	 -3.046144	 0.580343	 -0.554927
H	 -1.916954	 1.534806	 0.390561
C	 0.196029	 0.106276	 0.266738
H	 -1.201873	 -0.515469	 -1.250677
H	 -1.365975	 -1.378728	 0.252664
C	 1.330220	 -0.826136	 -0.155230
H	 0.359542	 1.097229	 -0.145561
H	 0.212134	 0.218135	 1.348778
C	 2.719700	 -0.407669	 0.328325
H	 1.339388	 -0.911200	 -1.239363
H	 1.119001	 -1.821953	 0.224128
C	 3.241564	 0.893452	 -0.276737
H	 3.418299	 -1.204729	 0.093035
H	 2.711776	 -0.323368	 1.411960
H	 3.254204	 0.841071	 -1.360784
H	 2.634460	 1.745075	 0.005842
H	 4.254264	 1.092401	 0.054971

	symmetry c1
}
set optking {
	frozen_dihedral = ("
		2 3 4 8
	")
}

ee = optimize('scf')
oeprop('DIPOLE', 'QUADRUPOLE', 'MULLIKEN_CHARGES')
f=open( 'psi4out.xyz', 'w' )
f.write( "21  " )
f.write( str(ee) + "\n" )
f.write( MOL.save_string_xyz() )
f.close()
--------------------------------------------------------------------------

    Molecular point group: c1
  Charge       = 0
  Multiplicity = 1
  Basis Set: CC-PVTZ
  Basis Set:
  @DF-RHF Final Energy:  -310.32890817785045
    Total Energy =                       -310.3289081778504510
    Molecular point group: c1
  Basis Set: CC-PVTZ
  Basis Set:
  Basis Set: CC-PVTZ
  Basis Set:
  @DF-RHF Final Energy:  -310.32935011946199
    Total Energy =                       -310.3293501194619353
  Basis Set: CC-PVTZ
  Basis Set:
  Basis Set: CC-PVTZ
  Basis Set:
  @DF-RHF Final Energy:  -310.32944950245093
    Total Energy =                       -310.3294495024509843
  Basis Set: CC-PVTZ
  Basis Set:
  Basis Set: CC-PVTZ
  Basis Set:
  @DF-RHF Final Energy:  -310.32945093897985
    Total Energy =                       -310.3294509389800169
  Basis Set: CC-PVTZ
  Basis Set:
  Basis Set: CC-PVTZ
  Basis Set:
  @DF-RHF Final Energy:  -310.32945435211332
    Total Energy =                       -310.3294543521132596
  Basis Set: CC-PVTZ
  Basis Set:
  Charge       = 0
  Multiplicity = 1
  Basis Set: CC-PVTZ
  Basis Set:

    Orbital Energies (a.u.)
    -----------------------

    Doubly Occupied:

       1A    -20.545463     2A    -11.265388     3A    -11.211049
       4A    -11.209365     5A    -11.208919     6A    -11.208425
       7A    -11.204535     8A     -1.362563     9A     -1.084254
      10A     -1.031577    11A     -0.954493    12A     -0.876747
      13A     -0.805901    14A     -0.776563    15A     -0.706489
      16A     -0.638537    17A     -0.632749    18A     -0.602950
      19A     -0.585614    20A     -0.571199    21A     -0.535435
      22A     -0.524841    23A     -0.508202    24A     -0.485654
      25A     -0.481636    26A     -0.460075    27A     -0.454761
      28A     -0.449209    29A     -0.425736

  @DF-RHF Final Energy:  -310.32945580441236

   => Energetics <=

    Nuclear Repulsion Energy =            314.9271299015866248
    One-Electron Energy =               -1044.8965162490496823
    Two-Electron Energy =                 419.6399305430504114
    DFT Exchange-Correlation Energy =       0.0000000000000000
    Empirical Dispersion Energy =           0.0000000000000000
    PCM Polarization Energy =               0.0000000000000000
    EFP Energy =                            0.0000000000000000
    Total Energy =                       -310.3294558044127029
    Molecular point group: c1
  Basis Set: CC-PVTZ
  Basis Set:

  -Total Gradient:
     Atom            X                  Y                   Z
    ------   -----------------  -----------------  -----------------
       1       -0.000007325061    -0.000000557651     0.000006591695
       2       -0.002230588962    -0.001968875646    -0.001876686228
       3        0.002282756943     0.001669687515     0.002514450936
       4        0.002630175605     0.004060572738    -0.001133630160
       5       -0.000002981730    -0.000002584943     0.000004012058
       6       -0.000001698801    -0.000001280874     0.000007615055
       7       -0.000036015129    -0.000011327576     0.000009061071
       8       -0.002643658988    -0.003723186198     0.000472213153
       9        0.000002019769    -0.000019112310     0.000002850286
      10        0.000001636511     0.000002194079    -0.000006720529
      11       -0.000005832515    -0.000007481322     0.000001609183
      12       -0.000003089002     0.000005053550    -0.000002528419
      13        0.000009003514    -0.000003707887     0.000000103558
      14       -0.000000810880    -0.000001185556     0.000002187551
      15        0.000006067348     0.000005475221     0.000000616306
      16       -0.000001710556    -0.000003125449    -0.000002762198
      17        0.000005430577     0.000001891524     0.000000911361
      18       -0.000003817788    -0.000000437331    -0.000000190781
      19       -0.000001992538     0.000001453033    -0.000000572014
      20        0.000001505018    -0.000000705009     0.000001754699
      21        0.000000926664    -0.000002759909    -0.000000886581

  **** Optimization is complete! (in 6 steps) ****
    Final optimized geometry and variables:
    Molecular point group: c1

    Geometry (in Angstrom), charge = 0, multiplicity = 1:

    H           -3.620133857868     0.554501007737     1.522930768504
    O           -2.960025704290    -0.018042271129     1.178043901110
    C           -2.435880885104     0.512815917390    -0.013868789881
    C           -1.275356050931    -0.365179270702    -0.471549959280
    H           -3.210833177423     0.530586016668    -0.775265588650
    H           -2.103354822030     1.536787530787     0.136869236578
    C            0.095574719789     0.125363535534    -0.017347826858
    H           -1.308716790721    -0.479992336203    -1.550686480553
    H           -1.457443470936    -1.356856725005    -0.070916647788
    C            1.225327095490    -0.825644428728    -0.405536704526
    H            0.276405628922     1.109381927157    -0.438978335420
    H            0.083774881917     0.248603529456     1.062561932945
    C            2.612074138740    -0.413621153558     0.091579556925
    H            1.250779893084    -0.931122228149    -1.488138307237
    H            0.997400083042    -1.811841820462    -0.011093967258
    C            3.159605455278     0.867933647532    -0.532157555488
    H            3.304975627994    -1.223509324791    -0.115191624524
    H            2.586947597854    -0.305986739553     1.172714284459
    H            3.188778717731     0.792490184701    -1.614591581976
    H            2.558699167892     1.732502431277    -0.277184621339
    H            4.169387121661     1.061619813731    -0.188542358762

  Mulliken Charges: (a.u.)
   Center  Symbol    Alpha    Beta     Spin     Total
       1     H     0.39526  0.39526  0.00000  0.20949
       2     O     4.19967  4.19967  0.00000 -0.39934
       3     C     2.96745  2.96745  0.00000  0.06511
       4     C     3.09109  3.09109  0.00000 -0.18219
       5     H     0.46911  0.46911  0.00000  0.06178
       6     H     0.47602  0.47602  0.00000  0.04795
       7     C     3.09511  3.09511  0.00000 -0.19022
       8     H     0.45171  0.45171  0.00000  0.09658
       9     H     0.44865  0.44865  0.00000  0.10270
      10     C     3.09621  3.09621  0.00000 -0.19242
      11     H     0.45527  0.45527  0.00000  0.08946
      12     H     0.44955  0.44955  0.00000  0.10090
      13     C     3.08986  3.08986  0.00000 -0.17972
      14     H     0.45516  0.45516  0.00000  0.08967
      15     H     0.44800  0.44800  0.00000  0.10399
      16     C     3.15248  3.15248  0.00000 -0.30497
      17     H     0.44886  0.44886  0.00000  0.10228
      18     H     0.45436  0.45436  0.00000  0.09127
      19     H     0.45532  0.45532  0.00000  0.08936
      20     H     0.45423  0.45423  0.00000  0.09155
      21     H     0.44663  0.44663  0.00000  0.10674

   Total alpha = 29.00000, Total beta = 29.00000, Total charge = -0.00000
