                              Psi4 1.0.54 Driver

  ==> Input File <==

--------------------------------------------------------------------------
set {
	reference rhf
	basis cc-pvtz
}

set_num_threads( 4 )
memory 2 gb

molecule MOL {
0 1

H	 -3.852163	 -1.989470	 -0.712089
C	 -2.783371	 -1.894370	 -0.740647
C	 -2.051392	 -2.611470	 -1.669956
C	 -2.142470	 -1.055618	 0.151388
H	 -2.549532	 -3.262307	 -2.362032
C	 -0.678027	 -2.488742	 -1.706041
H	 -2.711031	 -0.499937	 0.871686
C	 -0.767365	 -0.931660	 0.116510
H	 -0.095925	 -3.036511	 -2.418898
C	 -0.030948	 -1.648559	 -0.813144
H	 -0.267932	 -0.282966	 0.805925
C	 1.454652	 -1.550814	 -0.892891
O	 1.968286	 -0.725612	 -0.000027
O	 2.113856	 -2.149691	 -1.675180
C	 3.373556	 -0.568203	 0.000011
H	 3.695416	 -0.031588	 -0.879663
H	 3.782700	 -1.565294	 -0.000152
H	 3.695405	 -0.031851	 0.879862

	symmetry c1
}
set optking {
	frozen_dihedral = ("
		12 13 15 16
	")
}

ee,wfn = optimize('scf', return_wfn=True)
oeprop( wfn, 'DIPOLE', 'QUADRUPOLE', 'MULLIKEN_CHARGES')
f=open( 'psi4out.xyz', 'w' )
f.write( "18  " )
f.write( str(ee) + "\n" )
f.write( MOL.save_string_xyz() )
f.close()
--------------------------------------------------------------------------

    Molecular point group: c1
  Charge       = 0
  Multiplicity = 1
  Basis Set: CC-PVTZ
  Basis Set:
  @DF-RHF Final Energy:  -457.50842130772821
    Total Energy =                       -457.5084213077282129
    Molecular point group: c1
  Basis Set: CC-PVTZ
  Basis Set:
  Basis Set: CC-PVTZ
  Basis Set:
  @DF-RHF Final Energy:  -457.50964888847869
    Total Energy =                       -457.5096488884785231
  Basis Set: CC-PVTZ
  Basis Set:
  Basis Set: CC-PVTZ
  Basis Set:
  @DF-RHF Final Energy:  -457.51009372341019
    Total Energy =                       -457.5100937234095682
  Basis Set: CC-PVTZ
  Basis Set:
  Basis Set: CC-PVTZ
  Basis Set:
  @DF-RHF Final Energy:  -457.50985399116900
    Total Energy =                       -457.5098539911687112
  Basis Set: CC-PVTZ
  Basis Set:
  Basis Set: CC-PVTZ
  Basis Set:
  @DF-RHF Final Energy:  -457.51010087789558
    Total Energy =                       -457.5101008778956384
  Basis Set: CC-PVTZ
  Basis Set:
  Charge       = 0
  Multiplicity = 1
  Basis Set: CC-PVTZ
  Basis Set:

    Orbital Energies (a.u.)
    -----------------------

    Doubly Occupied:

       1A    -20.600956     2A    -20.534421     3A    -11.371825
       4A    -11.281177     5A    -11.244995     6A    -11.243517
       7A    -11.242718     8A    -11.240067     9A    -11.236082
      10A    -11.235320    11A     -1.476941    12A     -1.368511
      13A     -1.170821    14A     -1.051882    15A     -1.029088
      16A     -0.980627    17A     -0.863250    18A     -0.838493
      19A     -0.781199    20A     -0.745062    21A     -0.687901
      22A     -0.681779    23A     -0.676413    24A     -0.634114
      25A     -0.630089    26A     -0.601325    27A     -0.587470
      28A     -0.565535    29A     -0.531441    30A     -0.520331
      31A     -0.509579    32A     -0.502250    33A     -0.464105
      34A     -0.449447    35A     -0.350242    36A     -0.346282

  @DF-RHF Final Energy:  -457.51010151364261

   => Energetics <=

    Nuclear Repulsion Energy =            494.0179744486679851
    One-Electron Energy =               -1602.5056467893336958
    Two-Electron Energy =                 650.9775708270226460
    DFT Exchange-Correlation Energy =       0.0000000000000000
    Empirical Dispersion Energy =           0.0000000000000000
    PCM Polarization Energy =               0.0000000000000000
    EFP Energy =                            0.0000000000000000
    Total Energy =                       -457.5101015136431215
    Molecular point group: c1
  Basis Set: CC-PVTZ
  Basis Set:

  -Total Gradient:
     Atom            X                  Y                   Z
    ------   -----------------  -----------------  -----------------
       1        0.000005767324     0.000003482171     0.000003477974
       2        0.000011280355     0.000000630470    -0.000001546784
       3        0.000005439377     0.000006777940     0.000009091567
       4        0.000009600705     0.000004167646     0.000001714762
       5        0.000008312763     0.000001220451     0.000000690104
       6        0.000018791982     0.000001814187    -0.000001659561
       7        0.000000463013     0.000000529453     0.000000192443
       8       -0.000012915320     0.000002041828     0.000006078114
       9       -0.000000290420    -0.000000670718    -0.000000757003
      10        0.000011812030    -0.000007094813    -0.000005729177
      11       -0.000004943359    -0.000002279640    -0.000001755485
      12        0.000004257889    -0.000547599654     0.000496224307
      13       -0.000068344968     0.001012676685    -0.000570580507
      14        0.000037607477     0.000002436896     0.000010614500
      15        0.000107946707    -0.001225540264    -0.000388461962
      16       -0.000095828372     0.000755894564     0.000430022992
      17       -0.000015341845    -0.000006398181     0.000004644305
      18       -0.000023615341    -0.000002089018     0.000007739413

  **** Optimization is complete! (in 6 steps) ****
    Final optimized geometry and variables:
    Molecular point group: c1

    Geometry (in Angstrom), charge = 0, multiplicity = 1:

    H           -4.025496622585    -0.441942694746     0.014979256045
    C           -2.956664768811    -0.348123299809    -0.017152270954
    C           -2.228919659981    -1.063798344595    -0.951019659897
    C           -2.311428565050     0.487486716707     0.874629589678
    H           -2.730390534474    -1.712212620749    -1.643037958510
    C           -0.855583865849    -0.942711034406    -0.991824949048
    H           -2.876506231607     1.042167525533     1.598475396497
    C           -0.936179173922     0.609730858158     0.835094846707
    H           -0.276862811496    -1.489351265499    -1.708365070291
    C           -0.204188144591    -0.105720796719    -0.098997983498
    H           -0.433579859687     1.256148147164     1.524412767767
    C            1.281527762924    -0.010102660174    -0.184097876176
    O            1.798980255766     0.814492695768     0.706978601738
    O            1.936694176449    -0.609390040433    -0.969398906374
    C            3.205316125406     0.959177864481     0.716904258978
    H            3.535753456212     1.488721966771    -0.164867258503
    H            3.689320610598    -0.003767175152     0.759702186948
    H            3.436914503128     1.535257913358     1.598170165445

  Mulliken Charges: (a.u.)
   Center  Symbol    Alpha    Beta     Spin     Total
       1     H     0.42029  0.42029  0.00000  0.15943
       2     C     3.06974  3.06974  0.00000 -0.13948
       3     C     3.07550  3.07550  0.00000 -0.15101
       4     C     3.07493  3.07493  0.00000 -0.14986
       5     H     0.42038  0.42038  0.00000  0.15924
       6     C     3.07588  3.07588  0.00000 -0.15177
       7     H     0.42188  0.42188  0.00000  0.15623
       8     C     3.08212  3.08212  0.00000 -0.16424
       9     H     0.40665  0.40665  0.00000  0.18670
      10     C     3.01281  3.01281  0.00000 -0.02562
      11     H     0.41104  0.41104  0.00000  0.17793
      12     C     2.78181  2.78181  0.00000  0.43638
      13     O     4.14846  4.14846  0.00000 -0.29693
      14     O     4.21134  4.21134  0.00000 -0.42268
      15     C     3.03665  3.03665  0.00000 -0.07331
      16     H     0.45425  0.45425  0.00000  0.09151
      17     H     0.45060  0.45060  0.00000  0.09881
      18     H     0.44567  0.44567  0.00000  0.10866

   Total alpha = 36.00000, Total beta = 36.00000, Total charge = -0.00000

*** Psi4 exiting successfully. Buy a developer a beer!
