  ==> Input File <==

--------------------------------------------------------------------------
set {
	reference rhf
	basis 6-31G*
}

set_num_threads( 1 )
memory 2 gb

molecule MOL {
0 1

H	 1.244019	 -2.355286	 -3.278676
O	 2.138344	 -2.060374	 -3.369683
C	 2.155918	 -0.753947	 -3.886398
C	 1.714017	 0.298350	 -2.875397
H	 3.180304	 -0.568485	 -4.182896
H	 1.543084	 -0.691258	 -4.784887
C	 0.258506	 0.155111	 -2.423913
H	 2.371188	 0.243855	 -2.011382
H	 1.858916	 1.280289	 -3.322798
C	 -0.170165	 1.257507	 -1.451399
H	 0.124161	 -0.815361	 -1.954337
H	 -0.394809	 0.174620	 -3.296346
C	 -1.644565	 1.210352	 -1.033951
H	 0.456970	 1.214672	 -0.562742
H	 0.025918	 2.222536	 -1.913970
C	 -2.037799	 -0.007733	 -0.193645
H	 -1.867572	 2.110562	 -0.465001
H	 -2.271444	 1.252625	 -1.923375
C	 -3.489788	 0.042957	 0.286558
H	 -1.377218	 -0.076836	 0.669471
H	 -1.888773	 -0.920635	 -0.765225
C	 -4.216917	 1.317354	 -0.141063
H	 -4.025645	 -0.823308	 -0.095450
H	 -3.513059	 -0.038752	 1.371301
H	 -4.239342	 1.411634	 -1.223113
H	 -5.243387	 1.322503	 0.212445
H	 -3.726170	 2.201406	 0.256408

	symmetry c1
}
set optking {
	frozen_dihedral = ("
		14 10 7 4,
		14 10 13 16,
		10 7 4 8,
		8 4 3 2,
		10 13 16 20,
		4 3 2 1
	")
}

ee = energy('scf')
oeprop('DIPOLE', 'QUADRUPOLE', 'MULLIKEN_CHARGES')
f=open( 'psi4out.xyz', 'w' )
f.write( "27  " )
f.write( str(ee) + "\n" )
f.write( MOL.save_string_xyz() )
f.close()
--------------------------------------------------------------------------

    Molecular point group: c1

    Geometry (in Angstrom), charge = 0, multiplicity = 1:

       Center              X                  Y                   Z               Mass
    ------------   -----------------  -----------------  -----------------  -----------------
           H          1.803808106579    -2.481958286448    -1.572671093105     1.007825032070
           O          2.698133106579    -2.187046286448    -1.663678093105    15.994914619560
           C          2.715707106579    -0.880619286448    -2.180393093105    12.000000000000
           C          2.273806106579     0.171677713552    -1.169392093105    12.000000000000
           H          3.740093106579    -0.695157286448    -2.476891093105     1.007825032070
           H          2.102873106579    -0.817930286448    -3.078882093105     1.007825032070
           C          0.818295106579     0.028438713552    -0.717908093105    12.000000000000
           H          2.930977106579     0.117182713552    -0.305377093105     1.007825032070
           H          2.418705106579     1.153616713552    -1.616793093105     1.007825032070
           C          0.389624106579     1.130834713552     0.254605906895    12.000000000000
           H          0.683950106579    -0.942033286448    -0.248332093105     1.007825032070
           H          0.164980106579     0.047947713552    -1.590341093105     1.007825032070
           C         -1.084775893421     1.083679713552     0.672053906895    12.000000000000
           H          1.016759106579     1.087999713552     1.143262906895     1.007825032070
           H          0.585707106579     2.095863713552    -0.207965093105     1.007825032070
           C         -1.478009893421    -0.134405286448     1.512359906895    12.000000000000
           H         -1.307782893421     1.983889713552     1.241003906895     1.007825032070
           H         -1.711654893421     1.125952713552    -0.217370093105     1.007825032070
           C         -2.929998893421    -0.083715286448     1.992562906895    12.000000000000
           H         -0.817428893421    -0.203508286448     2.375475906895     1.007825032070
           H         -1.328983893421    -1.047307286448     0.940779906895     1.007825032070
           C         -3.657127893421     1.190681713552     1.564941906895    12.000000000000
           H         -3.465855893421    -0.949980286448     1.610554906895     1.007825032070
           H         -2.953269893421    -0.165424286448     3.077305906895     1.007825032070
           H         -3.679552893421     1.284961713552     0.482891906895     1.007825032070
           H         -4.683597893421     1.195830713552     1.918449906895     1.007825032070
           H         -3.166380893421     2.074733713552     1.962412906895     1.007825032070

  Charge       = 0
  Multiplicity = 1
  Basis Set: 6-31G*
  Basis Set:

    Orbital Energies (a.u.)
    -----------------------

    Doubly Occupied:

       1A    -20.552009     2A    -11.266712     3A    -11.219083
       4A    -11.215960     5A    -11.214717     6A    -11.214584
       7A    -11.213768     8A    -11.212708     9A    -11.207516
      10A     -1.358746    11A     -1.096916    12A     -1.062676
      13A     -1.006447    14A     -0.942872    15A     -0.897718
      16A     -0.833280    17A     -0.797603    18A     -0.759309
      19A     -0.693249    20A     -0.652379    21A     -0.640105
      22A     -0.616165    23A     -0.607762    24A     -0.586859
      25A     -0.574153    26A     -0.557186    27A     -0.537140
      28A     -0.523435    29A     -0.515625    30A     -0.497966
      31A     -0.483942    32A     -0.476377    33A     -0.469533
      34A     -0.449590    35A     -0.444451    36A     -0.438710
      37A     -0.422572

  @DF-RHF Final Energy:  -388.26659650258836

   => Energetics <=

    Nuclear Repulsion Energy =            465.6045654115379762
    One-Electron Energy =               -1449.2225151957327398
    Two-Electron Energy =                 595.3513532816061797
    DFT Exchange-Correlation Energy =       0.0000000000000000
    Empirical Dispersion Energy =           0.0000000000000000
    PCM Polarization Energy =               0.0000000000000000
    EFP Energy =                            0.0000000000000000
    Total Energy =                       -388.2665965025885271

  Mulliken Charges: (a.u.)
   Center  Symbol    Alpha    Beta     Spin     Total
       1     H     0.27994  0.27994  0.00000  0.44012
       2     O     4.37098  4.37098  0.00000 -0.74196
       3     C     2.99732  2.99732  0.00000  0.00535
       4     C     3.16088  3.16088  0.00000 -0.32176
       5     H     0.41454  0.41454  0.00000  0.17093
       6     H     0.43216  0.43216  0.00000  0.13568
       7     C     3.16337  3.16337  0.00000 -0.32674
       8     H     0.41505  0.41505  0.00000  0.16991
       9     H     0.42445  0.42445  0.00000  0.15109
      10     C     3.14896  3.14896  0.00000 -0.29793
      11     H     0.42303  0.42303  0.00000  0.15394
      12     H     0.42586  0.42586  0.00000  0.14827
      13     C     3.16002  3.16002  0.00000 -0.32005
      14     H     0.42225  0.42225  0.00000  0.15549
      15     H     0.42216  0.42216  0.00000  0.15568
      16     C     3.15653  3.15653  0.00000 -0.31305
      17     H     0.41886  0.41886  0.00000  0.16229
      18     H     0.42265  0.42265  0.00000  0.15470
      19     C     3.15473  3.15473  0.00000 -0.30947
      20     H     0.42086  0.42086  0.00000  0.15828
      21     H     0.42093  0.42093  0.00000  0.15813
      22     C     3.24583  3.24583  0.00000 -0.49166
      23     H     0.42061  0.42061  0.00000  0.15878
      24     H     0.41977  0.41977  0.00000  0.16045
      25     H     0.42024  0.42024  0.00000  0.15953
      26     H     0.41791  0.41791  0.00000  0.16417
      27     H     0.42010  0.42010  0.00000  0.15981

   Total alpha = 37.00000, Total beta = 37.00000, Total charge =  0.00000
