                              Psi4 1.0.54 Driver

  ==> Input File <==

--------------------------------------------------------------------------
set {
	reference rhf
	basis cc-pvtz
}

set_num_threads( 4 )
memory 2 gb

molecule MOL {
0 1

H	 2.744366	 0.058223	 0.323104
N	 1.770036	 0.266942	 0.328286
C	 1.074456	 -0.559578	 1.294140
C	 1.208252	 0.121946	 -0.999576
H	 1.507606	 -0.399967	 2.274066
H	 1.152725	 -1.623292	 1.061750
C	 -0.393889	 -0.175750	 1.320894
H	 1.738355	 0.775407	 -1.681729
H	 1.294975	 -0.898709	 -1.376884
C	 -0.260268	 0.504882	 -0.969816
H	 -0.487730	 0.844308	 1.704646
H	 -0.926745	 -0.831784	 1.998982
N	 -0.976577	 -0.298712	 -0.000000
H	 -0.696507	 0.340988	 -1.948056
H	 -0.344903	 1.571830	 -0.743874
C	 -2.391156	 -0.021003	 -0.000000
H	 -2.853954	 -0.458728	 -0.875714
H	 -2.853954	 -0.458728	 0.875714
H	 -2.614037	 1.049773	 -0.000000

	symmetry c1
}
set optking {
	frozen_dihedral = ("
		7 13 16 19
	")
}

ee,wfn = optimize('scf', return_wfn=True)
oeprop( wfn, 'DIPOLE', 'QUADRUPOLE', 'MULLIKEN_CHARGES')
f=open( 'psi4out.xyz', 'w' )
f.write( "19  " )
f.write( str(ee) + "\n" )
f.write( MOL.save_string_xyz() )
f.close()
--------------------------------------------------------------------------

    Molecular point group: c1
  Charge       = 0
  Multiplicity = 1
  Basis Set: CC-PVTZ
  Basis Set:
  @DF-RHF Final Energy:  -305.30790913939802
    Total Energy =                       -305.3079091393981344
    Molecular point group: c1
  Basis Set: CC-PVTZ
  Basis Set:
  Basis Set: CC-PVTZ
  Basis Set:
  @DF-RHF Final Energy:  -305.30807062303080
    Total Energy =                       -305.3080706230304031
  Basis Set: CC-PVTZ
  Basis Set:
  Basis Set: CC-PVTZ
  Basis Set:
  @DF-RHF Final Energy:  -305.30808944605826
    Total Energy =                       -305.3080894460581476
  Basis Set: CC-PVTZ
  Basis Set:
  Charge       = 0
  Multiplicity = 1
  Basis Set: CC-PVTZ
  Basis Set:

    Orbital Energies (a.u.)
    -----------------------

    Doubly Occupied:

       1A    -15.535139     2A    -15.531222     3A    -11.237224
       4A    -11.237133     5A    -11.235923     6A    -11.235888
       7A    -11.233211     8A     -1.248801     9A     -1.187284
      10A     -1.024263    11A     -0.965830    12A     -0.862172
      13A     -0.858305    14A     -0.756746    15A     -0.692641
      16A     -0.635092    17A     -0.627510    18A     -0.608524
      19A     -0.605353    20A     -0.581960    21A     -0.544326
      22A     -0.529309    23A     -0.512951    24A     -0.490187
      25A     -0.468862    26A     -0.458470    27A     -0.366066
      28A     -0.344615

  @DF-RHF Final Energy:  -305.30809036958374

   => Energetics <=

    Nuclear Repulsion Energy =            340.1726364208624318
    One-Electron Energy =               -1087.7314388053182483
    Two-Electron Energy =                 442.2507120148719650
    DFT Exchange-Correlation Energy =       0.0000000000000000
    Empirical Dispersion Energy =           0.0000000000000000
    PCM Polarization Energy =               0.0000000000000000
    EFP Energy =                            0.0000000000000000
    Total Energy =                       -305.3080903695838515
    Molecular point group: c1
  Basis Set: CC-PVTZ
  Basis Set:

  -Total Gradient:
     Atom            X                  Y                   Z
    ------   -----------------  -----------------  -----------------
       1       -0.000003133563    -0.000007196509    -0.000001621871
       2       -0.000011371547     0.000010390473    -0.000000603208
       3        0.000004253219     0.000029173837     0.000014918376
       4       -0.000018096723    -0.000020492595    -0.000012500349
       5        0.000034883031    -0.000003760841     0.000016277255
       6       -0.000024129086     0.000020454006     0.000001482309
       7       -0.000432951209    -0.002497131396     0.000453121410
       8        0.000011139073     0.000002382876    -0.000002380698
       9        0.000004459860     0.000000820521    -0.000001337947
      10        0.000025664920     0.000066742276    -0.000018692296
      11        0.000013618468    -0.000035057374    -0.000028139451
      12       -0.000010946832    -0.000000887718    -0.000009975938
      13        0.000614958746     0.003422806375    -0.001561692369
      14        0.000004398799    -0.000008433807     0.000012382678
      15       -0.000005338564    -0.000012020756    -0.000003462904
      16       -0.000299026350    -0.000959251259     0.004567811229
      17       -0.000000315078    -0.000003111714    -0.000018642496
      18        0.000043012626    -0.000018375024    -0.000010891524
      19        0.000048920211     0.000012948630    -0.003396052206

  **** Optimization is complete! (in 4 steps) ****
    Final optimized geometry and variables:
    Molecular point group: c1

    Geometry (in Angstrom), charge = 0, multiplicity = 1:

    H            2.749177164205     0.078748120731     0.166140834136
    N            1.774595203643     0.286416195530     0.175641589257
    C            1.086109346912    -0.534199219867     1.151517820179
    C            1.205173225045     0.131752675090    -1.147772138301
    H            1.530869303291    -0.374244289866     2.126285840860
    H            1.157689202144    -1.598817238674     0.920432309324
    C           -0.381209760772    -0.146151158566     1.193755620974
    H            1.733357024754     0.777465376911    -1.838865423838
    H            1.286738031660    -0.892593025229    -1.516383026645
    C           -0.261858032485     0.519910205677    -1.111462210843
    H           -0.466668498727     0.871104690136     1.587791284646
    H           -0.908989466231    -0.806397686746     1.871078619506
    N           -0.971848002786    -0.261903169430    -0.123103740306
    H           -0.708633139027     0.341500299826    -2.082917883006
    H           -0.341495523221     1.591033857750    -0.903453386473
    C           -2.391852700536    -0.010926398449    -0.137181475346
    H           -2.831317674520    -0.430906008781    -1.035326726905
    H           -2.864597293946    -0.480575803954     0.714742515388
    H           -2.635410578007     1.054765011668    -0.130560635788

  Mulliken Charges: (a.u.)
   Center  Symbol    Alpha    Beta     Spin     Total
       1     H     0.43993  0.43993  0.00000  0.12013
       2     N     3.64283  3.64283  0.00000 -0.28565
       3     C     3.04144  3.04144  0.00000 -0.08289
       4     C     3.04065  3.04065  0.00000 -0.08130
       5     H     0.45251  0.45251  0.00000  0.09499
       6     H     0.46571  0.46571  0.00000  0.06857
       7     C     3.03232  3.03232  0.00000 -0.06465
       8     H     0.45249  0.45249  0.00000  0.09502
       9     H     0.46558  0.46558  0.00000  0.06883
      10     C     3.03440  3.03440  0.00000 -0.06880
      11     H     0.46995  0.46995  0.00000  0.06010
      12     H     0.45416  0.45416  0.00000  0.09168
      13     N     3.61439  3.61439  0.00000 -0.22878
      14     H     0.45452  0.45452  0.00000  0.09095
      15     H     0.46809  0.46809  0.00000  0.06382
      16     C     3.09638  3.09638  0.00000 -0.19275
      17     H     0.45181  0.45181  0.00000  0.09638
      18     H     0.45336  0.45336  0.00000  0.09327
      19     H     0.46946  0.46946  0.00000  0.06109

   Total alpha = 28.00000, Total beta = 28.00000, Total charge = -0.00000

*** Psi4 exiting successfully. Buy a developer a beer!
