  ==> Input File <==

--------------------------------------------------------------------------
set {
	reference rhf
	basis cc-pvtz
}

set_num_threads( 4 )
memory 2 gb

molecule MOL {
0 1

O	 -1.278239	 1.034789	 -0.784693
C	 -1.204115	 0.062668	 -0.112312
C	 -2.386398	 -0.667698	 0.460323
O	 -0.068058	 -0.518372	 0.226882
H	 -2.382952	 -1.693172	 0.114333
H	 -3.296656	 -0.175702	 0.158400
H	 -2.312537	 -0.685191	 1.540100
C	 1.169086	 0.037484	 -0.230612
C	 1.317729	 -0.391463	 -1.676649
C	 2.307574	 -0.442886	 0.651260
H	 1.092476	 1.112376	 -0.168743
H	 0.485073	 -0.034520	 -2.269123
H	 2.232398	 0.014352	 -2.091867
H	 1.355209	 -1.471458	 -1.755016
H	 3.246745	 -0.032683	 0.298853
H	 2.162221	 -0.123698	 1.673825
H	 2.376716	 -1.524506	 0.626764

	symmetry c1
}
set optking {
	frozen_dihedral = ("
		11 8 4 2
	")
}

ee = optimize('scf')
oeprop('DIPOLE', 'QUADRUPOLE', 'MULLIKEN_CHARGES')
f=open( 'psi4out.xyz', 'w' )
f.write( "17  " )
f.write( str(ee) + "\n" )
f.write( MOL.save_string_xyz() )
f.close()
--------------------------------------------------------------------------

    Molecular point group: c1
  Charge       = 0
  Multiplicity = 1
  Basis Set: CC-PVTZ
  Basis Set:
  @DF-RHF Final Energy:  -345.04160486300293
    Total Energy =                       -345.0416048630032719
    Molecular point group: c1
  Basis Set: CC-PVTZ
  Basis Set:
  Basis Set: CC-PVTZ
  Basis Set:
  @DF-RHF Final Energy:  -345.04305572939171
    Total Energy =                       -345.0430557293916536
  Basis Set: CC-PVTZ
  Basis Set:
  Basis Set: CC-PVTZ
  Basis Set:
  @DF-RHF Final Energy:  -345.04331562717198
    Total Energy =                       -345.0433156271716939
  Basis Set: CC-PVTZ
  Basis Set:
  Basis Set: CC-PVTZ
  Basis Set:
  @DF-RHF Final Energy:  -345.04301575712810
    Total Energy =                       -345.0430157571280461
  Basis Set: CC-PVTZ
  Basis Set:
  Basis Set: CC-PVTZ
  Basis Set:
  @DF-RHF Final Energy:  -345.04333325175185
    Total Energy =                       -345.0433332517520171
  Basis Set: CC-PVTZ
  Basis Set:
  Charge       = 0
  Multiplicity = 1
  Basis Set: CC-PVTZ
  Basis Set:

    Orbital Energies (a.u.)
    -----------------------

    Doubly Occupied:

       1A    -20.591386     2A    -20.531488     3A    -11.366678
       4A    -11.288530     5A    -11.230542     6A    -11.217613
       7A    -11.213586     8A     -1.468573     9A     -1.364477
      10A     -1.079645    11A     -1.005637    12A     -0.948563
      13A     -0.850303    14A     -0.766275    15A     -0.694697
      16A     -0.673966    17A     -0.661900    18A     -0.614536
      19A     -0.586941    20A     -0.578995    21A     -0.562926
      22A     -0.550609    23A     -0.538654    24A     -0.521442
      25A     -0.503980    26A     -0.483255    27A     -0.450864
      28A     -0.438780

  @DF-RHF Final Energy:  -345.04333408467846

   => Energetics <=

    Nuclear Repulsion Energy =            323.8434592960842338
    One-Electron Energy =               -1112.2039082511241759
    Two-Electron Energy =                 443.3171148703614222
    DFT Exchange-Correlation Energy =       0.0000000000000000
    Empirical Dispersion Energy =           0.0000000000000000
    PCM Polarization Energy =               0.0000000000000000
    EFP Energy =                            0.0000000000000000
    Total Energy =                       -345.0433340846785200
    Molecular point group: c1
  Basis Set: CC-PVTZ
  Basis Set:

  -Total Gradient:
     Atom            X                  Y                   Z
    ------   -----------------  -----------------  -----------------
       1        0.000014117928     0.000022443126    -0.000016059595
       2       -0.000027967856    -0.000424361187    -0.000549597779
       3        0.000010047651    -0.000027315260    -0.000046603125
       4        0.000086927240     0.000554703002     0.001051839970
       5       -0.000001222987    -0.000006104910     0.000020968124
       6        0.000007247926     0.000004024573    -0.000001570902
       7       -0.000000072091     0.000017407600     0.000006709357
       8       -0.000330484780    -0.000137908631    -0.001215027875
       9       -0.000068334422     0.000011439811    -0.000003056227
      10       -0.000029102273     0.000010912781    -0.000022787557
      11        0.000304195029    -0.000016111854     0.000741440762
      12        0.000005404791    -0.000006913575     0.000010245287
      13        0.000023262293     0.000001239058     0.000016854845
      14        0.000004571446     0.000005089919     0.000000729306
      15        0.000002054570    -0.000003097092     0.000003301757
      16       -0.000000744793     0.000001005945     0.000002119273
      17        0.000000100324    -0.000006453304     0.000000494378

  **** Optimization is complete! (in 6 steps) ****
    Final optimized geometry and variables:
    Molecular point group: c1

    Geometry (in Angstrom), charge = 0, multiplicity = 1:

    O           -1.279906329696     1.170155003483    -0.541458347837
    C           -1.186598035437     0.192666221739     0.120705878518
    C           -2.351803546955    -0.541833744336     0.722297093056
    O           -0.040623096194    -0.385714956480     0.429318993740
    H           -2.360141205254    -1.563706478737     0.365658340786
    H           -3.270127459413    -0.046161583673     0.452602324166
    H           -2.245555608560    -0.570735405502     1.799050945974
    C            1.181934803553     0.166750933865    -0.069832085684
    C            1.401500624809    -0.259762109616    -1.510118731784
    C            2.272905977635    -0.321452923937     0.862579890270
    H            1.106178079619     1.242486913850    -0.013286216247
    H            0.605536088078     0.100682476290    -2.145691014752
    H            2.337413439504     0.146734050714    -1.875254310730
    H            1.448490547174    -1.340547385622    -1.581939944403
    H            3.230626550832     0.081612541228     0.556117622559
    H            2.077462351524    -0.004539547820     1.878977006649
    H            2.335393794887    -1.403027476780     0.847618943476

  Mulliken Charges: (a.u.)
   Center  Symbol    Alpha    Beta     Spin     Total
       1     O     4.19937  4.19937  0.00000 -0.39875
       2     C     2.80614  2.80614  0.00000  0.38771
       3     C     3.13889  3.13889  0.00000 -0.27777
       4     O     4.16343  4.16343  0.00000 -0.32687
       5     H     0.44625  0.44625  0.00000  0.10750
       6     H     0.43842  0.43842  0.00000  0.12315
       7     H     0.44584  0.44584  0.00000  0.10831
       8     C     2.93021  2.93021  0.00000  0.13958
       9     C     3.15553  3.15553  0.00000 -0.31106
      10     C     3.13824  3.13824  0.00000 -0.27647
      11     H     0.44321  0.44321  0.00000  0.11359
      12     H     0.43722  0.43722  0.00000  0.12557
      13     H     0.44983  0.44983  0.00000  0.10034
      14     H     0.45371  0.45371  0.00000  0.09258
      15     H     0.45427  0.45427  0.00000  0.09146
      16     H     0.44693  0.44693  0.00000  0.10615
      17     H     0.45251  0.45251  0.00000  0.09499

   Total alpha = 28.00000, Total beta = 28.00000, Total charge = -0.00000
