  ==> Input File <==

--------------------------------------------------------------------------
set {
	reference rhf
	basis cc-pvtz
}

set_num_threads( 4 )
memory 2 gb

molecule MOL {
0 1

O	 -0.694481	 1.313155	 -0.204815
C	 -0.862519	 0.151932	 -0.046791
C	 -2.171428	 -0.477048	 0.339095
O	 0.085519	 -0.757083	 -0.192238
H	 -2.467997	 -1.191667	 -0.417688
H	 -2.923379	 0.287970	 0.444097
H	 -2.053854	 -1.015120	 1.270901
C	 1.392036	 -0.330828	 -0.560749
C	 2.463453	 -1.153479	 0.124239
H	 1.501424	 0.717811	 -0.332265
H	 1.431188	 -0.463413	 -1.631561
H	 3.440408	 -0.845325	 -0.230798
H	 2.431905	 -1.013701	 1.196083
H	 2.337346	 -2.206438	 -0.097049

	symmetry c1
}
set optking {
	frozen_dihedral = ("
		10 8 4 2
	")
}

ee = optimize('scf')
oeprop('DIPOLE', 'QUADRUPOLE', 'MULLIKEN_CHARGES')
f=open( 'psi4out.xyz', 'w' )
f.write( "14  " )
f.write( str(ee) + "\n" )
f.write( MOL.save_string_xyz() )
f.close()
--------------------------------------------------------------------------

    Molecular point group: c1
  Charge       = 0
  Multiplicity = 1
  Basis Set: CC-PVTZ
  Basis Set:
  @DF-RHF Final Energy:  -305.98971266093565
    Total Energy =                       -305.9897126609355951
    Molecular point group: c1
  Basis Set: CC-PVTZ
  Basis Set:
  Basis Set: CC-PVTZ
  Basis Set:
  @DF-RHF Final Energy:  -305.99042771525114
    Total Energy =                       -305.9904277152512577
  Basis Set: CC-PVTZ
  Basis Set:
  Basis Set: CC-PVTZ
  Basis Set:
  @DF-RHF Final Energy:  -305.99043498501976
    Total Energy =                       -305.9904349850196468
  Basis Set: CC-PVTZ
  Basis Set:
  Basis Set: CC-PVTZ
  Basis Set:
  @DF-RHF Final Energy:  -305.99051966356194
    Total Energy =                       -305.9905196635620541
  Basis Set: CC-PVTZ
  Basis Set:
  Basis Set: CC-PVTZ
  Basis Set:
  @DF-RHF Final Energy:  -305.99058646196693
    Total Energy =                       -305.9905864619669273
  Basis Set: CC-PVTZ
  Basis Set:
  Basis Set: CC-PVTZ
  Basis Set:
  @DF-RHF Final Energy:  -305.99059360196833
    Total Energy =                       -305.9905936019683281
  Basis Set: CC-PVTZ
  Basis Set:
  Charge       = 0
  Multiplicity = 1
  Basis Set: CC-PVTZ
  Basis Set:

    Orbital Energies (a.u.)
    -----------------------

    Doubly Occupied:

       1A    -20.594178     2A    -20.532623     3A    -11.368080
       4A    -11.282372     5A    -11.231329     6A    -11.221090
       7A     -1.469592     8A     -1.366114     9A     -1.058723
      10A     -1.000671    11A     -0.875351    12A     -0.779477
      13A     -0.697584    14A     -0.686897    15A     -0.665926
      16A     -0.612554    17A     -0.582243    18A     -0.564140
      19A     -0.560555    20A     -0.537459    21A     -0.515767
      22A     -0.499766    23A     -0.454342    24A     -0.441975

  @DF-RHF Final Energy:  -305.99059422468156

   => Energetics <=

    Nuclear Repulsion Energy =            246.1025459422671702
    One-Electron Energy =                -904.9886652368700197
    Two-Electron Energy =                 352.8955250699214048
    DFT Exchange-Correlation Energy =       0.0000000000000000
    Empirical Dispersion Energy =           0.0000000000000000
    PCM Polarization Energy =               0.0000000000000000
    EFP Energy =                            0.0000000000000000
    Total Energy =                       -305.9905942246814448
    Molecular point group: c1
  Basis Set: CC-PVTZ
  Basis Set:

  -Total Gradient:
     Atom            X                  Y                   Z
    ------   -----------------  -----------------  -----------------
       1       -0.000071655128     0.000048558845     0.000039829877
       2        0.000278258395     0.000101935255     0.001107067560
       3        0.000014844857     0.000016157148     0.000013379048
       4       -0.000544203361    -0.000137043616    -0.002028092825
       5        0.000002702226    -0.000000298699    -0.000002423725
       6        0.000000945073     0.000000341807    -0.000000321481
       7        0.000001550696     0.000002156175    -0.000000093939
       8        0.000758749618    -0.000270045882     0.002183296500
       9       -0.000024153005    -0.000044773530    -0.000029507869
      10       -0.000437918911     0.000312151654    -0.001291804073
      11       -0.000005538708    -0.000019666921     0.000013826919
      12        0.000009086829    -0.000001706565    -0.000005047179
      13       -0.000006087027     0.000009559052    -0.000013121863
      14        0.000023418441    -0.000017324721     0.000013013051

  **** Optimization is complete! (in 7 steps) ****
    Final optimized geometry and variables:
    Molecular point group: c1

    Geometry (in Angstrom), charge = 0, multiplicity = 1:

    O           -0.764266710856     1.527544770903    -0.133780932968
    C           -0.900956550884     0.364820956124     0.038811516730
    C           -2.186254335202    -0.288479187035     0.462425647704
    O            0.060423057597    -0.528913377942    -0.119049676206
    H           -2.486606167503    -1.013799391697    -0.282668145743
    H           -2.951197909762     0.461517866474     0.580705905739
    H           -2.034711424772    -0.818138327853     1.394029632782
    C            1.365033825666    -0.100301955038    -0.490525692390
    C            2.377460965834    -0.958325877975     0.233282728493
    H            1.478440671333     0.945665168273    -0.259584613855
    H            1.455249284842    -0.216753910710    -1.563093152022
    H            3.379119688635    -0.677036203792    -0.070455529380
    H            2.295983813353    -0.828312206230     1.305317121961
    H            2.231878386895    -2.006236008169     0.003156877163

  Mulliken Charges: (a.u.)
   Center  Symbol    Alpha    Beta     Spin     Total
       1     O     4.19800  4.19800  0.00000 -0.39601
       2     C     2.80237  2.80237  0.00000  0.39526
       3     C     3.13993  3.13993  0.00000 -0.27985
       4     O     4.15557  4.15557  0.00000 -0.31115
       5     H     0.44565  0.44565  0.00000  0.10871
       6     H     0.43816  0.43816  0.00000  0.12368
       7     H     0.44630  0.44630  0.00000  0.10741
       8     C     2.98449  2.98449  0.00000  0.03103
       9     C     3.13276  3.13276  0.00000 -0.26552
      10     H     0.44330  0.44330  0.00000  0.11340
      11     H     0.45576  0.45576  0.00000  0.08847
      12     H     0.45444  0.45444  0.00000  0.09112
      13     H     0.45196  0.45196  0.00000  0.09607
      14     H     0.45131  0.45131  0.00000  0.09738

   Total alpha = 24.00000, Total beta = 24.00000, Total charge =  0.00000
