  ==> Input File <==

--------------------------------------------------------------------------
set {
	reference rhf
	basis 6-31G*
}

set_num_threads( 4 )
memory 2 gb

molecule MOL {
0 1

O	 -0.682937	 1.318834	 -0.186099
C	 -0.860635	 0.152188	 -0.042321
C	 -2.173363	 -0.477127	 0.338347
O	 0.083258	 -0.765189	 -0.202595
H	 -2.477673	 -1.180929	 -0.427595
H	 -2.923125	 0.290956	 0.455536
H	 -2.058825	 -1.029004	 1.264191
C	 0.723623	 -1.289369	 0.958424
C	 -0.082776	 -2.415621	 1.578041
H	 0.887803	 -0.489740	 1.664666
H	 1.678989	 -1.647376	 0.602606
H	 0.464853	 -2.843551	 2.412133
H	 -1.033732	 -2.051906	 1.946499
H	 -0.263802	 -3.199909	 0.851036

	symmetry c1
}
set optking {
	frozen_dihedral = ("
		8 4 2 1
	")
}

ee = optimize('scf')
oeprop('DIPOLE', 'QUADRUPOLE', 'MULLIKEN_CHARGES')
f=open( 'psi4out.xyz', 'w' )
f.write( "14  " )
f.write( str(ee) + "\n" )
f.write( MOL.save_string_xyz() )
f.close()
--------------------------------------------------------------------------

    Molecular point group: c1
  Charge       = 0
  Multiplicity = 1
  Basis Set: 6-31G*
  Basis Set:
  @DF-RHF Final Energy:  -305.84202758222727
    Total Energy =                       -305.8420275822271606
    Molecular point group: c1
  Basis Set: 6-31G*
  Basis Set:
  Basis Set: 6-31G*
  Basis Set:
  @DF-RHF Final Energy:  -305.85045315686489
    Total Energy =                       -305.8504531568646598
  Basis Set: 6-31G*
  Basis Set:
  Basis Set: 6-31G*
  Basis Set:
  @DF-RHF Final Energy:  -305.85183703172981
    Total Energy =                       -305.8518370317299286
  Basis Set: 6-31G*
  Basis Set:
  Basis Set: 6-31G*
  Basis Set:
  @DF-RHF Final Energy:  -305.85217564767663
    Total Energy =                       -305.8521756476765745
  Basis Set: 6-31G*
  Basis Set:
  @DF-RHF Final Energy:  -305.85225285581055
    Total Energy =                       -305.8522528558106615
  @DF-RHF Final Energy:  -305.85242552599971
    Total Energy =                       -305.8524255259997062
  @DF-RHF Final Energy:  -305.85258495392168
    Total Energy =                       -305.8525849539216210
  @DF-RHF Final Energy:  -305.85295536687397
    Total Energy =                       -305.8529553668738572
  @DF-RHF Final Energy:  -305.85327982411479
    Total Energy =                       -305.8532798241147361
  @DF-RHF Final Energy:  -305.85349685553655
    Total Energy =                       -305.8534968555367755
  @DF-RHF Final Energy:  -305.85377282248015
    Total Energy =                       -305.8537728224803232
  @DF-RHF Final Energy:  -305.85402455798624
    Total Energy =                       -305.8540245579860084
  @DF-RHF Final Energy:  -305.85472291373060
    Total Energy =                       -305.8547229137305976
  @DF-RHF Final Energy:  -305.85534986965257
    Total Energy =                       -305.8553498696526276
  @DF-RHF Final Energy:  -305.85559547176285
    Total Energy =                       -305.8555954717629675
  @DF-RHF Final Energy:  -305.85488069502162
    Total Energy =                       -305.8548806950215067
  @DF-RHF Final Energy:  -305.85576957999069
    Total Energy =                       -305.8557695799908061
  @DF-RHF Final Energy:  -305.85581003695114
    Total Energy =                       -305.8558100369509702
  Basis Set: 6-31G*
  Basis Set:
  @DF-RHF Final Energy:  -305.85583706667859
    Total Energy =                       -305.8558370666783048
  Basis Set: 6-31G*
  Basis Set:
  Basis Set: 6-31G*
  Basis Set:
  @DF-RHF Final Energy:  -305.85585562400217
    Total Energy =                       -305.8558556240022881
  Basis Set: 6-31G*
  Basis Set:
  Basis Set: 6-31G*
  Basis Set:
  @DF-RHF Final Energy:  -305.85586019872335
    Total Energy =                       -305.8558601987233487
  Basis Set: 6-31G*
  Basis Set:
  Charge       = 0
  Multiplicity = 1
  Basis Set: 6-31G*
  Basis Set:

    Orbital Energies (a.u.)
    -----------------------

    Doubly Occupied:

       1A    -20.584374     2A    -20.556139     3A    -11.377551
       4A    -11.297741     5A    -11.238201     6A    -11.225748
       7A     -1.458241     8A     -1.367630     9A     -1.050292
      10A     -1.009024    11A     -0.874875    12A     -0.782249
      13A     -0.697207    14A     -0.687952    15A     -0.647873
      16A     -0.631881    17A     -0.585063    18A     -0.574552
      19A     -0.555047    20A     -0.536152    21A     -0.522638
      22A     -0.488218    23A     -0.455066    24A     -0.438062

  @DF-RHF Final Energy:  -305.85586052118708

   => Energetics <=

    Nuclear Repulsion Energy =            244.6041738324376240
    One-Electron Energy =                -901.6365159596940657
    Two-Electron Energy =                 351.1764816060695580
    DFT Exchange-Correlation Energy =       0.0000000000000000
    Empirical Dispersion Energy =           0.0000000000000000
    PCM Polarization Energy =               0.0000000000000000
    EFP Energy =                            0.0000000000000000
    Total Energy =                       -305.8558605211869121
    Molecular point group: c1
  Basis Set: 6-31G*
  Basis Set:

  -Total Gradient:
     Atom            X                  Y                   Z
    ------   -----------------  -----------------  -----------------
       1       -0.000759745897    -0.000559019147    -0.000908127535
       2        0.000673999530     0.000740517720     0.001587006042
       3        0.000033373688    -0.000013682742    -0.000004308067
       4        0.000949988367    -0.000031833177    -0.001158390147
       5        0.000007358870    -0.000002547755     0.000000480405
       6       -0.000003883315    -0.000001053347     0.000000512280
       7       -0.000002769900    -0.000008999622    -0.000009808302
       8       -0.000877480881    -0.000150642820     0.000518996061
       9       -0.000012051781     0.000020375415    -0.000028878675
      10       -0.000012519985    -0.000000344116    -0.000003069059
      11        0.000002711194    -0.000003447209     0.000007961555
      12       -0.000007149868     0.000012932482    -0.000005252395
      13        0.000006645320     0.000006628320     0.000003226397
      14        0.000001524656    -0.000008884004    -0.000000348558

  **** Optimization is complete! (in 22 steps) ****
    Final optimized geometry and variables:
    Molecular point group: c1

    Geometry (in Angstrom), charge = 0, multiplicity = 1:

    O            0.148973603274     1.319443309338    -1.441202454168
    C           -0.416873792510     0.709634461583    -0.602912760195
    C           -1.699873430739     1.157350736696     0.048743382665
    O            0.009128122430    -0.511194989908    -0.208504213005
    H           -2.484419069939     0.450153112422    -0.198108206353
    H           -1.968412376551     2.141901573310    -0.304318764506
    H           -1.603472640745     1.169965862811     1.128545971770
    C            0.764184305055    -0.596554535181     0.989715152764
    C            1.176881334752    -2.041247170742     1.173370061280
    H            0.165700447645    -0.259231845503     1.830494290700
    H            1.632824978720     0.047468257082     0.908854849195
    H            1.762322747424    -2.149346437542     2.080712837953
    H            0.303664502808    -2.679018143426     1.246423257739
    H            1.774412809062    -2.371399636780     0.332352502299

  Mulliken Charges: (a.u.)
   Center  Symbol    Alpha    Beta     Spin     Total
       1     O     4.24741  4.24741  0.00000 -0.49482
       2     C     2.62737  2.62737  0.00000  0.74525
       3     C     3.28970  3.28970  0.00000 -0.57940
       4     O     4.31535  4.31535  0.00000 -0.63069
       5     H     0.39767  0.39767  0.00000  0.20466
       6     H     0.39575  0.39575  0.00000  0.20849
       7     H     0.40722  0.40722  0.00000  0.18555
       8     C     3.00283  3.00283  0.00000 -0.00566
       9     C     3.24597  3.24597  0.00000 -0.49195
      10     H     0.42429  0.42429  0.00000  0.15141
      11     H     0.41251  0.41251  0.00000  0.17498
      12     H     0.41751  0.41751  0.00000  0.16498
      13     H     0.41070  0.41070  0.00000  0.17860
      14     H     0.40571  0.40571  0.00000  0.18858

   Total alpha = 24.00000, Total beta = 24.00000, Total charge = -0.00000
