  ==> Input File <==

--------------------------------------------------------------------------
set {
	reference rhf
	basis 6-31G*
}

set_num_threads( 1 )
memory 2 gb

molecule MOL {
0 1

O	 -0.988096	 -1.408613	 0.050699
C	 -0.676749	 -0.249230	 -0.009274
C	 -1.746085	 0.827156	 -0.009539
N	 0.623947	 0.147590	 -0.102813
H	 -1.701500	 1.431508	 -0.908902
H	 -2.703425	 0.330732	 0.036390
H	 -1.647323	 1.487769	 0.845106
C	 1.413226	 -0.318379	 -1.226107
C	 1.380189	 0.709855	 0.994548
H	 2.068240	 0.477832	 -1.562292
H	 0.758080	 -0.605402	 -2.030061
H	 2.026821	 -1.173263	 -0.950252
H	 2.108685	 1.408934	 0.601332
H	 0.745381	 1.250624	 1.678304
H	 1.916871	 -0.055412	 1.552358

	symmetry c1
}
set optking {
	frozen_dihedral = ("
		2 4 8 10
	")
}

ee = energy('scf')
oeprop('DIPOLE', 'QUADRUPOLE', 'MULLIKEN_CHARGES')
f=open( 'psi4out.xyz', 'w' )
f.write( "15  " )
f.write( str(ee) + "\n" )
f.write( MOL.save_string_xyz() )
f.close()
--------------------------------------------------------------------------

    Molecular point group: c1

    Geometry (in Angstrom), charge = 0, multiplicity = 1:

       Center              X                  Y                   Z               Mass
    ------------   -----------------  -----------------  -----------------  -----------------
           O         -0.999344815735    -1.359890910171     0.100970133714    15.994914619560
           C         -0.687997815735    -0.200507910171     0.040997133714    12.000000000000
           C         -1.757333815735     0.875878089829     0.040732133714    12.000000000000
           N          0.612698184265     0.196312089829    -0.052541866286    14.003074004780
           H         -1.712748815735     1.480230089829    -0.858630866286     1.007825032070
           H         -2.714673815735     0.379454089829     0.086661133714     1.007825032070
           H         -1.658571815735     1.536491089829     0.895377133714     1.007825032070
           C          1.401977184265    -0.269656910171    -1.175835866286    12.000000000000
           C          1.368940184265     0.758577089829     1.044819133714    12.000000000000
           H          2.056991184265     0.526554089829    -1.512020866286     1.007825032070
           H          0.746831184265    -0.556679910171    -1.979789866286     1.007825032070
           H          2.015572184265    -1.124540910171    -0.899980866286     1.007825032070
           H          2.097436184265     1.457656089829     0.651603133714     1.007825032070
           H          0.734132184265     1.299346089829     1.728575133714     1.007825032070
           H          1.905622184265    -0.006689910171     1.602629133714     1.007825032070

  Charge       = 0
  Multiplicity = 1
  Basis Set: 6-31G*
  Basis Set:

    Orbital Energies (a.u.)
    -----------------------

    Doubly Occupied:

       1A    -20.541044     2A    -15.554327     3A    -11.346560
       4A    -11.261940     5A    -11.253674     6A    -11.224939
       7A     -1.396161     8A     -1.235376     9A     -1.007498
      10A     -0.972755    11A     -0.915438    12A     -0.738689
      13A     -0.675751    14A     -0.657039    15A     -0.645391
      16A     -0.598097    17A     -0.581643    18A     -0.574836
      19A     -0.557341    20A     -0.545724    21A     -0.535550
      22A     -0.484805    23A     -0.422565    24A     -0.353637

  @DF-RHF Final Energy:  -286.00058935430621

   => Energetics <=

    Nuclear Repulsion Energy =            251.0268350306305933
    One-Electron Energy =                -885.8933057293786533
    Two-Electron Energy =                 348.8658813444418456
    DFT Exchange-Correlation Energy =       0.0000000000000000
    Empirical Dispersion Energy =           0.0000000000000000
    PCM Polarization Energy =               0.0000000000000000
    EFP Energy =                            0.0000000000000000
    Total Energy =                       -286.0005893543062712

  Mulliken Charges: (a.u.)
   Center  Symbol    Alpha    Beta     Spin     Total
       1     O     4.25973  4.25973  0.00000 -0.51947
       2     C     2.66061  2.66061  0.00000  0.67879
       3     C     3.28018  3.28018  0.00000 -0.56036
       4     N     3.82459  3.82459  0.00000 -0.64917
       5     H     0.40665  0.40665  0.00000  0.18671
       6     H     0.39880  0.39880  0.00000  0.20241
       7     H     0.41024  0.41024  0.00000  0.17951
       8     C     3.13304  3.13304  0.00000 -0.26607
       9     C     3.13501  3.13501  0.00000 -0.27002
      10     H     0.41841  0.41841  0.00000  0.16317
      11     H     0.40921  0.40921  0.00000  0.18158
      12     H     0.41780  0.41780  0.00000  0.16440
      13     H     0.41599  0.41599  0.00000  0.16803
      14     H     0.41381  0.41381  0.00000  0.17238
      15     H     0.41594  0.41594  0.00000  0.16813

   Total alpha = 24.00000, Total beta = 24.00000, Total charge = -0.00000
