  ==> Input File <==

--------------------------------------------------------------------------
set {
	reference rhf
	basis cc-pvtz
}

set_num_threads( 4 )
memory 2 gb

molecule MOL {
0 1

H	 -3.162190	 0.493205	 -0.000107
C	 -2.363908	 -0.234727	 0.000005
O	 -1.158738	 0.454634	 -0.000087
H	 -2.464314	 -0.863616	 -0.882153
H	 -2.464327	 -0.863359	 0.882345
C	 -0.028611	 -0.359694	 0.000037
C	 1.212847	 0.509314	 -0.000053
H	 -0.034155	 -1.007047	 -0.877198
H	 -0.034195	 -1.006836	 0.877430
C	 1.205265	 1.535461	 -1.127579
H	 1.284606	 1.009243	 0.959555
H	 2.083289	 -0.131904	 -0.084440
H	 0.354301	 2.203781	 -1.048240
H	 2.102301	 2.141918	 -1.103968
H	 1.158625	 1.055010	 -2.099207

	symmetry c1
}
set optking {
	frozen_dihedral = ("
		11 7 6 8
	")
}

ee = optimize('scf')
oeprop('DIPOLE', 'QUADRUPOLE', 'MULLIKEN_CHARGES')
f=open( 'psi4out.xyz', 'w' )
f.write( "15  " )
f.write( str(ee) + "\n" )
f.write( MOL.save_string_xyz() )
f.close()
--------------------------------------------------------------------------

    Molecular point group: c1
  Charge       = 0
  Multiplicity = 1
  Basis Set: CC-PVTZ
  Basis Set:
  @DF-RHF Final Energy:  -232.22747943029412
    Total Energy =                       -232.2274794302942951
    Molecular point group: c1
  Basis Set: CC-PVTZ
  Basis Set:
  Basis Set: CC-PVTZ
  Basis Set:
  @DF-RHF Final Energy:  -232.22772832976179
    Total Energy =                       -232.2277283297618737
  Basis Set: CC-PVTZ
  Basis Set:
  Basis Set: CC-PVTZ
  Basis Set:
  @DF-RHF Final Energy:  -232.22780548420283
    Total Energy =                       -232.2278054842028041
  Basis Set: CC-PVTZ
  Basis Set:
  Charge       = 0
  Multiplicity = 1
  Basis Set: CC-PVTZ
  Basis Set:

    Orbital Energies (a.u.)
    -----------------------

    Doubly Occupied:

       1A    -20.548469     2A    -11.264891     3A    -11.262531
       4A    -11.213808     5A    -11.201598     6A     -1.382953
       7A     -1.054937     8A     -0.951393     9A     -0.888319
      10A     -0.798229    11A     -0.672575    12A     -0.662884
      13A     -0.635490    14A     -0.594890    15A     -0.563809
      16A     -0.546114    17A     -0.502889    18A     -0.485073
      19A     -0.477339    20A     -0.460387    21A     -0.416098

  @DF-RHF Final Energy:  -232.22780718730985

   => Energetics <=

    Nuclear Repulsion Energy =            193.1442612646168300
    One-Electron Energy =                -697.5747848779417382
    Two-Electron Energy =                 272.2027164260151721
    DFT Exchange-Correlation Energy =       0.0000000000000000
    Empirical Dispersion Energy =           0.0000000000000000
    PCM Polarization Energy =               0.0000000000000000
    EFP Energy =                            0.0000000000000000
    Total Energy =                       -232.2278071873097360
    Molecular point group: c1
  Basis Set: CC-PVTZ
  Basis Set:

  -Total Gradient:
     Atom            X                  Y                   Z
    ------   -----------------  -----------------  -----------------
       1       -0.000026482020    -0.000011871675    -0.000004683586
       2       -0.000022086404     0.000012696440     0.000033351392
       3        0.000015492507    -0.000050896722     0.000024694003
       4        0.000008594638     0.000006037694     0.000000299150
       5       -0.000015523938    -0.000008269727    -0.000006375455
       6       -0.001046127171     0.001617403014    -0.001369057968
       7       -0.001227420644     0.001785544328    -0.000689702407
       8        0.001102664127    -0.001620378084     0.001172020268
       9       -0.000038021534     0.000059155434     0.000005963585
      10       -0.000026720067    -0.000004915530     0.000022329904
      11        0.001238119151    -0.001743547436     0.000802483818
      12        0.000026780637    -0.000010009287    -0.000009722950
      13        0.000004800561    -0.000000498930    -0.000005676570
      14        0.000005708276    -0.000013801793     0.000022715454
      15        0.000000221884    -0.000016647728     0.000001361360

  **** Optimization is complete! (in 4 steps) ****
    Final optimized geometry and variables:
    Molecular point group: c1

    Geometry (in Angstrom), charge = 0, multiplicity = 1:

    H           -2.924286859980     0.074942537959     0.266520408194
    C           -2.112196879148    -0.637394078511     0.245205819570
    O           -0.920046912627     0.073835547541     0.241462891208
    H           -2.211376395441    -1.253982420291    -0.645694775669
    H           -2.189642068046    -1.281978762952     1.118361077313
    C            0.224389222733    -0.719117287919     0.214644364599
    C            1.465734400048     0.153475222120     0.222829743359
    H            0.223096987202    -1.362061919231    -0.666387973333
    H            0.237955076405    -1.378052682285     1.082473352188
    C            1.514824885705     1.170000570044    -0.911632435733
    H            1.539765434707     0.652166286642     1.183627575835
    H            2.325689512488    -0.507880868384     0.158943466823
    H            0.686805207701     1.862592829053    -0.849572032700
    H            2.436954001901     1.738587620122    -0.876868320730
    H            1.465644823691     0.677192582010    -1.877495794810

  Mulliken Charges: (a.u.)
   Center  Symbol    Alpha    Beta     Spin     Total
       1     H     0.44724  0.44724  0.00000  0.10551
       2     C     3.03123  3.03123  0.00000 -0.06245
       3     O     4.17417  4.17417  0.00000 -0.34835
       4     H     0.47200  0.47200  0.00000  0.05599
       5     H     0.47146  0.47146  0.00000  0.05708
       6     C     2.97202  2.97202  0.00000  0.05596
       7     C     3.08133  3.08133  0.00000 -0.16267
       8     H     0.47281  0.47281  0.00000  0.05438
       9     H     0.46643  0.46643  0.00000  0.06713
      10     C     3.14731  3.14731  0.00000 -0.29462
      11     H     0.45285  0.45285  0.00000  0.09431
      12     H     0.45642  0.45642  0.00000  0.08716
      13     H     0.44496  0.44496  0.00000  0.11008
      14     H     0.45113  0.45113  0.00000  0.09774
      15     H     0.45863  0.45863  0.00000  0.08274

   Total alpha = 21.00000, Total beta = 21.00000, Total charge = -0.00000
