  ==> Input File <==

--------------------------------------------------------------------------
set {
	reference rhf
	basis 6-31G*
}

set_num_threads( 1 )
memory 2 gb

molecule MOL {
0 1

O	 -0.988096	 -1.408613	 0.050699
C	 -0.676749	 -0.249230	 -0.009274
C	 -1.746085	 0.827156	 -0.009539
N	 0.623947	 0.147590	 -0.102813
H	 -1.701500	 1.431508	 -0.908902
H	 -2.703425	 0.330732	 0.036390
H	 -1.647323	 1.487769	 0.845106
C	 1.282817	 0.069994	 -1.391900
C	 1.503653	 0.314279	 1.033223
H	 1.934178	 0.927981	 -1.516817
H	 0.542787	 0.066565	 -2.173108
H	 1.885093	 -0.832186	 -1.474093
H	 2.218740	 1.098684	 0.815508
H	 0.959402	 0.605487	 1.917486
H	 2.059996	 -0.595074	 1.253162

	symmetry c1
}
set optking {
	frozen_dihedral = ("
		2 4 8 10
	")
}

ee = energy('scf')
oeprop('DIPOLE', 'QUADRUPOLE', 'MULLIKEN_CHARGES')
f=open( 'psi4out.xyz', 'w' )
f.write( "15  " )
f.write( str(ee) + "\n" )
f.write( MOL.save_string_xyz() )
f.close()
--------------------------------------------------------------------------

    Molecular point group: c1

    Geometry (in Angstrom), charge = 0, multiplicity = 1:

       Center              X                  Y                   Z               Mass
    ------------   -----------------  -----------------  -----------------  -----------------
           O         -0.998111201011    -1.358529437406     0.123898348026    15.994914619560
           C         -0.686764201011    -0.199146437406     0.063925348026    12.000000000000
           C         -1.756100201011     0.877239562594     0.063660348026    12.000000000000
           N          0.613931798989     0.197673562594    -0.029613651974    14.003074004780
           H         -1.711515201011     1.481591562594    -0.835702651974     1.007825032070
           H         -2.713440201011     0.380815562594     0.109589348026     1.007825032070
           H         -1.657338201011     1.537852562594     0.918305348026     1.007825032070
           C          1.272801798989     0.120077562594    -1.318700651974    12.000000000000
           C          1.493637798989     0.364362562594     1.106422348026    12.000000000000
           H          1.924162798989     0.978064562594    -1.443617651974     1.007825032070
           H          0.532771798989     0.116648562594    -2.099908651974     1.007825032070
           H          1.875077798989    -0.782102437406    -1.400893651974     1.007825032070
           H          2.208724798989     1.148767562594     0.888707348026     1.007825032070
           H          0.949386798989     0.655570562594     1.990685348026     1.007825032070
           H          2.049980798989    -0.544990437406     1.326361348026     1.007825032070

  Charge       = 0
  Multiplicity = 1
  Basis Set: 6-31G*
  Basis Set:

    Orbital Energies (a.u.)
    -----------------------

    Doubly Occupied:

       1A    -20.547266     2A    -15.546971     3A    -11.348093
       4A    -11.258468     5A    -11.256616     6A    -11.224821
       7A     -1.399147     8A     -1.233376     9A     -1.006975
      10A     -0.971655    11A     -0.914882    12A     -0.738946
      13A     -0.675365    14A     -0.658221    15A     -0.643154
      16A     -0.599490    17A     -0.581404    18A     -0.576592
      19A     -0.557009    20A     -0.545474    21A     -0.535257
      22A     -0.483442    23A     -0.425281    24A     -0.350316

  @DF-RHF Final Energy:  -285.99441731733009

   => Energetics <=

    Nuclear Repulsion Energy =            250.8224782283099614
    One-Electron Energy =                -885.4772445458837637
    Two-Electron Energy =                 348.6603490002438548
    DFT Exchange-Correlation Energy =       0.0000000000000000
    Empirical Dispersion Energy =           0.0000000000000000
    PCM Polarization Energy =               0.0000000000000000
    EFP Energy =                            0.0000000000000000
    Total Energy =                       -285.9944173173299760

  Mulliken Charges: (a.u.)
   Center  Symbol    Alpha    Beta     Spin     Total
       1     O     4.24950  4.24950  0.00000 -0.49900
       2     C     2.66629  2.66629  0.00000  0.66741
       3     C     3.27784  3.27784  0.00000 -0.55569
       4     N     3.82777  3.82777  0.00000 -0.65555
       5     H     0.40849  0.40849  0.00000  0.18301
       6     H     0.40042  0.40042  0.00000  0.19917
       7     H     0.40856  0.40856  0.00000  0.18289
       8     C     3.13298  3.13298  0.00000 -0.26596
       9     C     3.13197  3.13197  0.00000 -0.26394
      10     H     0.41764  0.41764  0.00000  0.16472
      11     H     0.41330  0.41330  0.00000  0.17341
      12     H     0.41698  0.41698  0.00000  0.16605
      13     H     0.41690  0.41690  0.00000  0.16620
      14     H     0.41392  0.41392  0.00000  0.17215
      15     H     0.41743  0.41743  0.00000  0.16513

   Total alpha = 24.00000, Total beta = 24.00000, Total charge =  0.00000
