  ==> Input File <==

--------------------------------------------------------------------------
set {
	reference rhf
	basis cc-pvtz
}

set_num_threads( 4 )
memory 2 gb

molecule MOL {
0 1

H	 -2.644180	 -0.653737	 1.272255
C	 -2.092774	 -0.380414	 0.391915
O	 -0.808934	 -0.154049	 0.752536
F	 -2.163230	 -1.351640	 -0.507133
F	 -2.627232	 0.691260	 -0.169301
C	 0.085006	 0.250800	 -0.215074
C	 1.370439	 -0.548013	 -0.012993
Cl	 0.421658	 1.987697	 -0.091007
H	 -0.272219	 0.063284	 -1.212508
F	 2.005479	 -0.689153	 -1.148698
F	 1.064525	 -1.744317	 0.430391
F	 2.172678	 0.014870	 0.848301

	symmetry c1
}
set optking {
	frozen_dihedral = ("
		10 7 6 9
	")
}

ee = optimize('scf')
oeprop('DIPOLE', 'QUADRUPOLE', 'MULLIKEN_CHARGES')
f=open( 'psi4out.xyz', 'w' )
f.write( "12  " )
f.write( str(ee) + "\n" )
f.write( MOL.save_string_xyz() )
f.close()
--------------------------------------------------------------------------

    Molecular point group: c1
  Charge       = 0
  Multiplicity = 1
  Basis Set: CC-PVTZ
  Basis Set:
  @DF-RHF Final Energy: -1146.61542948901092
    Total Energy =                      -1146.6154294890104666
    Molecular point group: c1
  Basis Set: CC-PVTZ
  Basis Set:
  Basis Set: CC-PVTZ
  Basis Set:
  @DF-RHF Final Energy: -1146.61597095983643
    Total Energy =                      -1146.6159709598368863
  Basis Set: CC-PVTZ
  Basis Set:
  Basis Set: CC-PVTZ
  Basis Set:
  @DF-RHF Final Energy: -1146.61657335518748
    Total Energy =                      -1146.6165733551874837
  Basis Set: CC-PVTZ
  Basis Set:
  Basis Set: CC-PVTZ
  Basis Set:
  @DF-RHF Final Energy: -1146.61661186507945
    Total Energy =                      -1146.6166118650808130
  Basis Set: CC-PVTZ
  Basis Set:
  @DF-RHF Final Energy: -1146.61661958341256
    Total Energy =                      -1146.6166195834127848
  @DF-RHF Final Energy: -1146.61662383949397
    Total Energy =                      -1146.6166238394935135
  @DF-RHF Final Energy: -1146.58629420542889
    Total Energy =                      -1146.5862942054300220
  @DF-RHF Final Energy: -1146.58282956535641
    Total Energy =                      -1146.5828295653573150
  @DF-RHF Final Energy: -1146.60985444203152
    Total Energy =                      -1146.6098544420308372
  @DF-RHF Final Energy: -1146.61530770463560
    Total Energy =                      -1146.6153077046353701
  @DF-RHF Final Energy: -1146.61614739351558
    Total Energy =                      -1146.6161473935148933
  @DF-RHF Final Energy: -1146.61642321048475
    Total Energy =                      -1146.6164232104833900
  @DF-RHF Final Energy: -1146.61653898362238
    Total Energy =                      -1146.6165389836223767
  @DF-RHF Final Energy: -1146.61659473684722
    Total Energy =                      -1146.6165947368458546
  Basis Set: CC-PVTZ
  Basis Set:
  @DF-RHF Final Energy: -1146.61660925341039
    Total Energy =                      -1146.6166092534103882
  Basis Set: CC-PVTZ
  Basis Set:
  Basis Set: CC-PVTZ
  Basis Set:
  @DF-RHF Final Energy: -1146.61662264435427
    Total Energy =                      -1146.6166226443549476
  Basis Set: CC-PVTZ
  Basis Set:
  Basis Set: CC-PVTZ
  Basis Set:
  @DF-RHF Final Energy: -1146.61662718520392
    Total Energy =                      -1146.6166271852034697
  Basis Set: CC-PVTZ
  Basis Set:
  Charge       = 0
  Multiplicity = 1
  Basis Set: CC-PVTZ
  Basis Set:

    Orbital Energies (a.u.)
    -----------------------

    Doubly Occupied:

       1A   -104.854783     2A    -26.355316     3A    -26.354677
       4A    -26.351472     5A    -26.344057     6A    -26.343962
       7A    -20.641899     8A    -11.521391     9A    -11.484980
      10A    -11.402023    11A    -10.580346    12A     -8.047120
      13A     -8.045167    14A     -8.045069    15A     -1.768254
      16A     -1.725695    17A     -1.664430    18A     -1.659345
      19A     -1.645641    20A     -1.489010    21A     -1.176194
      22A     -1.050300    23A     -0.992457    24A     -0.925042
      25A     -0.864431    26A     -0.859584    27A     -0.851491
      28A     -0.831319    29A     -0.820149    30A     -0.794999
      31A     -0.734944    32A     -0.733891    33A     -0.712334
      34A     -0.708346    35A     -0.685353    36A     -0.680869
      37A     -0.665485    38A     -0.663685    39A     -0.651130
      40A     -0.636402    41A     -0.599524    42A     -0.581010
      43A     -0.523440    44A     -0.477693    45A     -0.468209

  @DF-RHF Final Energy: -1146.61662770356816

   => Energetics <=

    Nuclear Repulsion Energy =            736.9880285866818213
    One-Electron Energy =               -3057.1834743834119763
    Two-Electron Energy =                1173.5788180931617717
    DFT Exchange-Correlation Energy =       0.0000000000000000
    Empirical Dispersion Energy =           0.0000000000000000
    PCM Polarization Energy =               0.0000000000000000
    EFP Energy =                            0.0000000000000000
    Total Energy =                      -1146.6166277035686107
    Molecular point group: c1
  Basis Set: CC-PVTZ
  Basis Set:

  -Total Gradient:
     Atom            X                  Y                   Z
    ------   -----------------  -----------------  -----------------
       1       -0.000018443670     0.000007417890    -0.000000574215
       2       -0.000019492770    -0.000092483666     0.000036943377
       3       -0.000065786524    -0.000007684055     0.000040543949
       4        0.000000186271     0.000066695095     0.000010229232
       5        0.000023448168    -0.000003365106    -0.000020941176
       6       -0.005349255101    -0.008119588245     0.002268917947
       7        0.004467370879     0.007541930714     0.001166228838
       8       -0.000006352889    -0.000012723502    -0.000028296175
       9        0.003814677499     0.005621656918    -0.002161583686
      10       -0.002846054816    -0.004938235138    -0.001234492956
      11        0.000032984947    -0.000018111724     0.000009653670
      12       -0.000033281979    -0.000045509100    -0.000086628807

  **** Optimization is complete! (in 18 steps) ****
    Final optimized geometry and variables:
    Molecular point group: c1

    Geometry (in Angstrom), charge = 0, multiplicity = 1:

    H           -2.671905253310    -0.596967070879     1.281236715243
    C           -2.101421837904    -0.368762550461     0.400244957890
    O           -0.834068707743    -0.086458657749     0.779902146334
    F           -2.122508972971    -1.397548294886    -0.434452456376
    F           -2.642908643506     0.650911862880    -0.245303692137
    C            0.073055709539     0.267175159835    -0.188647698123
    C            1.366466872865    -0.544573541929    -0.004529325312
    CL           0.438786195780     2.007504177491    -0.106271756577
    H           -0.268927924889     0.110605155135    -1.195527298347
    F            1.987224274044    -0.626261596175    -1.158522192056
    F            1.066463536601    -1.767941028057     0.360618154809
    F            2.180382048932    -0.047487845459     0.881322587387

  Mulliken Charges: (a.u.)
   Center  Symbol    Alpha    Beta     Spin     Total
       1     H     0.45169  0.45169  0.00000  0.09663
       2     C     2.73846  2.73846  0.00000  0.52308
       3     O     4.15319  4.15319  0.00000 -0.30638
       4     F     4.61754  4.61754  0.00000 -0.23508
       5     F     4.61528  4.61528  0.00000 -0.23057
       6     C     2.94518  2.94518  0.00000  0.10963
       7     C     2.66633  2.66633  0.00000  0.66734
       8    CL     8.57546  8.57546  0.00000 -0.15093
       9     H     0.43159  0.43159  0.00000  0.13683
      10     F     4.60603  4.60603  0.00000 -0.21207
      11     F     4.60294  4.60294  0.00000 -0.20587
      12     F     4.59630  4.59630  0.00000 -0.19261

   Total alpha = 45.00000, Total beta = 45.00000, Total charge =  0.00000
