  ==> Input File <==

--------------------------------------------------------------------------
set {
	reference rhf
	basis 6-31G*
}

set_num_threads( 4 )
memory 2 gb

molecule MOL {
0 1

H	 -2.071057	 2.293933	 -0.017530
C	 -1.693085	 1.288716	 -0.010250
C	 -2.554929	 0.205159	 -0.001434
C	 -0.333340	 1.062794	 -0.009676
H	 -3.618787	 0.360553	 -0.001830
C	 -2.054392	 -1.083291	 0.007859
H	 0.359203	 1.878339	 -0.016520
C	 0.154804	 -0.237046	 -0.000077
H	 -2.739577	 -1.910682	 0.014420
C	 -0.687514	 -1.353937	 0.009042
N	 1.611208	 -0.370857	 -0.000034
C	 -0.251309	 -2.802573	 0.019428
O	 2.274126	 0.622059	 -0.008063
O	 2.068510	 -1.474748	 0.007823
H	 0.344405	 -3.032059	 0.892119
H	 -1.128868	 -3.436815	 0.021346
H	 0.348666	 -3.043323	 -0.847285

	symmetry c1
}
set optking {
	frozen_dihedral = ("
		4 8 11 13
	")
}

ee = optimize('scf')
oeprop('DIPOLE', 'QUADRUPOLE', 'MULLIKEN_CHARGES')
f=open( 'psi4out.xyz', 'w' )
f.write( "17  " )
f.write( str(ee) + "\n" )
f.write( MOL.save_string_xyz() )
f.close()
--------------------------------------------------------------------------

    Molecular point group: c1
  Charge       = 0
  Multiplicity = 1
  Basis Set: 6-31G*
  Basis Set:
  @DF-RHF Final Energy:  -473.20643043899446
    Total Energy =                       -473.2064304389946301
    Molecular point group: c1
  Basis Set: 6-31G*
  Basis Set:
  Basis Set: 6-31G*
  Basis Set:
  @DF-RHF Final Energy:  -473.20646697152824
    Total Energy =                       -473.2064669715285845
  Basis Set: 6-31G*
  Basis Set:
  Basis Set: 6-31G*
  Basis Set:
  @DF-RHF Final Energy:  -473.20599262772214
    Total Energy =                       -473.2059926277219120
  Basis Set: 6-31G*
  Basis Set:
  Basis Set: 6-31G*
  Basis Set:
  @DF-RHF Final Energy:  -473.20649015764769
    Total Energy =                       -473.2064901576475222
  Basis Set: 6-31G*
  Basis Set:
  Basis Set: 6-31G*
  Basis Set:
  @DF-RHF Final Energy:  -473.20649206650745
    Total Energy =                       -473.2064920665075078
  Basis Set: 6-31G*
  Basis Set:
  Charge       = 0
  Multiplicity = 1
  Basis Set: 6-31G*
  Basis Set:

    Orbital Energies (a.u.)
    -----------------------

    Doubly Occupied:

       1A    -20.597861     2A    -20.595669     3A    -15.853117
       4A    -11.300889     5A    -11.283406     6A    -11.265566
       7A    -11.264707     8A    -11.253696     9A    -11.252846
      10A    -11.232560    11A     -1.631475    12A     -1.413225
      13A     -1.199215    14A     -1.091213    15A     -1.071434
      16A     -0.979745    17A     -0.930195    18A     -0.846092
      19A     -0.823054    20A     -0.768445    21A     -0.731180
      22A     -0.724838    23A     -0.692935    24A     -0.664482
      25A     -0.637959    26A     -0.597601    27A     -0.588381
      28A     -0.561310    29A     -0.541012    30A     -0.519780
      31A     -0.518607    32A     -0.484285    33A     -0.475898
      34A     -0.448088    35A     -0.370162    36A     -0.353401

  @DF-RHF Final Energy:  -473.20649225279777

   => Energetics <=

    Nuclear Repulsion Energy =            509.7356005679563964
    One-Electron Energy =               -1654.7555282288858507
    Two-Electron Energy =                 671.8134354081319088
    DFT Exchange-Correlation Energy =       0.0000000000000000
    Empirical Dispersion Energy =           0.0000000000000000
    PCM Polarization Energy =               0.0000000000000000
    EFP Energy =                            0.0000000000000000
    Total Energy =                       -473.2064922527974886
    Molecular point group: c1
  Basis Set: 6-31G*
  Basis Set:

  -Total Gradient:
     Atom            X                  Y                   Z
    ------   -----------------  -----------------  -----------------
       1       -0.000000370639    -0.000000205785     0.000001856051
       2        0.000002345130    -0.000001570449     0.000015342863
       3       -0.000000569388     0.000001257115    -0.000017910575
       4       -0.000008535030     0.000005300510    -0.000008576852
       5       -0.000000673097     0.000000054075     0.000001112827
       6       -0.000000157416     0.000000073601     0.000024693776
       7       -0.000006517508    -0.000002214154     0.000000002918
       8       -0.000001399525    -0.000016482538    -0.000006147239
       9       -0.000000359871     0.000000941736     0.000002172191
      10       -0.000003450455     0.000003145980    -0.000043186913
      11       -0.000002482090     0.000094744944     0.000033223666
      12       -0.000009648680    -0.000003004121     0.000013693660
      13        0.000003479346    -0.000054094048    -0.000008690935
      14        0.000019985648    -0.000028496401    -0.000006937487
      15        0.000003686298    -0.000002289551     0.000001138866
      16        0.000002451630     0.000000649660     0.000000681732
      17        0.000002215652     0.000002189425    -0.000002468548

  **** Optimization is complete! (in 6 steps) ****
    Final optimized geometry and variables:
    Molecular point group: c1

    Geometry (in Angstrom), charge = 0, multiplicity = 1:

    H           -2.028498295721     2.737284390369    -0.019221710070
    C           -1.651238076571     1.731780777534    -0.012029464390
    C           -2.513861454542     0.648860672118    -0.003590457702
    C           -0.291658997591     1.504896478101    -0.011126613289
    H           -3.577569854266     0.805019329228    -0.004112018885
    C           -2.014259071382    -0.639920566212     0.005753605406
    H            0.401492077932     2.319956553240    -0.017477350021
    C            0.195549330650     0.204699997056    -0.001759215383
    H           -2.700056473088    -1.466825244661     0.012344907509
    C           -0.647552232083    -0.911568910914     0.006911212434
    N            1.651874080205     0.069908141951    -0.001265798665
    C           -0.212408197892    -2.360531225923     0.017672521689
    O            2.303352048315     1.071509730743    -0.008829491665
    O            2.121967564656    -1.027557130799     0.006500846397
    H            0.385787164844    -2.589493545299     0.888824625623
    H           -1.090380970920    -2.994160044110     0.022967672097
    H            0.384802757107    -2.602671234343    -0.850589799622

  Mulliken Charges: (a.u.)
   Center  Symbol    Alpha    Beta     Spin     Total
       1     H     0.38932  0.38932  0.00000  0.22136
       2     C     3.11184  3.11184  0.00000 -0.22368
       3     C     3.08022  3.08022  0.00000 -0.16043
       4     C     3.08444  3.08444  0.00000 -0.16888
       5     H     0.38934  0.38934  0.00000  0.22131
       6     C     3.12628  3.12628  0.00000 -0.25256
       7     H     0.36222  0.36222  0.00000  0.27556
       8     C     2.93783  2.93783  0.00000  0.12434
       9     H     0.39271  0.39271  0.00000  0.21458
      10     C     2.96281  2.96281  0.00000  0.07437
      11     N     3.24172  3.24172  0.00000  0.51655
      12     C     3.23511  3.23511  0.00000 -0.47023
      13     O     4.23743  4.23743  0.00000 -0.47487
      14     O     4.23805  4.23805  0.00000 -0.47610
      15     H     0.39766  0.39766  0.00000  0.20468
      16     H     0.41534  0.41534  0.00000  0.16932
      17     H     0.39766  0.39766  0.00000  0.20467

   Total alpha = 36.00000, Total beta = 36.00000, Total charge =  0.00000
