  ==> Input File <==

--------------------------------------------------------------------------
set {
	reference rhf
	basis cc-pvtz
}

set_num_threads( 4 )
memory 2 gb

molecule MOL {
0 1

H	 1.128311	 0.207724	 1.465118
C	 1.134565	 0.093781	 0.372499
C	 0.062554	 0.862911	 -0.350953
O	 1.948932	 -0.587720	 -0.146651
C	 -0.924825	 -0.050091	 -1.084522
H	 0.536914	 1.560968	 -1.028591
H	 -0.472668	 1.436834	 0.402190
C	 -0.299993	 -0.803842	 -2.255032
H	 -1.749416	 0.554976	 -1.443017
H	 -1.352868	 -0.757431	 -0.379614
H	 0.100561	 -0.115314	 -2.990588
H	 -1.035806	 -1.427775	 -2.747908
H	 0.512588	 -1.445072	 -1.931657

	symmetry c1
}
set optking {
	frozen_dihedral = ("
		6 3 2 4
	")
}

ee = optimize('scf')
oeprop('DIPOLE', 'QUADRUPOLE', 'MULLIKEN_CHARGES')
f=open( 'psi4out.xyz', 'w' )
f.write( "13  " )
f.write( str(ee) + "\n" )
f.write( MOL.save_string_xyz() )
f.close()
--------------------------------------------------------------------------

    Molecular point group: c1
  Charge       = 0
  Multiplicity = 1
  Basis Set: CC-PVTZ
  Basis Set:
  @DF-RHF Final Energy:  -231.06672026532510
    Total Energy =                       -231.0667202653251024
    Molecular point group: c1
  Basis Set: CC-PVTZ
  Basis Set:
  Basis Set: CC-PVTZ
  Basis Set:
  @DF-RHF Final Energy:  -231.06690893352436
    Total Energy =                       -231.0669089335243029
  Basis Set: CC-PVTZ
  Basis Set:
  Basis Set: CC-PVTZ
  Basis Set:
  @DF-RHF Final Energy:  -231.06740300353945
    Total Energy =                       -231.0674030035394821
  Basis Set: CC-PVTZ
  Basis Set:
  Basis Set: CC-PVTZ
  Basis Set:
  @DF-RHF Final Energy:  -231.06750101983897
    Total Energy =                       -231.0675010198391419
  Basis Set: CC-PVTZ
  Basis Set:
  Basis Set: CC-PVTZ
  Basis Set:
  @DF-RHF Final Energy:  -231.06750942023652
    Total Energy =                       -231.0675094202364619
  Basis Set: CC-PVTZ
  Basis Set:
  Basis Set: CC-PVTZ
  Basis Set:
  @DF-RHF Final Energy:  -231.06751146410915
    Total Energy =                       -231.0675114641090886
  Basis Set: CC-PVTZ
  Basis Set:
  Charge       = 0
  Multiplicity = 1
  Basis Set: CC-PVTZ
  Basis Set:

    Orbital Energies (a.u.)
    -----------------------

    Doubly Occupied:

       1A    -20.553352     2A    -11.323453     3A    -11.235372
       4A    -11.232446     5A    -11.207322     6A     -1.408767
       7A     -1.079165     8A     -0.971559     9A     -0.845161
      10A     -0.779552    11A     -0.683119    12A     -0.652016
      13A     -0.599445    14A     -0.595178    15A     -0.570797
      16A     -0.526261    17A     -0.500920    18A     -0.489291
      19A     -0.480422    20A     -0.409576

  @DF-RHF Final Energy:  -231.06751164216587

   => Energetics <=

    Nuclear Repulsion Energy =            175.9576275402828287
    One-Electron Energy =                -661.7639337391739218
    Two-Electron Energy =                 254.7387945567252530
    DFT Exchange-Correlation Energy =       0.0000000000000000
    Empirical Dispersion Energy =           0.0000000000000000
    PCM Polarization Energy =               0.0000000000000000
    EFP Energy =                            0.0000000000000000
    Total Energy =                       -231.0675116421658402
    Molecular point group: c1
  Basis Set: CC-PVTZ
  Basis Set:

  -Total Gradient:
     Atom            X                  Y                   Z
    ------   -----------------  -----------------  -----------------
       1        0.000006551217    -0.000008306129     0.000000169071
       2        0.000725967577     0.001112229023    -0.000020483782
       3       -0.000265097446    -0.001020873152    -0.000581804044
       4       -0.000484331443    -0.000688050940     0.000090084335
       5        0.000006031788     0.000024127005    -0.000015499827
       6       -0.000004686726     0.000567158810     0.000534453817
       7       -0.000007581135     0.000007541086    -0.000004743886
       8       -0.000002476888    -0.000012173782    -0.000017675202
       9        0.000003566490     0.000013553093     0.000012633783
      10        0.000013690192     0.000013107147     0.000009796072
      11        0.000000996123    -0.000007112320    -0.000000275559
      12        0.000005803274    -0.000006751366    -0.000003865846
      13        0.000001566980     0.000005551527    -0.000002788932

  **** Optimization is complete! (in 7 steps) ****
    Final optimized geometry and variables:
    Molecular point group: c1

    Geometry (in Angstrom), charge = 0, multiplicity = 1:

    H            0.729097657001     0.387810528064     2.202702415174
    C            0.740405530687     0.230773186730     1.117302000330
    C           -0.321883683955     0.966744619658     0.332539007330
    O            1.550685991357    -0.486458461151     0.639388759715
    C           -1.302965925515     0.040166054932    -0.402570382393
    H            0.182334824433     1.615000100534    -0.377513804095
    H           -0.870120911905     1.604455144747     1.016576791846
    C           -0.718100073626    -0.673927617419    -1.616955852684
    H           -2.147583063313     0.643822458022    -0.716335340041
    H           -1.697565859485    -0.690233688987     0.297868447050
    H           -0.360141121266     0.042211073249    -2.349101143823
    H           -1.476259136577    -1.284373793025    -2.094085864995
    H            0.110944303964    -1.310792045409    -1.344530704299

  Mulliken Charges: (a.u.)
   Center  Symbol    Alpha    Beta     Spin     Total
       1     H     0.45222  0.45222  0.00000  0.09557
       2     C     2.91655  2.91655  0.00000  0.16690
       3     C     3.09338  3.09338  0.00000 -0.18676
       4     O     4.16816  4.16816  0.00000 -0.33632
       5     C     3.08861  3.08861  0.00000 -0.17722
       6     H     0.44429  0.44429  0.00000  0.11143
       7     H     0.44344  0.44344  0.00000  0.11312
       8     C     3.14437  3.14437  0.00000 -0.28875
       9     H     0.44703  0.44703  0.00000  0.10593
      10     H     0.45259  0.45259  0.00000  0.09482
      11     H     0.45769  0.45769  0.00000  0.08463
      12     H     0.45098  0.45098  0.00000  0.09803
      13     H     0.44069  0.44069  0.00000  0.11861

   Total alpha = 20.00000, Total beta = 20.00000, Total charge = -0.00000
