  ==> Input File <==

--------------------------------------------------------------------------
set {
	reference rhf
	basis 6-31G*
}

set_num_threads( 4 )
memory 2 gb

molecule MOL {
0 1

H	 -1.744099	 1.159711	 -0.012586
N	 -1.852125	 0.165761	 -0.074816
C	 -0.563778	 -0.502042	 0.037919
H	 -2.269923	 -0.024963	 -0.965785
C	 0.575259	 0.508231	 -0.048326
H	 -0.482092	 -1.204004	 -0.786564
H	 -0.460411	 -1.085169	 0.956626
C	 1.954651	 -0.143624	 0.035137
H	 0.475158	 1.060484	 -0.977307
H	 0.469181	 1.234488	 0.755973
H	 2.103292	 -0.853109	 -0.774172
H	 2.742821	 0.599562	 -0.030094
H	 2.083613	 -0.679371	 0.971560

	symmetry c1
}
set optking {
	frozen_dihedral = ("
		1 2 3 6
	")
}

ee = optimize('scf')
oeprop('DIPOLE', 'QUADRUPOLE', 'MULLIKEN_CHARGES')
f=open( 'psi4out.xyz', 'w' )
f.write( "13  " )
f.write( str(ee) + "\n" )
f.write( MOL.save_string_xyz() )
f.close()
--------------------------------------------------------------------------

    Molecular point group: c1
  Charge       = 0
  Multiplicity = 1
  Basis Set: 6-31G*
  Basis Set:
  @DF-RHF Final Energy:  -173.27705748843232
    Total Energy =                       -173.2770574884323196
    Molecular point group: c1
  Basis Set: 6-31G*
  Basis Set:
  Basis Set: 6-31G*
  Basis Set:
  @DF-RHF Final Energy:  -173.27813983893498
    Total Energy =                       -173.2781398389349192
  Basis Set: 6-31G*
  Basis Set:
  Basis Set: 6-31G*
  Basis Set:
  @DF-RHF Final Energy:  -173.27831879706122
    Total Energy =                       -173.2783187970612744
  Basis Set: 6-31G*
  Basis Set:
  Basis Set: 6-31G*
  Basis Set:
  @DF-RHF Final Energy:  -173.27832051800215
    Total Energy =                       -173.2783205180021469
  Basis Set: 6-31G*
  Basis Set:
  Charge       = 0
  Multiplicity = 1
  Basis Set: 6-31G*
  Basis Set:

    Orbital Energies (a.u.)
    -----------------------

    Doubly Occupied:

       1A    -15.530121     2A    -11.240077     3A    -11.218904
       4A    -11.212977     5A     -1.174237     6A     -1.038330
       7A     -0.900206     8A     -0.807932     9A     -0.665427
      10A     -0.620759    11A     -0.605329    12A     -0.555826
      13A     -0.542878    14A     -0.501374    15A     -0.484757
      16A     -0.471388    17A     -0.375631

  @DF-RHF Final Energy:  -173.27832102803660

   => Energetics <=

    Nuclear Repulsion Energy =            131.6402428908224920
    One-Electron Energy =                -493.9448239695717575
    Two-Electron Energy =                 189.0262600507127502
    DFT Exchange-Correlation Energy =       0.0000000000000000
    Empirical Dispersion Energy =           0.0000000000000000
    PCM Polarization Energy =               0.0000000000000000
    EFP Energy =                            0.0000000000000000
    Total Energy =                       -173.2783210280365154
    Molecular point group: c1
  Basis Set: 6-31G*
  Basis Set:

  -Total Gradient:
     Atom            X                  Y                   Z
    ------   -----------------  -----------------  -----------------
       1        0.000120754585     0.000106147014    -0.001868585003
       2        0.000013143697     0.000210687911     0.002072061507
       3       -0.000807568670    -0.001495772269     0.000784997284
       4        0.000002417053    -0.000001887934     0.000000354834
       5       -0.000103673026    -0.000054558318    -0.000020035926
       6        0.000641625131     0.001257326627    -0.001007266185
       7        0.000062804464    -0.000016143771     0.000013289506
       8        0.000042046008     0.000015771205     0.000037037907
       9       -0.000017958654    -0.000018026765     0.000007796289
      10        0.000001751907    -0.000002581672    -0.000023377433
      11       -0.000012729091     0.000019494818     0.000009641261
      12        0.000050292419    -0.000011798046     0.000009373798
      13        0.000007094177    -0.000008658800    -0.000015287840

  **** Optimization is complete! (in 5 steps) ****
    Final optimized geometry and variables:
    Molecular point group: c1

    Geometry (in Angstrom), charge = 0, multiplicity = 1:

    H           -1.819804169396     1.129407573532     0.041157941028
    N           -1.889825048718     0.132683621330    -0.019338681671
    C           -0.570233886589    -0.495600770438     0.034719114804
    H           -2.350851134031    -0.068353178941    -0.883397238005
    C            0.585877453321     0.501690590880    -0.038682306725
    H           -0.472107918802    -1.200807479598    -0.786309660175
    H           -0.484274017073    -1.070588822094     0.952826884732
    C            1.955469276321    -0.166050939963     0.074999969475
    H            0.521568149181     1.053145846462    -0.974615688733
    H            0.472820050495     1.232087549292     0.760538904400
    H            2.113188202375    -0.878401132932    -0.729919182002
    H            2.754487470061     0.566811529169     0.028182867740
    H            2.053161601491    -0.702224948340     1.014410847299

  Mulliken Charges: (a.u.)
   Center  Symbol    Alpha    Beta     Spin     Total
       1     H     0.33209  0.33209  0.00000  0.33582
       2     N     3.92949  3.92949  0.00000 -0.85899
       3     C     3.04748  3.04748  0.00000 -0.09496
       4     H     0.33209  0.33209  0.00000  0.33581
       5     C     3.16628  3.16628  0.00000 -0.33256
       6     H     0.42670  0.42670  0.00000  0.14661
       7     H     0.42015  0.42015  0.00000  0.15970
       8     C     3.24292  3.24292  0.00000 -0.48584
       9     H     0.42421  0.42421  0.00000  0.15159
      10     H     0.42126  0.42126  0.00000  0.15749
      11     H     0.42102  0.42102  0.00000  0.15797
      12     H     0.41742  0.41742  0.00000  0.16516
      13     H     0.41889  0.41889  0.00000  0.16222

   Total alpha = 17.00000, Total beta = 17.00000, Total charge =  0.00000
