  ==> Input File <==

--------------------------------------------------------------------------
set {
	reference rhf
	basis cc-pvtz
}

set_num_threads( 4 )
memory 2 gb

molecule MOL {
0 1

H	 2.190573	 -0.629143	 -0.208718
O	 1.355408	 -0.529451	 0.208662
C	 0.700177	 0.619554	 -0.266242
C	 -0.713111	 0.588314	 0.266177
H	 0.678680	 0.627133	 -1.351786
H	 1.199747	 1.521489	 0.077736
O	 -1.421673	 -0.521378	 -0.196983
H	 -1.244794	 1.469161	 -0.069059
H	 -0.685100	 0.604721	 1.352683
H	 -2.078668	 -0.225481	 -0.802646

	symmetry c1
}
set optking {
	frozen_dihedral = ("
		10 7 4 3
	")
}

ee = optimize('scf')
oeprop('DIPOLE', 'QUADRUPOLE', 'MULLIKEN_CHARGES')
f=open( 'psi4out.xyz', 'w' )
f.write( "10  " )
f.write( str(ee) + "\n" )
f.write( MOL.save_string_xyz() )
f.close()
--------------------------------------------------------------------------

    Molecular point group: c1
  Charge       = 0
  Multiplicity = 1
  Basis Set: CC-PVTZ
  Basis Set:
  @DF-RHF Final Energy:  -229.02049390365164
    Total Energy =                       -229.0204939036515555
    Molecular point group: c1
  Basis Set: CC-PVTZ
  Basis Set:
  Basis Set: CC-PVTZ
  Basis Set:
  @DF-RHF Final Energy:  -229.02189988140429
    Total Energy =                       -229.0218998814042948
  Basis Set: CC-PVTZ
  Basis Set:
  Basis Set: CC-PVTZ
  Basis Set:
  @DF-RHF Final Energy:  -229.02208977255623
    Total Energy =                       -229.0220897725561429
  Basis Set: CC-PVTZ
  Basis Set:
  Basis Set: CC-PVTZ
  Basis Set:
  @DF-RHF Final Energy:  -229.02209801684469
    Total Energy =                       -229.0220980168447227
  Basis Set: CC-PVTZ
  Basis Set:
  Basis Set: CC-PVTZ
  Basis Set:
  @DF-RHF Final Energy:  -229.02209905380039
    Total Energy =                       -229.0220990538003889
  Basis Set: CC-PVTZ
  Basis Set:
  Charge       = 0
  Multiplicity = 1
  Basis Set: CC-PVTZ
  Basis Set:

    Orbital Energies (a.u.)
    -----------------------

    Doubly Occupied:

       1A    -20.546695     2A    -20.545632     3A    -11.269079
       4A    -11.268371     5A     -1.375042     6A     -1.355703
       7A     -1.002930     8A     -0.837934     9A     -0.724892
      10A     -0.688976    11A     -0.645389    12A     -0.598205
      13A     -0.576780    14A     -0.521601    15A     -0.494999
      16A     -0.446786    17A     -0.433653

  @DF-RHF Final Energy:  -229.02209929260079

   => Energetics <=

    Nuclear Repulsion Energy =            133.2586973522736571
    One-Electron Energy =                -577.8962587660664667
    Two-Electron Energy =                 215.6154621211920528
    DFT Exchange-Correlation Energy =       0.0000000000000000
    Empirical Dispersion Energy =           0.0000000000000000
    PCM Polarization Energy =               0.0000000000000000
    EFP Energy =                            0.0000000000000000
    Total Energy =                       -229.0220992926007568
    Molecular point group: c1
  Basis Set: CC-PVTZ
  Basis Set:

  -Total Gradient:
     Atom            X                  Y                   Z
    ------   -----------------  -----------------  -----------------
       1        0.000010476615    -0.000003035892     0.000010928623
       2       -0.000028145860     0.000019794696    -0.000022539286
       3        0.000174127467    -0.000259348324     0.000354839022
       4       -0.000317949078     0.000384210696    -0.000332010600
       5       -0.000003185108     0.000003279002    -0.000022647438
       6       -0.000000787736    -0.000010379680    -0.000006180337
       7        0.000609883233    -0.000185475040    -0.000521299222
       8       -0.000000701307    -0.000016408655     0.000002725867
       9        0.000004032835     0.000003687355     0.000014461028
      10       -0.000447751064     0.000063675842     0.000521722344

  **** Optimization is complete! (in 6 steps) ****
    Final optimized geometry and variables:
    Molecular point group: c1

    Geometry (in Angstrom), charge = 0, multiplicity = 1:

    H            2.245190957093    -0.613545945900    -0.157368322677
    O            1.417761958164    -0.513811764087     0.275087720508
    C            0.714561404779     0.566581545875    -0.265766123798
    C           -0.697861883062     0.554485381926     0.272605990923
    H            0.684471656682     0.510318437741    -1.351074524528
    H            1.184167115479     1.509097053465     0.011725218386
    O           -1.441795687071    -0.526047671012    -0.221396029649
    H           -1.172417395164     1.500135590662     0.027263645403
    H           -0.657835280207     0.473875373561     1.352183792158
    H           -2.100982679475    -0.224908519393    -0.816297031856

  Mulliken Charges: (a.u.)
   Center  Symbol    Alpha    Beta     Spin     Total
       1     H     0.39550  0.39550  0.00000  0.20900
       2     O     4.19316  4.19316  0.00000 -0.38632
       3     C     2.95381  2.95381  0.00000  0.09237
       4     C     2.97039  2.97039  0.00000  0.05922
       5     H     0.47981  0.47981  0.00000  0.04039
       6     H     0.47933  0.47933  0.00000  0.04135
       7     O     4.19930  4.19930  0.00000 -0.39860
       8     H     0.47393  0.47393  0.00000  0.05215
       9     H     0.46135  0.46135  0.00000  0.07729
      10     H     0.39342  0.39342  0.00000  0.21316

   Total alpha = 17.00000, Total beta = 17.00000, Total charge = -0.00000
