  ==> Input File <==

--------------------------------------------------------------------------
set {
	reference rhf
	basis 6-31G*
}

set_num_threads( 4 )
memory 2 gb

molecule MOL {
0 1

H	 -2.037988	 -0.888066	 0.449426
O	 -1.422729	 -0.573567	 -0.196946
C	 -0.731407	 0.539437	 0.309156
C	 0.680193	 0.672443	 -0.251532
H	 -1.319765	 1.404033	 0.030086
H	 -0.700012	 0.506517	 1.397677
C	 1.599139	 -0.492137	 0.118598
H	 0.616402	 0.758534	 -1.332349
H	 1.107032	 1.602637	 0.117369
H	 1.239738	 -1.428634	 -0.297334
H	 2.601428	 -0.335055	 -0.265730
H	 1.674954	 -0.608418	 1.197020

	symmetry c1
}
set optking {
	frozen_dihedral = ("
		1 2 3 4
	")
}

ee = optimize('scf')
oeprop('DIPOLE', 'QUADRUPOLE', 'MULLIKEN_CHARGES')
f=open( 'psi4out.xyz', 'w' )
f.write( "12  " )
f.write( str(ee) + "\n" )
f.write( MOL.save_string_xyz() )
f.close()
--------------------------------------------------------------------------

    Molecular point group: c1
  Charge       = 0
  Multiplicity = 1
  Basis Set: 6-31G*
  Basis Set:
  @DF-RHF Final Energy:  -193.10821364919767
    Total Energy =                       -193.1082136491975518
    Molecular point group: c1
  Basis Set: 6-31G*
  Basis Set:
  Basis Set: 6-31G*
  Basis Set:
  @DF-RHF Final Energy:  -193.10946139276658
    Total Energy =                       -193.1094613927665478
  Basis Set: 6-31G*
  Basis Set:
  Basis Set: 6-31G*
  Basis Set:
  @DF-RHF Final Energy:  -193.10976156383921
    Total Energy =                       -193.1097615638392426
  Basis Set: 6-31G*
  Basis Set:
  Basis Set: 6-31G*
  Basis Set:
  @DF-RHF Final Energy:  -193.10977277529005
    Total Energy =                       -193.1097727752901676
  Basis Set: 6-31G*
  Basis Set:
  Basis Set: 6-31G*
  Basis Set:
  @DF-RHF Final Energy:  -193.10978254399862
    Total Energy =                       -193.1097825439986195
  Basis Set: 6-31G*
  Basis Set:
  Basis Set: 6-31G*
  Basis Set:
  @DF-RHF Final Energy:  -193.10978379439061
    Total Energy =                       -193.1097837943905517
  Basis Set: 6-31G*
  Basis Set:
  Charge       = 0
  Multiplicity = 1
  Basis Set: 6-31G*
  Basis Set:

    Orbital Energies (a.u.)
    -----------------------

    Doubly Occupied:

       1A    -20.552791     2A    -11.268467     3A    -11.214144
       4A    -11.204041     5A     -1.359352     6A     -1.046657
       7A     -0.918851     8A     -0.798433     9A     -0.705631
      10A     -0.640152    11A     -0.589307    12A     -0.580565
      13A     -0.527222    14A     -0.501526    15A     -0.484695
      16A     -0.465448    17A     -0.431551

  @DF-RHF Final Energy:  -193.10978384909416

   => Energetics <=

    Nuclear Repulsion Energy =            133.2542078408677924
    One-Electron Energy =                -526.1503196660695494
    Two-Electron Energy =                 199.7863279761074864
    DFT Exchange-Correlation Energy =       0.0000000000000000
    Empirical Dispersion Energy =           0.0000000000000000
    PCM Polarization Energy =               0.0000000000000000
    EFP Energy =                            0.0000000000000000
    Total Energy =                       -193.1097838490942422
    Molecular point group: c1
  Basis Set: 6-31G*
  Basis Set:

  -Total Gradient:
     Atom            X                  Y                   Z
    ------   -----------------  -----------------  -----------------
       1        0.001140597973    -0.000935053495     0.000604833303
       2       -0.001287022622     0.000942511280    -0.000485586170
       3       -0.000215838766     0.000535451004    -0.000855219650
       4        0.000348607079    -0.000559021917     0.000743297101
       5       -0.000001534985     0.000007340018     0.000003236292
       6       -0.000001150932     0.000003832549     0.000003052349
       7        0.000002938305     0.000006100409    -0.000010268862
       8        0.000009229968    -0.000004171764     0.000001133675
       9        0.000003917776    -0.000003246755    -0.000001129079
      10       -0.000001509929     0.000003851433     0.000000906998
      11        0.000007493090    -0.000002182896    -0.000000880077
      12       -0.000005726956     0.000004590137    -0.000003375880

  **** Optimization is complete! (in 7 steps) ****
    Final optimized geometry and variables:
    Molecular point group: c1

    Geometry (in Angstrom), charge = 0, multiplicity = 1:

    H           -1.976218784382    -0.945114246760     0.381562738831
    O           -1.354803519231    -0.585842815409    -0.233661322767
    C           -0.726072344366     0.545146688439     0.319048170137
    C            0.677947552917     0.664308452267    -0.251069909876
    H           -1.300622702960     1.439313258344     0.088107757779
    H           -0.673429306396     0.461536822057     1.403250246942
    C            1.584411156602    -0.503596978709     0.131996489407
    H            0.603504205739     0.733672423191    -1.332673839809
    H            1.108910670297     1.600926965070     0.095957931995
    H            1.172872106347    -1.441347565350    -0.220838306644
    H            2.573638375946    -0.384733764934    -0.298896549748
    H            1.700761883316    -0.571035485317     1.210839691436

  Mulliken Charges: (a.u.)
   Center  Symbol    Alpha    Beta     Spin     Total
       1     H     0.27980  0.27980  0.00000  0.44040
       2     O     4.37075  4.37075  0.00000 -0.74151
       3     C     2.99680  2.99680  0.00000  0.00640
       4     C     3.15797  3.15797  0.00000 -0.31593
       5     H     0.42628  0.42628  0.00000  0.14744
       6     H     0.43354  0.43354  0.00000  0.13292
       7     C     3.24251  3.24251  0.00000 -0.48502
       8     H     0.41394  0.41394  0.00000  0.17212
       9     H     0.42401  0.42401  0.00000  0.15199
      10     H     0.40787  0.40787  0.00000  0.18426
      11     H     0.42015  0.42015  0.00000  0.15970
      12     H     0.42639  0.42639  0.00000  0.14722

   Total alpha = 17.00000, Total beta = 17.00000, Total charge = -0.00000
