  ==> Input File <==

--------------------------------------------------------------------------
set {
	reference rhf
	basis 6-31G*
}

set_num_threads( 4 )
memory 2 gb

molecule MOL {
0 1

O	 3.225979	 0.970355	 -0.599647
C	 2.701189	 0.057885	 -0.047330
C	 1.245376	 -0.013843	 0.345420
O	 3.347903	 -1.046386	 0.304773
C	 0.429845	 -0.950761	 -0.542956
H	 1.211390	 -0.310284	 1.388568
H	 0.851400	 0.998746	 0.311605
C	 -1.069045	 -0.954536	 -0.223880
H	 0.826025	 -1.958405	 -0.460412
H	 0.572044	 -0.657190	 -1.577373
C	 -1.435294	 -1.526949	 1.148459
H	 -1.574950	 -1.537792	 -0.989775
H	 -1.460354	 0.058221	 -0.308805
C	 -2.946265	 -1.610452	 1.374279
H	 -1.001350	 -2.520638	 1.248924
H	 -0.995513	 -0.920407	 1.936920
C	 -3.323989	 -2.176154	 2.744475
H	 -3.392739	 -2.227360	 0.596256
H	 -3.382283	 -0.618846	 1.263355
C	 -4.834628	 -2.259793	 2.960513
H	 -2.888247	 -3.166620	 2.857385
H	 -2.882227	 -1.558327	 3.523524
H	 -5.070533	 -2.664253	 3.939986
H	 -5.302092	 -2.899537	 2.217276
H	 -5.296000	 -1.278905	 2.887916
C	 4.728119	 -1.109107	 -0.004993
H	 4.882018	 -1.033965	 -1.071845
H	 5.068212	 -2.067527	 0.355250
H	 5.265056	 -0.311663	 0.488280

	symmetry c1
}
set optking {
	frozen_dihedral = ("
		6 3 2 1
	")
}

ee = optimize('scf')
oeprop('DIPOLE', 'QUADRUPOLE', 'MULLIKEN_CHARGES')
f=open( 'psi4out.xyz', 'w' )
f.write( "29  " )
f.write( str(ee) + "\n" )
f.write( MOL.save_string_xyz() )
f.close()
--------------------------------------------------------------------------

    Molecular point group: c1
  Charge       = 0
  Multiplicity = 1
  Basis Set: 6-31G*
  Basis Set:
  @DF-RHF Final Energy:  -501.04242569597750
    Total Energy =                       -501.0424256959762488
    Molecular point group: c1
  Basis Set: 6-31G*
  Basis Set:
  Basis Set: 6-31G*
  Basis Set:
  @DF-RHF Final Energy:  -501.04261777340787
    Total Energy =                       -501.0426177734080966
  Basis Set: 6-31G*
  Basis Set:
  Basis Set: 6-31G*
  Basis Set:
  @DF-RHF Final Energy:  -501.04168591119378
    Total Energy =                       -501.0416859111938948
  Basis Set: 6-31G*
  Basis Set:
  Basis Set: 6-31G*
  Basis Set:
  @DF-RHF Final Energy:  -501.04290879205814
    Total Energy =                       -501.0429087920574602
  Basis Set: 6-31G*
  Basis Set:
  Charge       = 0
  Multiplicity = 1
  Basis Set: 6-31G*
  Basis Set:

    Orbital Energies (a.u.)
    -----------------------

    Doubly Occupied:

       1A    -20.603678     2A    -20.543041     3A    -11.370235
       4A    -11.280388     5A    -11.232943     6A    -11.229103
       7A    -11.221639     8A    -11.218199     9A    -11.217122
      10A    -11.216133    11A    -11.210007    12A     -1.468072
      13A     -1.360748    14A     -1.101427    15A     -1.068966
      16A     -1.019831    17A     -0.974725    18A     -0.931093
      19A     -0.864906    20A     -0.800042    21A     -0.791488
      22A     -0.772625    23A     -0.697079    24A     -0.678868
      25A     -0.672263    26A     -0.652796    27A     -0.628406
      28A     -0.607091    29A     -0.590449    30A     -0.576915
      31A     -0.570486    32A     -0.552527    33A     -0.537593
      34A     -0.531741    35A     -0.518836    36A     -0.516440
      37A     -0.500394    38A     -0.480886    39A     -0.472896
      40A     -0.464698    41A     -0.461364    42A     -0.453347
      43A     -0.446994    44A     -0.427137

  @DF-RHF Final Energy:  -501.04290967558734

   => Energetics <=

    Nuclear Repulsion Energy =            613.3262823069625256
    One-Electron Energy =               -1897.6671465399824683
    Two-Electron Energy =                 783.2979545574328313
    DFT Exchange-Correlation Energy =       0.0000000000000000
    Empirical Dispersion Energy =           0.0000000000000000
    PCM Polarization Energy =               0.0000000000000000
    EFP Energy =                            0.0000000000000000
    Total Energy =                       -501.0429096755872251
    Molecular point group: c1
  Basis Set: 6-31G*
  Basis Set:

  -Total Gradient:
     Atom            X                  Y                   Z
    ------   -----------------  -----------------  -----------------
       1       -0.000086745807    -0.000030210831     0.000038856785
       2        0.000059927181     0.000049492711    -0.000085089682
       3       -0.000100973256     0.000025554546     0.000023284096
       4        0.000014772870    -0.000077916757     0.000044327348
       5        0.000072812794     0.000040823352    -0.000020615212
       6       -0.000034579488    -0.000006454643     0.000020094672
       7        0.000012713724     0.000003298403     0.000023512113
       8       -0.000030794856    -0.000030371824    -0.000004689139
       9       -0.000005018294    -0.000007857737    -0.000064819420
      10       -0.000025354674     0.000002242180     0.000006564255
      11        0.000037782745     0.000012523632     0.000018977081
      12        0.000026540790    -0.000023201529     0.000013317886
      13       -0.000007190737    -0.000005157955    -0.000029340565
      14       -0.000007394046     0.000017309388    -0.000001661984
      15       -0.000007963066     0.000001271175    -0.000008181907
      16        0.000071738521     0.000030498513     0.000024307108
      17        0.000011242518     0.000001088286     0.000006419313
      18        0.000001243431    -0.000002182125    -0.000003668098
      19       -0.000004103330     0.000002329775     0.000001892972
      20        0.000002979751     0.000004196585    -0.000014544580
      21        0.000002364087    -0.000000750542    -0.000000716225
      22        0.000000761359     0.000001268430     0.000000358998
      23        0.000008154815     0.000000052317    -0.000002182768
      24       -0.000001994758    -0.000000482143    -0.000000727492
      25       -0.000001506496     0.000001029953     0.000000770268
      26       -0.000029505430    -0.000004950719     0.000020348693
      27        0.000011411299     0.000003326220    -0.000003931103
      28        0.000015938514    -0.000003990823    -0.000001573251
      29       -0.000007260178    -0.000002777839    -0.000001290162

  **** Optimization is complete! (in 5 steps) ****
    Final optimized geometry and variables:
    Molecular point group: c1

    Geometry (in Angstrom), charge = 0, multiplicity = 1:

    O            2.984858841948     1.964255643611    -1.219478830132
    C            2.469476097607     1.032447030984    -0.690362084151
    C            1.019328724075     0.959025183338    -0.284180184473
    O            3.119608174325    -0.088703691424    -0.401864972862
    C            0.226091362978     0.001146726280    -1.187821735017
    H            0.973057281770     0.631345845630     0.747812107941
    H            0.616434688938     1.961898553536    -0.347823030695
    C           -1.278407896924    -0.014378416235    -0.897315319015
    H            0.629485312663    -1.001793531654    -1.088168175941
    H            0.376320358396     0.298277386600    -2.222551984475
    C           -1.660810826196    -0.561935915524     0.480380191783
    H           -1.761678643783    -0.620178998904    -1.660426813043
    H           -1.677419145269     0.991773310688    -1.011682975412
    C           -3.174634387566    -0.657256325951     0.681440936790
    H           -1.217568479319    -1.548054946351     0.609921662841
    H           -1.241342467735     0.066831319432     1.262145012614
    C           -3.569678115384    -1.196368255068     2.057431033869
    H           -3.600833171287    -1.296458345649    -0.089958173038
    H           -3.619222549489     0.326652942754     0.540757496119
    C           -5.082841973087    -1.291997145866     2.249297133228
    H           -3.125208901874    -2.179088336329     2.200108040985
    H           -3.148198049831    -0.556248137704     2.829611495555
    H           -5.331161894475    -1.676958739141     3.233510170480
    H           -5.530437734118    -1.953494779547     1.512896802951
    H           -5.553411425738    -0.318222395132     2.146691634531
    C            4.487544784960    -0.148808031676    -0.762105747742
    H            4.604878408236    -0.032281322758    -1.829899838819
    H            4.832359885706    -1.122931555468    -0.451882919410
    H            5.047241624875     0.625075598508    -0.256897292225

  Mulliken Charges: (a.u.)
   Center  Symbol    Alpha    Beta     Spin     Total
       1     O     4.28519  4.28519  0.00000 -0.57037
       2     C     2.61615  2.61615  0.00000  0.76771
       3     C     3.19671  3.19671  0.00000 -0.39342
       4     O     4.30281  4.30281  0.00000 -0.60563
       5     C     3.16651  3.16651  0.00000 -0.33301
       6     H     0.40260  0.40260  0.00000  0.19480
       7     H     0.39987  0.39987  0.00000  0.20026
       8     C     3.15465  3.15465  0.00000 -0.30930
       9     H     0.40946  0.40946  0.00000  0.18109
      10     H     0.41164  0.41164  0.00000  0.17673
      11     C     3.15537  3.15537  0.00000 -0.31073
      12     H     0.41832  0.41832  0.00000  0.16337
      13     H     0.42069  0.42069  0.00000  0.15863
      14     C     3.15063  3.15063  0.00000 -0.30125
      15     H     0.42228  0.42228  0.00000  0.15544
      16     H     0.42226  0.42226  0.00000  0.15548
      17     C     3.15158  3.15158  0.00000 -0.30316
      18     H     0.42347  0.42347  0.00000  0.15305
      19     H     0.42331  0.42331  0.00000  0.15339
      20     C     3.23944  3.23944  0.00000 -0.47888
      21     H     0.42283  0.42283  0.00000  0.15434
      22     H     0.42301  0.42301  0.00000  0.15398
      23     H     0.41901  0.41901  0.00000  0.16198
      24     H     0.42162  0.42162  0.00000  0.15677
      25     H     0.42152  0.42152  0.00000  0.15695
      26     C     3.09227  3.09227  0.00000 -0.18455
      27     H     0.40914  0.40914  0.00000  0.18172
      28     H     0.40894  0.40894  0.00000  0.18211
      29     H     0.40873  0.40873  0.00000  0.18255

   Total alpha = 44.00000, Total beta = 44.00000, Total charge =  0.00000
