  ==> Input File <==

--------------------------------------------------------------------------
set {
	reference rhf
	basis cc-pvtz
}

set_num_threads( 4 )
memory 2 gb

molecule MOL {
0 1

H	 -3.642953	 0.223825	 0.000000
C	 -2.571844	 0.155001	 0.000000
C	 -1.957580	 -1.086132	 0.000000
C	 -1.807160	 1.303787	 0.000000
H	 -2.551493	 -1.979629	 0.000000
C	 -0.582719	 -1.174294	 0.000000
H	 -2.279934	 2.266806	 0.000000
C	 -0.427220	 1.213406	 0.000000
H	 -0.094904	 -2.127556	 0.000000
C	 0.196908	 -0.024061	 0.000000
H	 0.151409	 2.115254	 0.000000
C	 1.690041	 -0.173233	 0.000000
C	 2.550156	 1.048337	 0.229406
O	 2.190763	 -1.237641	 -0.177977
H	 2.364296	 1.796880	 -0.531593
H	 3.585765	 0.749883	 0.195194
H	 2.334067	 1.494305	 1.192940

	symmetry c1
}
set optking {
	frozen_dihedral = ("
		13 12 10 8
	")
}

ee = optimize('scf')
oeprop('DIPOLE', 'QUADRUPOLE', 'MULLIKEN_CHARGES')
f=open( 'psi4out.xyz', 'w' )
f.write( "17  " )
f.write( str(ee) + "\n" )
f.write( MOL.save_string_xyz() )
f.close()
--------------------------------------------------------------------------

    Molecular point group: c1
  Charge       = 0
  Multiplicity = 1
  Basis Set: CC-PVTZ
  Basis Set:
  @DF-RHF Final Energy:  -382.60555851362062
    Total Energy =                       -382.6055585136207355
    Molecular point group: c1
  Basis Set: CC-PVTZ
  Basis Set:
  Basis Set: CC-PVTZ
  Basis Set:
  @DF-RHF Final Energy:  -382.60449230524961
    Total Energy =                       -382.6044923052500053
  Basis Set: CC-PVTZ
  Basis Set:
  Basis Set: CC-PVTZ
  Basis Set:
  @DF-RHF Final Energy:  -382.60562697485079
    Total Energy =                       -382.6056269748510203
  Basis Set: CC-PVTZ
  Basis Set:
  Basis Set: CC-PVTZ
  Basis Set:
  @DF-RHF Final Energy:  -382.60564228382873
    Total Energy =                       -382.6056422838288427
  Basis Set: CC-PVTZ
  Basis Set:
  Basis Set: CC-PVTZ
  Basis Set:
  @DF-RHF Final Energy:  -382.60564413636831
    Total Energy =                       -382.6056441363685963
  Basis Set: CC-PVTZ
  Basis Set:
  Charge       = 0
  Multiplicity = 1
  Basis Set: CC-PVTZ
  Basis Set:

    Orbital Energies (a.u.)
    -----------------------

    Doubly Occupied:

       1A    -20.540502     2A    -11.327808     3A    -11.246889
       4A    -11.244400     5A    -11.242623     6A    -11.238989
       7A    -11.238897     8A    -11.236627     9A    -11.228894
      10A     -1.401951    11A     -1.171184    12A     -1.053433
      13A     -1.030712    14A     -0.998820    15A     -0.864581
      16A     -0.838902    17A     -0.763567    18A     -0.713362
      19A     -0.658671    20A     -0.651979    21A     -0.628674
      22A     -0.610571    23A     -0.602520    24A     -0.600735
      25A     -0.555356    26A     -0.529449    27A     -0.521879
      28A     -0.503663    29A     -0.497728    30A     -0.414429
      31A     -0.350967    32A     -0.346792

  @DF-RHF Final Energy:  -382.60564459226066

   => Energetics <=

    Nuclear Repulsion Energy =            404.4925851507512107
    One-Electron Energy =               -1320.4853557670571718
    Two-Electron Energy =                 533.3871260240450738
    DFT Exchange-Correlation Energy =       0.0000000000000000
    Empirical Dispersion Energy =           0.0000000000000000
    PCM Polarization Energy =               0.0000000000000000
    EFP Energy =                            0.0000000000000000
    Total Energy =                       -382.6056445922608873
    Molecular point group: c1
  Basis Set: CC-PVTZ
  Basis Set:

  -Total Gradient:
     Atom            X                  Y                   Z
    ------   -----------------  -----------------  -----------------
       1        0.000000188007    -0.000000842604     0.000002984907
       2        0.000003504805     0.000007927350    -0.000017734285
       3        0.000005350847    -0.000002925843    -0.000000089287
       4       -0.000011470215    -0.000001387766     0.000012144327
       5       -0.000000939771     0.000000966917    -0.000000696094
       6       -0.000005006666     0.000002954655     0.000021414521
       7       -0.000001043834    -0.000000911823     0.000000630494
       8       -0.000004996383     0.000005850840    -0.000942844085
       9        0.000000808504    -0.000000664736    -0.000011100438
      10        0.000007783892    -0.000067801784     0.001795981884
      11       -0.000007110261    -0.000005995246    -0.000007248516
      12        0.000022960550     0.000182661766    -0.001651426798
      13        0.000000447550    -0.000145150083     0.000798447656
      14       -0.000011530120     0.000025862708    -0.000008726586
      15       -0.000003167003     0.000000215831     0.000001182720
      16        0.000001682910     0.000004910455     0.000004248563
      17        0.000002537181    -0.000005670636     0.000002831019

  **** Optimization is complete! (in 6 steps) ****
    Final optimized geometry and variables:
    Molecular point group: c1

    Geometry (in Angstrom), charge = 0, multiplicity = 1:

    H           -3.642710090324     0.223948483059    -0.008658860808
    C           -2.571558805000     0.155333175953    -0.006308625617
    C           -1.957169255726    -1.085845863533    -0.013593042218
    C           -1.806918295069     1.304051087658     0.003185065056
    H           -2.551123054004    -1.979330506559    -0.021413969499
    C           -0.582285435455    -1.173928455041    -0.014267720885
    H           -2.279561120624     2.267190211138     0.005523138897
    C           -0.426838577172     1.213752185784     0.010070090115
    H           -0.094583714383    -2.127279571861    -0.027901723883
    C            0.196930197497    -0.023607089435     0.002543872071
    H            0.152103748105     2.115535940011     0.019121570830
    C            1.690295545112    -0.172225434997    -0.012465978734
    C            2.550174040073     1.050945405823     0.209938674724
    O            2.189536730000    -1.238438169912    -0.181744751038
    H            2.412067154231     1.766133283946    -0.592585915474
    H            3.583606795327     0.743976204570     0.238124468939
    H            2.288226953345     1.541223764674     1.139671565009

  Mulliken Charges: (a.u.)
   Center  Symbol    Alpha    Beta     Spin     Total
       1     H     0.42023  0.42023  0.00000  0.15955
       2     C     3.07252  3.07252  0.00000 -0.14504
       3     C     3.07439  3.07439  0.00000 -0.14878
       4     C     3.07735  3.07735  0.00000 -0.15470
       5     H     0.42028  0.42028  0.00000  0.15945
       6     C     3.07461  3.07461  0.00000 -0.14922
       7     H     0.42234  0.42234  0.00000  0.15531
       8     C     3.08648  3.08648  0.00000 -0.17296
       9     H     0.40718  0.40718  0.00000  0.18563
      10     C     3.01162  3.01162  0.00000 -0.02323
      11     H     0.42149  0.42149  0.00000  0.15702
      12     C     2.83456  2.83456  0.00000  0.33088
      13     C     3.16718  3.16718  0.00000 -0.33435
      14     O     4.18355  4.18355  0.00000 -0.36711
      15     H     0.44818  0.44818  0.00000  0.10364
      16     H     0.43187  0.43187  0.00000  0.13626
      17     H     0.44618  0.44618  0.00000  0.10764

   Total alpha = 32.00000, Total beta = 32.00000, Total charge =  0.00000
