  ==> Input File <==

--------------------------------------------------------------------------
set {
	reference rhf
	basis 6-31G*
}

set_num_threads( 4 )
memory 2 gb

molecule MOL {
0 1

H	 -1.284890	 0.354077	 -2.314168
C	 -1.051255	 -0.511618	 -1.697623
O	 -1.392607	 -0.295399	 -0.366433
H	 -1.626815	 -1.356970	 -2.048698
H	 0.008511	 -0.737806	 -1.807910
C	 -0.719715	 0.768384	 0.229244
C	 0.719720	 0.768376	 -0.229267
H	 -1.185038	 1.714362	 -0.050570
H	 -0.750528	 0.687237	 1.313896
O	 1.392611	 -0.295398	 0.366430
H	 0.750534	 0.687200	 -1.313918
H	 1.185043	 1.714359	 0.050526
C	 2.706965	 -0.449871	 -0.062409
H	 2.756559	 -0.644779	 -1.131878
H	 3.305899	 0.433456	 0.155466
H	 3.125548	 -1.294566	 0.467107

	symmetry c1
}
set optking {
	frozen_dihedral = ("
		2 3 6 7
	")
}

ee = optimize('scf')
oeprop('DIPOLE', 'QUADRUPOLE', 'MULLIKEN_CHARGES')
f=open( 'psi4out.xyz', 'w' )
f.write( "16  " )
f.write( str(ee) + "\n" )
f.write( MOL.save_string_xyz() )
f.close()
--------------------------------------------------------------------------

    Molecular point group: c1
  Charge       = 0
  Multiplicity = 1
  Basis Set: 6-31G*
  Basis Set:
  @DF-RHF Final Energy:  -306.95993177041629
    Total Energy =                       -306.9599317704161194
    Molecular point group: c1
  Basis Set: 6-31G*
  Basis Set:
  Basis Set: 6-31G*
  Basis Set:
  @DF-RHF Final Energy:  -306.96880737435418
    Total Energy =                       -306.9688073743540144
  Basis Set: 6-31G*
  Basis Set:
  Basis Set: 6-31G*
  Basis Set:
  @DF-RHF Final Energy:  -306.97238811613374
    Total Energy =                       -306.9723881161336294
  Basis Set: 6-31G*
  Basis Set:
  Basis Set: 6-31G*
  Basis Set:
  @DF-RHF Final Energy:  -306.97285615972646
    Total Energy =                       -306.9728561597263479
  Basis Set: 6-31G*
  Basis Set:
  Basis Set: 6-31G*
  Basis Set:
  @DF-RHF Final Energy:  -306.97295174418633
    Total Energy =                       -306.9729517441862185
  Basis Set: 6-31G*
  Basis Set:
  Basis Set: 6-31G*
  Basis Set:
  @DF-RHF Final Energy:  -306.97296890059101
    Total Energy =                       -306.9729689005910700
  Basis Set: 6-31G*
  Basis Set:
  Charge       = 0
  Multiplicity = 1
  Basis Set: 6-31G*
  Basis Set:

    Orbital Energies (a.u.)
    -----------------------

    Doubly Occupied:

       1A    -20.561692     2A    -20.549449     3A    -11.275051
       4A    -11.270144     5A    -11.269034     6A    -11.259655
       7A     -1.391369     8A     -1.367694     9A     -1.028984
      10A     -0.949474    11A     -0.900887    12A     -0.811290
      13A     -0.692738    14A     -0.681942    15A     -0.658412
      16A     -0.637376    17A     -0.627409    18A     -0.595111
      19A     -0.560307    20A     -0.533012    21A     -0.518745
      22A     -0.492136    23A     -0.448992    24A     -0.423183
      25A     -0.408369

  @DF-RHF Final Energy:  -306.97297029218771

   => Energetics <=

    Nuclear Repulsion Energy =            264.5355084958222278
    One-Electron Energy =                -943.1920408945893541
    Two-Electron Energy =                 371.6835621065793589
    DFT Exchange-Correlation Energy =       0.0000000000000000
    Empirical Dispersion Energy =           0.0000000000000000
    PCM Polarization Energy =               0.0000000000000000
    EFP Energy =                            0.0000000000000000
    Total Energy =                       -306.9729702921877674
    Molecular point group: c1
  Basis Set: 6-31G*
  Basis Set:

  -Total Gradient:
     Atom            X                  Y                   Z
    ------   -----------------  -----------------  -----------------
       1       -0.000005533250     0.000013440318     0.000005952519
       2        0.002112786500    -0.001938973566     0.000814852111
       3       -0.003267530765     0.003649612582    -0.002323430120
       4       -0.000002080197    -0.000007127064     0.000046048651
       5       -0.000040477336    -0.000006054229     0.000030674883
       6        0.001788204094    -0.003208527455     0.003602067933
       7       -0.000511210606     0.001450300233    -0.002159964631
       8       -0.000025528581    -0.000005687682     0.000002178926
       9       -0.000043225498    -0.000011691307     0.000001873954
      10       -0.000003883571     0.000072019465    -0.000017297994
      11        0.000003302303     0.000008836760    -0.000011493638
      12        0.000009147734     0.000000132232     0.000010587711
      13        0.000015003734    -0.000014879258    -0.000002019524
      14       -0.000005790590     0.000003919433    -0.000001123666
      15       -0.000025211553    -0.000000085678    -0.000000012804
      16        0.000002027587    -0.000005234784     0.000001105691

  **** Optimization is complete! (in 7 steps) ****
    Final optimized geometry and variables:
    Molecular point group: c1

    Geometry (in Angstrom), charge = 0, multiplicity = 1:

    H           -1.568914469359     0.231896703450    -2.038963493346
    C           -1.481461888949    -0.611793646982    -1.355012437021
    O           -1.727292088880    -0.240192270008    -0.034951371420
    H           -2.234110206712    -1.342691455228    -1.617313331800
    H           -0.502371221293    -1.062361497339    -1.471531155353
    C           -0.971481119795     0.803442159384     0.501110520483
    C            0.500246376065     0.834528475656     0.130746512111
    H           -1.399797132163     1.761577623593     0.201305045490
    H           -1.064581689076     0.717307354454     1.575209607979
    O            1.116720211757    -0.341892577143     0.548907170684
    H            0.635996553427     0.975367332165    -0.940082602613
    H            0.946739565241     1.698694595920     0.624276945143
    C            2.483634847412    -0.394662206977     0.289416666859
    H            2.690633529882    -0.318684559278    -0.776660822038
    H            3.016964460824     0.404202786618     0.801441278812
    H            2.847869015817    -1.346538261057     0.649919866588

  Mulliken Charges: (a.u.)
   Center  Symbol    Alpha    Beta     Spin     Total
       1     H     0.43479  0.43479  0.00000  0.13041
       2     C     3.08417  3.08417  0.00000 -0.16835
       3     O     4.30404  4.30404  0.00000 -0.60809
       4     H     0.41185  0.41185  0.00000  0.17631
       5     H     0.41955  0.41955  0.00000  0.16090
       6     C     2.98451  2.98451  0.00000  0.03097
       7     C     3.01626  3.01626  0.00000 -0.03252
       8     H     0.43221  0.43221  0.00000  0.13559
       9     H     0.40965  0.40965  0.00000  0.18070
      10     O     4.29909  4.29909  0.00000 -0.59817
      11     H     0.42820  0.42820  0.00000  0.14360
      12     H     0.42633  0.42633  0.00000  0.14734
      13     C     3.08060  3.08060  0.00000 -0.16120
      14     H     0.43013  0.43013  0.00000  0.13974
      15     H     0.42916  0.42916  0.00000  0.14168
      16     H     0.40946  0.40946  0.00000  0.18108

   Total alpha = 25.00000, Total beta = 25.00000, Total charge = -0.00000
