                              Psi4 1.0.54 Driver

  ==> Input File <==

--------------------------------------------------------------------------
set {
	reference rhf
	basis cc-pvtz
}

set_num_threads( 4 )
memory 2 gb

molecule MOL {
0 1

H	 -2.816458	 -0.841657	 -0.064679
N	 -1.878861	 -0.711874	 0.250184
C	 -1.341419	 0.551458	 -0.220231
H	 -1.333674	 -1.468530	 -0.105118
C	 0.082190	 0.731516	 0.254705
H	 -1.357065	 0.652078	 -1.304747
H	 -1.939897	 1.357530	 0.189797
O	 0.881195	 -0.248324	 -0.336237
H	 0.440901	 1.722476	 -0.020063
H	 0.119896	 0.643586	 1.338114
C	 2.083354	 -0.483491	 0.318537
H	 2.613692	 -1.251494	 -0.225796
H	 2.700830	 0.411734	 0.349993
H	 1.920896	 -0.825098	 1.338084

	symmetry c1
}
set optking {
	frozen_dihedral = ("
		11 8 5 3
	")
}

ee,wfn = optimize('scf', return_wfn=True)
oeprop( wfn, 'DIPOLE', 'QUADRUPOLE', 'MULLIKEN_CHARGES')
f=open( 'psi4out.xyz', 'w' )
f.write( "14  " )
f.write( str(ee) + "\n" )
f.write( MOL.save_string_xyz() )
f.close()
--------------------------------------------------------------------------

    Molecular point group: c1
  Charge       = 0
  Multiplicity = 1
  Basis Set: CC-PVTZ
  Basis Set:
  @DF-RHF Final Energy:  -248.22551831087824
    Total Energy =                       -248.2255183108781011
    Molecular point group: c1
  Basis Set: CC-PVTZ
  Basis Set:
  Basis Set: CC-PVTZ
  Basis Set:
  @DF-RHF Final Energy:  -248.22554952281880
    Total Energy =                       -248.2255495228188238
  Basis Set: CC-PVTZ
  Basis Set:
  Basis Set: CC-PVTZ
  Basis Set:
  @DF-RHF Final Energy:  -248.22555517015704
    Total Energy =                       -248.2255551701565537
  Basis Set: CC-PVTZ
  Basis Set:
  Charge       = 0
  Multiplicity = 1
  Basis Set: CC-PVTZ
  Basis Set:

    Orbital Energies (a.u.)
    -----------------------

    Doubly Occupied:

       1A    -20.549878     2A    -15.524177     3A    -11.263588
       4A    -11.263224     5A    -11.239862     6A     -1.383233
       7A     -1.176498     8A     -1.000532     9A     -0.907299
      10A     -0.815655    11A     -0.686277    12A     -0.674041
      13A     -0.647184    14A     -0.614304    15A     -0.605609
      16A     -0.541694    17A     -0.530517    18A     -0.498512
      19A     -0.474037    20A     -0.419423    21A     -0.384237

  @DF-RHF Final Energy:  -248.22555545644079

   => Energetics <=

    Nuclear Repulsion Energy =            195.0372666027037383
    One-Electron Energy =                -724.1260873182361593
    Two-Electron Energy =                 280.8632652590912926
    DFT Exchange-Correlation Energy =       0.0000000000000000
    Empirical Dispersion Energy =           0.0000000000000000
    PCM Polarization Energy =               0.0000000000000000
    EFP Energy =                            0.0000000000000000
    Total Energy =                       -248.2255554564411000
    Molecular point group: c1
  Basis Set: CC-PVTZ
  Basis Set:

  -Total Gradient:
     Atom            X                  Y                   Z
    ------   -----------------  -----------------  -----------------
       1       -0.000001641374    -0.000013931839    -0.000009940813
       2        0.000015260121     0.000011878330    -0.000000179883
       3       -0.000272807754    -0.000918086811     0.001193079977
       4       -0.000001642166    -0.000021365356    -0.000008775740
       5        0.000063567660     0.000761285896    -0.001198646324
       6       -0.000004071872    -0.000005885350     0.000001503466
       7        0.000010305268     0.000023525496    -0.000000658809
       8        0.000972592543     0.001374217288    -0.000938814355
       9        0.000002680835    -0.000009477692     0.000003898331
      10       -0.000008668368    -0.000007342253     0.000000670341
      11       -0.000759202470    -0.001204808509     0.000973198583
      12        0.000001526585     0.000001902477    -0.000008164518
      13       -0.000017318931    -0.000000448278    -0.000008237556
      14       -0.000000580076     0.000008536602     0.000001067297

  **** Optimization is complete! (in 4 steps) ****
    Final optimized geometry and variables:
    Molecular point group: c1

    Geometry (in Angstrom), charge = 0, multiplicity = 1:

    H           -2.792906751201    -0.788977294437    -0.100621990014
    N           -1.849745099752    -0.662515883954     0.198607878255
    C           -1.318519883037     0.602233902911    -0.274827284105
    H           -1.312770853333    -1.417354766049    -0.172642622582
    C            0.105026925797     0.786874384787     0.200142462139
    H           -1.337557144570     0.700382815084    -1.359646102001
    H           -1.919208103752     1.407454657252     0.133806766421
    O            0.908916485406    -0.195083577220    -0.383852086842
    H            0.467954189175     1.776949183838    -0.069781110423
    H            0.131306894039     0.697663971774     1.283100100443
    C            2.113188527375    -0.429293961091     0.268662555506
    H            2.643026162199    -1.195213481257    -0.279309083538
    H            2.731977740298     0.465146598534     0.300893494513
    H            1.951498961320    -0.773050750668     1.287024651716

  Mulliken Charges: (a.u.)
   Center  Symbol    Alpha    Beta     Spin     Total
       1     H     0.42997  0.42997  0.00000  0.14006
       2     N     3.69503  3.69503  0.00000 -0.39006
       3     C     3.02325  3.02325  0.00000 -0.04650
       4     H     0.42253  0.42253  0.00000  0.15494
       5     C     2.96967  2.96967  0.00000  0.06066
       6     H     0.46407  0.46407  0.00000  0.07186
       7     H     0.45823  0.45823  0.00000  0.08354
       8     O     4.18262  4.18262  0.00000 -0.36524
       9     H     0.46545  0.46545  0.00000  0.06911
      10     H     0.46978  0.46978  0.00000  0.06043
      11     C     3.03276  3.03276  0.00000 -0.06552
      12     H     0.44836  0.44836  0.00000  0.10329
      13     H     0.47021  0.47021  0.00000  0.05958
      14     H     0.46808  0.46808  0.00000  0.06384

   Total alpha = 21.00000, Total beta = 21.00000, Total charge = -0.00000

*** Psi4 exiting successfully. Buy a developer a beer!
