                              Psi4 1.0.54 Driver

  ==> Input File <==

--------------------------------------------------------------------------
set {
	reference rhf
	basis cc-pvtz
}

set_num_threads( 4 )
memory 2 gb

molecule MOL {
0 1

O	 1.479706	 0.328911	 -1.025821
C	 0.860843	 0.273204	 -0.013120
C	 -0.623368	 -0.117453	 -0.005652
C	 1.540746	 0.599361	 1.301937
C	 -0.892588	 -1.253841	 -1.002900
C	 -1.473463	 1.100646	 -0.372896
C	 -0.981836	 -0.579025	 1.418506
H	 -0.609333	 -0.970024	 -2.010649
H	 -1.950451	 -1.487353	 -1.013175
H	 -0.360848	 -2.161259	 -0.746463
H	 -1.232203	 1.461623	 -1.364827
H	 -2.524364	 0.834451	 -0.354500
H	 -1.312381	 1.914833	 0.318657
H	 -2.035706	 -0.826342	 1.468082
H	 -0.425078	 -1.458934	 1.716857
H	 -0.788494	 0.205047	 2.140903
H	 1.782580	 -0.324028	 1.816361
H	 2.456695	 1.131558	 1.096335
H	 0.913012	 1.184338	 1.959954

	symmetry c1
}
set optking {
	frozen_dihedral = ("
		1 2 3 5
	")
}

ee,wfn = optimize('scf', return_wfn=True)
oeprop( wfn, 'DIPOLE', 'QUADRUPOLE', 'MULLIKEN_CHARGES')
f=open( 'psi4out.xyz', 'w' )
f.write( "19  " )
f.write( str(ee) + "\n" )
f.write( MOL.save_string_xyz() )
f.close()
--------------------------------------------------------------------------

    Molecular point group: c1
  Charge       = 0
  Multiplicity = 1
  Basis Set: CC-PVTZ
  Basis Set:
  @DF-RHF Final Energy:  -309.16968193145880
    Total Energy =                       -309.1696819314589675
    Molecular point group: c1
  Basis Set: CC-PVTZ
  Basis Set:
  Basis Set: CC-PVTZ
  Basis Set:
  @DF-RHF Final Energy:  -309.17024963508459
    Total Energy =                       -309.1702496350844740
  Basis Set: CC-PVTZ
  Basis Set:
  Basis Set: CC-PVTZ
  Basis Set:
  @DF-RHF Final Energy:  -309.17278201028887
    Total Energy =                       -309.1727820102889837
  Basis Set: CC-PVTZ
  Basis Set:
  Basis Set: CC-PVTZ
  Basis Set:
  @DF-RHF Final Energy:  -309.17326946820543
    Total Energy =                       -309.1732694682054898
  Basis Set: CC-PVTZ
  Basis Set:
  @DF-RHF Final Energy:  -309.17335953571774
    Total Energy =                       -309.1733595357175091
  @DF-RHF Final Energy:  -309.17340395282423
    Total Energy =                       -309.1734039528240601
  @DF-RHF Final Energy:  -309.17348137863274
    Total Energy =                       -309.1734813786323457
  Basis Set: CC-PVTZ
  Basis Set:
  @DF-RHF Final Energy:  -309.17349080151985
    Total Energy =                       -309.1734908015200745
  Basis Set: CC-PVTZ
  Basis Set:
  Basis Set: CC-PVTZ
  Basis Set:
  @DF-RHF Final Energy:  -309.17347600490291
    Total Energy =                       -309.1734760049032502
  Basis Set: CC-PVTZ
  Basis Set:
  Basis Set: CC-PVTZ
  Basis Set:
  @DF-RHF Final Energy:  -309.17348897335626
    Total Energy =                       -309.1734889733563136
  Basis Set: CC-PVTZ
  Basis Set:
  Charge       = 0
  Multiplicity = 1
  Basis Set: CC-PVTZ
  Basis Set:

    Orbital Energies (a.u.)
    -----------------------

    Doubly Occupied:

       1A    -20.536622     2A    -11.318317     3A    -11.245603
       4A    -11.225902     5A    -11.220253     6A    -11.219524
       7A    -11.209524     8A     -1.398277     9A     -1.109669
      10A     -1.004336    11A     -0.945074    12A     -0.937855
      13A     -0.834468    14A     -0.705665    15A     -0.666802
      16A     -0.633877    17A     -0.623596    18A     -0.591708
      19A     -0.588398    20A     -0.571072    21A     -0.550470
      22A     -0.546608    23A     -0.524735    24A     -0.514327
      25A     -0.503277    26A     -0.472498    27A     -0.464505
      28A     -0.393869

  @DF-RHF Final Energy:  -309.17349565971483

   => Energetics <=

    Nuclear Repulsion Energy =            326.8605269889002329
    One-Electron Energy =               -1066.9543840926087341
    Two-Electron Energy =                 430.9203614439935563
    DFT Exchange-Correlation Energy =       0.0000000000000000
    Empirical Dispersion Energy =           0.0000000000000000
    PCM Polarization Energy =               0.0000000000000000
    EFP Energy =                            0.0000000000000000
    Total Energy =                       -309.1734956597149448
    Molecular point group: c1
  Basis Set: CC-PVTZ
  Basis Set:

  -Total Gradient:
     Atom            X                  Y                   Z
    ------   -----------------  -----------------  -----------------
       1       -0.000353935077     0.001344102016    -0.000087432691
       2        0.000569179848    -0.002099869251     0.000357154510
       3       -0.000406966921     0.001390469025    -0.000961087499
       4        0.000006122798     0.000023457860    -0.000024128006
       5        0.000216849548    -0.000662206290     0.000718494250
       6        0.000016776837    -0.000016862775     0.000020299625
       7        0.000006563891     0.000005189195    -0.000002093721
       8       -0.000004672801     0.000005273581    -0.000015221792
       9       -0.000009670367    -0.000006847244    -0.000003066509
      10        0.000000605143    -0.000022368701    -0.000006389155
      11        0.000017566210     0.000023109329    -0.000071398732
      12       -0.000071939829    -0.000018508650     0.000001107146
      13        0.000015879743     0.000054811056     0.000046669704
      14       -0.000013368622    -0.000007024003    -0.000000362969
      15        0.000004758193    -0.000004729116     0.000008180552
      16       -0.000007648368    -0.000003101311    -0.000004182501
      17        0.000000857376    -0.000006847993     0.000008961025
      18        0.000003342634     0.000001501887     0.000008967325
      19        0.000009699762     0.000000451387     0.000005529442

  **** Optimization is complete! (in 11 steps) ****
    Final optimized geometry and variables:
    Molecular point group: c1

    Geometry (in Angstrom), charge = 0, multiplicity = 1:

    O            1.446273961221     0.280272549502    -1.098208391453
    C            0.880264704947     0.205490243587    -0.055793301504
    C           -0.608094056654    -0.181757997437    -0.011214992166
    C            1.604848398096     0.557736638465     1.225050667798
    C           -0.862019535211    -1.287751197152    -1.041807873210
    C           -1.396209642428     1.082483435212    -0.395548753015
    C           -1.059228022275    -0.667666943444     1.371605011826
    H           -0.556626405388    -0.976954354387    -2.029623521931
    H           -1.917139700779    -1.535986019823    -1.065991905932
    H           -0.312967369225    -2.188502070007    -0.790614038566
    H           -1.117063874541     1.423213078777    -1.383732035177
    H           -2.459481893358     0.871585934374    -0.392309246746
    H           -1.219013278948     1.892353215758     0.304659342266
    H           -2.107137991744    -0.940266190080     1.335012603104
    H           -0.506606923713    -1.545016930572     1.688417395916
    H           -0.949127682602     0.093278996139     2.133837516470
    H            1.663172919978    -0.302657348048     1.880514048278
    H            2.600482057063     0.893490137614     0.980509919332
    H            1.079143166986     1.337766395936     1.762965096676

  Mulliken Charges: (a.u.)
   Center  Symbol    Alpha    Beta     Spin     Total
       1     O     4.18028  4.18028  0.00000 -0.36056
       2     C     2.84768  2.84768  0.00000  0.30463
       3     C     3.00621  3.00621  0.00000 -0.01242
       4     C     3.16412  3.16412  0.00000 -0.32824
       5     C     3.15289  3.15289  0.00000 -0.30578
       6     C     3.15407  3.15407  0.00000 -0.30814
       7     C     3.16575  3.16575  0.00000 -0.33150
       8     H     0.43502  0.43502  0.00000  0.12995
       9     H     0.45124  0.45124  0.00000  0.09753
      10     H     0.44996  0.44996  0.00000  0.10007
      11     H     0.43822  0.43822  0.00000  0.12355
      12     H     0.44797  0.44797  0.00000  0.10406
      13     H     0.44872  0.44872  0.00000  0.10256
      14     H     0.44259  0.44259  0.00000  0.11481
      15     H     0.44485  0.44485  0.00000  0.11030
      16     H     0.44561  0.44561  0.00000  0.10879
      17     H     0.44662  0.44662  0.00000  0.10676
      18     H     0.43172  0.43172  0.00000  0.13657
      19     H     0.44647  0.44647  0.00000  0.10706

   Total alpha = 28.00000, Total beta = 28.00000, Total charge = -0.00000

*** Psi4 exiting successfully. Buy a developer a beer!
