                              Psi4 1.0.54 Driver

  ==> Input File <==

--------------------------------------------------------------------------
set {
	reference rhf
	basis cc-pvtz
}

set_num_threads( 4 )
memory 2 gb

molecule MOL {
0 1

O	 0.749630	 1.305591	 -0.000460
C	 0.576499	 0.134701	 -0.003900
C	 -0.765656	 -0.550508	 -0.002152
O	 1.564816	 -0.744612	 -0.000631
C	 -1.945526	 0.411052	 0.000603
H	 -0.794329	 -1.203792	 -0.868145
H	 -0.791555	 -1.205429	 0.862701
C	 -3.282915	 -0.321280	 0.002596
H	 -1.880300	 1.059126	 -0.864925
H	 -1.877207	 1.057892	 0.866807
H	 -3.388495	 -0.952755	 -0.873419
H	 -4.107811	 0.380864	 0.004116
H	 -3.385717	 -0.953283	 0.878571
C	 1.330086	 -1.987088	 -0.632427
H	 0.509463	 -2.505900	 -0.159706
H	 2.240941	 -2.552781	 -0.522772
H	 1.102299	 -1.845763	 -1.678458

	symmetry c1
}
set optking {
	frozen_dihedral = ("
		14 4 2 1
	")
}

ee,wfn = optimize('scf', return_wfn=True)
oeprop( wfn, 'DIPOLE', 'QUADRUPOLE', 'MULLIKEN_CHARGES')
f=open( 'psi4out.xyz', 'w' )
f.write( "17  " )
f.write( str(ee) + "\n" )
f.write( MOL.save_string_xyz() )
f.close()
--------------------------------------------------------------------------

    Molecular point group: c1
  Charge       = 0
  Multiplicity = 1
  Basis Set: CC-PVTZ
  Basis Set:
  @DF-RHF Final Energy:  -345.01119999917080
    Total Energy =                       -345.0111999991709126
    Molecular point group: c1
  Basis Set: CC-PVTZ
  Basis Set:
  Basis Set: CC-PVTZ
  Basis Set:
  @DF-RHF Final Energy:  -344.79139539117773
    Total Energy =                       -344.7913953911779004
  Basis Set: CC-PVTZ
  Basis Set:
  Basis Set: CC-PVTZ
  Basis Set:
  @DF-RHF Final Energy:  -344.92592285344909
    Total Energy =                       -344.9259228534491513
  Basis Set: CC-PVTZ
  Basis Set:
  Basis Set: CC-PVTZ
  Basis Set:
  @DF-RHF Final Energy:  -345.00820441360685
    Total Energy =                       -345.0082044136067339
  Basis Set: CC-PVTZ
  Basis Set:
  @DF-RHF Final Energy:  -345.01768565807390
    Total Energy =                       -345.0176856580740719
  @DF-RHF Final Energy:  -345.01928109787997
    Total Energy =                       -345.0192810978801390
  Basis Set: CC-PVTZ
  Basis Set:
  @DF-RHF Final Energy:  -345.01898738751669
    Total Energy =                       -345.0189873875170861
  Basis Set: CC-PVTZ
  Basis Set:
  Basis Set: CC-PVTZ
  Basis Set:
  @DF-RHF Final Energy:  -345.01954304044688
    Total Energy =                       -345.0195430404471040
  Basis Set: CC-PVTZ
  Basis Set:
  Basis Set: CC-PVTZ
  Basis Set:
  @DF-RHF Final Energy:  -345.01955864507045
    Total Energy =                       -345.0195586450702763
  Basis Set: CC-PVTZ
  Basis Set:
  Charge       = 0
  Multiplicity = 1
  Basis Set: CC-PVTZ
  Basis Set:

    Orbital Energies (a.u.)
    -----------------------

    Doubly Occupied:

       1A    -20.591242     2A    -20.532472     3A    -11.366795
       4A    -11.293157     5A    -11.243263     6A    -11.224310
       7A    -11.216821     8A     -1.464968     9A     -1.369021
      10A     -1.083762    11A     -0.989702    12A     -0.968236
      13A     -0.839389    14A     -0.767379    15A     -0.705154
      16A     -0.689126    17A     -0.676575    18A     -0.641874
      19A     -0.607870    20A     -0.580877    21A     -0.571058
      22A     -0.546902    23A     -0.527895    24A     -0.497890
      25A     -0.491825    26A     -0.484420    27A     -0.453799
      28A     -0.435684

  @DF-RHF Final Energy:  -345.01955911411380

   => Energetics <=

    Nuclear Repulsion Energy =            314.4491519352237674
    One-Electron Energy =               -1093.2144917224488836
    Two-Electron Energy =                 433.7457806731114260
    DFT Exchange-Correlation Energy =       0.0000000000000000
    Empirical Dispersion Energy =           0.0000000000000000
    PCM Polarization Energy =               0.0000000000000000
    EFP Energy =                            0.0000000000000000
    Total Energy =                       -345.0195591141136902
    Molecular point group: c1
  Basis Set: CC-PVTZ
  Basis Set:

  -Total Gradient:
     Atom            X                  Y                   Z
    ------   -----------------  -----------------  -----------------
       1       -0.000810281694    -0.000748267525    -0.003048099884
       2        0.001122174298     0.001344202132     0.002860888111
       3        0.000040873195     0.000034233307    -0.000010622832
       4       -0.000239844196    -0.001316405989     0.002931455885
       5       -0.000040597793    -0.000054419025    -0.000009859145
       6       -0.000006671058     0.000008279639     0.000017753298
       7        0.000010344644    -0.000008793669     0.000001066303
       8        0.000024292459     0.000039612669    -0.000014326790
       9       -0.000005534476     0.000004490036     0.000002411197
      10        0.000003748446    -0.000013854283    -0.000007523360
      11        0.000013703246     0.000000979917     0.000001363592
      12        0.000005692055     0.000004604377     0.000005495258
      13        0.000006400317    -0.000004781663    -0.000007673260
      14       -0.000132347852     0.000681890110    -0.002727614642
      15        0.000011381779     0.000001276307     0.000012954813
      16       -0.000009558144     0.000048652663     0.000016124555
      17        0.000006224773    -0.000021699003    -0.000023793099

  **** Optimization is complete! (in 10 steps) ****
    Final optimized geometry and variables:
    Molecular point group: c1

    Geometry (in Angstrom), charge = 0, multiplicity = 1:

    O            0.615475115553     1.596094761011    -0.513487854588
    C            0.668954174706     0.446609875392    -0.262027658601
    C           -0.497167935386    -0.345365084363     0.287270993581
    O            1.819704987022    -0.208365493753    -0.438029017640
    C           -1.713726175178     0.516391791996     0.598583519414
    H           -0.759235895805    -1.116373094452    -0.430655908034
    H           -0.157753695365    -0.867026315948     1.177025784071
    C           -2.871840864680    -0.305486685678     1.153425674960
    H           -2.022347676337     1.033614952476    -0.300864572470
    H           -1.432593170106     1.285825999151     1.306815384385
    H           -3.194438007936    -1.062842148023     0.446215794941
    H           -3.724196715506     0.327095803695     1.369259151565
    H           -2.594669553878    -0.809947589158     2.073368001864
    C            1.857282670639    -1.574570922056    -0.766525482186
    H            1.487226245537    -2.197745557827     0.036900259765
    H            2.894401749313    -1.809823008048    -0.941377286814
    H            1.295316588454    -1.775618695667    -1.669977144845

  Mulliken Charges: (a.u.)
   Center  Symbol    Alpha    Beta     Spin     Total
       1     O     4.17613  4.17613  0.00000 -0.35226
       2     C     2.80394  2.80394  0.00000  0.39212
       3     C     3.12772  3.12772  0.00000 -0.25543
       4     O     4.13511  4.13511  0.00000 -0.27021
       5     C     3.08081  3.08081  0.00000 -0.16161
       6     H     0.44318  0.44318  0.00000  0.11363
       7     H     0.43876  0.43876  0.00000  0.12247
       8     C     3.15021  3.15021  0.00000 -0.30042
       9     H     0.44354  0.44354  0.00000  0.11292
      10     H     0.44420  0.44420  0.00000  0.11161
      11     H     0.45667  0.45667  0.00000  0.08665
      12     H     0.44419  0.44419  0.00000  0.11162
      13     H     0.45618  0.45618  0.00000  0.08765
      14     C     3.04635  3.04635  0.00000 -0.09270
      15     H     0.46074  0.46074  0.00000  0.07851
      16     H     0.43391  0.43391  0.00000  0.13217
      17     H     0.45836  0.45836  0.00000  0.08328

   Total alpha = 28.00000, Total beta = 28.00000, Total charge =  0.00000

*** Psi4 exiting successfully. Buy a developer a beer!
