                              Psi4 1.0.54 Driver

  ==> Input File <==

--------------------------------------------------------------------------
set {
	reference rhf
	basis cc-pvtz
}

set_num_threads( 4 )
memory 2 gb

molecule MOL {
0 1

O	 -1.964322	 -0.584757	 0.431779
C	 -1.081510	 0.147522	 0.122720
C	 0.327029	 -0.064006	 0.641890
C	 -1.315763	 1.332685	 -0.783251
C	 1.349460	 -0.017068	 -0.500215
H	 0.399029	 -1.014606	 1.159950
H	 0.538021	 0.726928	 1.350471
C	 2.779782	 -0.209014	 -0.009215
H	 1.115007	 -0.782959	 -1.233891
H	 1.259071	 0.936707	 -1.006644
H	 3.481860	 -0.160270	 -0.833072
H	 2.903471	 -1.171535	 0.475559
H	 3.052569	 0.559584	 0.705428
H	 -0.901859	 2.235206	 -0.347480
H	 -2.372062	 1.459610	 -0.963859
H	 -0.803863	 1.168251	 -1.725998

	symmetry c1
}
set optking {
	frozen_dihedral = ("
		4 2 3 5
	")
}

ee,wfn = optimize('scf', return_wfn=True)
oeprop( wfn, 'DIPOLE', 'QUADRUPOLE', 'MULLIKEN_CHARGES')
f=open( 'psi4out.xyz', 'w' )
f.write( "16  " )
f.write( str(ee) + "\n" )
f.write( MOL.save_string_xyz() )
f.close()
--------------------------------------------------------------------------

    Molecular point group: c1
  Charge       = 0
  Multiplicity = 1
  Basis Set: CC-PVTZ
  Basis Set:
  @DF-RHF Final Energy:  -270.12719952568716
    Total Energy =                       -270.1271995256874447
    Molecular point group: c1
  Basis Set: CC-PVTZ
  Basis Set:
  Basis Set: CC-PVTZ
  Basis Set:
  @DF-RHF Final Energy:  -270.11437345600609
    Total Energy =                       -270.1143734560062626
  Basis Set: CC-PVTZ
  Basis Set:
  Basis Set: CC-PVTZ
  Basis Set:
  @DF-RHF Final Energy:  -270.12855302368496
    Total Energy =                       -270.1285530236852424
  Basis Set: CC-PVTZ
  Basis Set:
  Basis Set: CC-PVTZ
  Basis Set:
  @DF-RHF Final Energy:  -270.12850551694430
    Total Energy =                       -270.1285055169444718
  Basis Set: CC-PVTZ
  Basis Set:
  @DF-RHF Final Energy:  -270.12841567643335
    Total Energy =                       -270.1284156764331215
  @DF-RHF Final Energy:  -270.12877201227360
    Total Energy =                       -270.1287720122735436
  Basis Set: CC-PVTZ
  Basis Set:
  @DF-RHF Final Energy:  -270.12861892662505
    Total Energy =                       -270.1286189266252222
  Basis Set: CC-PVTZ
  Basis Set:
  Basis Set: CC-PVTZ
  Basis Set:
  @DF-RHF Final Energy:  -270.12878517910701
    Total Energy =                       -270.1287851791070693
  Basis Set: CC-PVTZ
  Basis Set:
  Basis Set: CC-PVTZ
  Basis Set:
  @DF-RHF Final Energy:  -270.12878896795456
    Total Energy =                       -270.1287889679545060
  Basis Set: CC-PVTZ
  Basis Set:
  Charge       = 0
  Multiplicity = 1
  Basis Set: CC-PVTZ
  Basis Set:

    Orbital Energies (a.u.)
    -----------------------

    Doubly Occupied:

       1A    -20.537451     2A    -11.319997     3A    -11.233566
       4A    -11.229318     5A    -11.226717     6A    -11.219497
       7A     -1.397316     8A     -1.086760     9A     -1.011302
      10A     -0.952389    11A     -0.834441    12A     -0.735716
      13A     -0.659990    14A     -0.652986    15A     -0.622695
      16A     -0.605561    17A     -0.578381    18A     -0.553398
      19A     -0.536935    20A     -0.522314    21A     -0.507090
      22A     -0.487855    23A     -0.477353    24A     -0.400885

  @DF-RHF Final Energy:  -270.12878917792710

   => Energetics <=

    Nuclear Repulsion Energy =            237.3778470987410287
    One-Electron Energy =                -836.2334388538644134
    Two-Electron Energy =                 328.7268025771962812
    DFT Exchange-Correlation Energy =       0.0000000000000000
    Empirical Dispersion Energy =           0.0000000000000000
    PCM Polarization Energy =               0.0000000000000000
    EFP Energy =                            0.0000000000000000
    Total Energy =                       -270.1287891779271604
    Molecular point group: c1
  Basis Set: CC-PVTZ
  Basis Set:

  -Total Gradient:
     Atom            X                  Y                   Z
    ------   -----------------  -----------------  -----------------
       1       -0.000038621421    -0.000005087671     0.000019637519
       2       -0.000005260641     0.000927220461     0.000462494738
       3       -0.000123450007    -0.000977040543    -0.000050847056
       4        0.000013972337    -0.000514022857    -0.000367228508
       5        0.000105794572     0.000538572703    -0.000078801182
       6       -0.000002810513    -0.000015775526     0.000010131450
       7        0.000012094308     0.000010770519     0.000007681320
       8        0.000019225985     0.000001442898    -0.000002537568
       9       -0.000022720608    -0.000034241946    -0.000014998101
      10       -0.000008683623     0.000032301356    -0.000028817998
      11        0.000002202657    -0.000002621676    -0.000005080649
      12        0.000006529430    -0.000029430618     0.000022635991
      13        0.000020252521     0.000026271763     0.000017821419
      14        0.000013232979     0.000020104038     0.000019886140
      15       -0.000008099084     0.000010416647     0.000000638147
      16        0.000016341103     0.000011120451    -0.000012615662

  **** Optimization is complete! (in 10 steps) ****
    Final optimized geometry and variables:
    Molecular point group: c1

    Geometry (in Angstrom), charge = 0, multiplicity = 1:

    O           -2.011527896717    -0.281862689865     0.692021160863
    C           -1.092550916864     0.226956031374     0.136882614574
    C            0.328270253749     0.010812955880     0.619593935052
    C           -1.307458127937     1.117595988738    -1.066340228380
    C            1.328248736557    -0.397593422833    -0.464590970340
    H            0.287151251563    -0.734632089327     1.402219486289
    H            0.657216262085     0.942812033784     1.075399673212
    C            2.714777461262    -0.671247346481     0.108392597071
    H            0.966810335149    -1.287675570165    -0.971284365496
    H            1.400574302105     0.379600049160    -1.217342719023
    H            3.407923920121    -0.960078392190    -0.672640709309
    H            2.684560380495    -1.471903878330     0.838863789877
    H            3.115488426370     0.209364208700     0.599121346732
    H           -0.718265482635     2.024483073265    -0.992976209751
    H           -2.355323327330     1.361839019804    -1.148815566656
    H           -0.993510055902     0.597962333548    -1.964735990006

  Mulliken Charges: (a.u.)
   Center  Symbol    Alpha    Beta     Spin     Total
       1     O     4.17174  4.17174  0.00000 -0.34349
       2     C     2.85797  2.85797  0.00000  0.28406
       3     C     3.09692  3.09692  0.00000 -0.19383
       4     C     3.16435  3.16435  0.00000 -0.32871
       5     C     3.09688  3.09688  0.00000 -0.19377
       6     H     0.43823  0.43823  0.00000  0.12354
       7     H     0.44866  0.44866  0.00000  0.10267
       8     C     3.14896  3.14896  0.00000 -0.29792
       9     H     0.44648  0.44648  0.00000  0.10704
      10     H     0.45078  0.45078  0.00000  0.09844
      11     H     0.44611  0.44611  0.00000  0.10777
      12     H     0.45069  0.45069  0.00000  0.09863
      13     H     0.45432  0.45432  0.00000  0.09136
      14     H     0.44881  0.44881  0.00000  0.10239
      15     H     0.43213  0.43213  0.00000  0.13574
      16     H     0.44696  0.44696  0.00000  0.10608

   Total alpha = 24.00000, Total beta = 24.00000, Total charge =  0.00000

*** Psi4 exiting successfully. Buy a developer a beer!
