  ==> Input File <==

--------------------------------------------------------------------------
set {
	reference rhf
	basis 6-31G*
}

set_num_threads( 1 )
memory 2 gb

molecule MOL {
0 1

H	 1.359120	 0.200863	 -1.909744
C	 1.154006	 1.018825	 -1.208555
C	 0.692068	 0.589600	 0.160137
O	 1.300212	 2.147797	 -1.549400
C	 -0.558097	 -0.297372	 0.091132
H	 0.513494	 1.479067	 0.752960
H	 1.504464	 0.032212	 0.625071
C	 -1.850991	 0.512573	 -0.019058
H	 -0.476753	 -0.965681	 -0.762987
H	 -0.604799	 -0.930658	 0.975228
C	 -3.096943	 -0.368295	 -0.099594
H	 -1.800724	 1.150330	 -0.898172
H	 -1.931651	 1.177355	 0.838044
H	 -3.060452	 -1.020287	 -0.967456
H	 -3.996858	 0.233488	 -0.175704
H	 -3.191959	 -0.995686	 0.782074

	symmetry c1
}
set optking {
	frozen_dihedral = ("
		9 5 8 12,
		4 2 3 6
	")
}

ee = energy('scf')
oeprop('DIPOLE', 'QUADRUPOLE', 'MULLIKEN_CHARGES')
f=open( 'psi4out.xyz', 'w' )
f.write( "16  " )
f.write( str(ee) + "\n" )
f.write( MOL.save_string_xyz() )
f.close()
--------------------------------------------------------------------------

    Molecular point group: c1

    Geometry (in Angstrom), charge = 0, multiplicity = 1:

       Center              X                  Y                   Z               Mass
    ------------   -----------------  -----------------  -----------------  -----------------
           H          1.764592092783    -0.405384365615    -1.463144195869     1.007825032070
           C          1.559478092783     0.412577634385    -0.761955195869    12.000000000000
           C          1.097540092783    -0.016647365615     0.606736804131    12.000000000000
           O          1.705684092783     1.541549634385    -1.102800195869    15.994914619560
           C         -0.152624907217    -0.903619365615     0.537731804131    12.000000000000
           H          0.918966092783     0.872819634385     1.199559804131     1.007825032070
           H          1.909936092783    -0.574035365615     1.071670804131     1.007825032070
           C         -1.445518907217    -0.093674365615     0.427541804131    12.000000000000
           H         -0.071280907217    -1.571928365615    -0.316387195869     1.007825032070
           H         -0.199326907217    -1.536905365615     1.421827804131     1.007825032070
           C         -2.691470907217    -0.974542365615     0.347005804131    12.000000000000
           H         -1.395251907217     0.544082634385    -0.451572195869     1.007825032070
           H         -1.526178907217     0.571107634385     1.284643804131     1.007825032070
           H         -2.654979907217    -1.626534365615    -0.520856195869     1.007825032070
           H         -3.591385907217    -0.372759365615     0.270895804131     1.007825032070
           H         -2.786486907217    -1.601933365615     1.228673804131     1.007825032070

  Charge       = 0
  Multiplicity = 1
  Basis Set: 6-31G*
  Basis Set:

    Orbital Energies (a.u.)
    -----------------------

    Doubly Occupied:

       1A    -20.563068     2A    -11.326941     3A    -11.235788
       4A    -11.234816     5A    -11.225943     6A    -11.216526
       7A     -1.402905     8A     -1.096187     9A     -1.016652
      10A     -0.904288    11A     -0.816061    12A     -0.792047
      13A     -0.668006    14A     -0.656516    15A     -0.613222
      16A     -0.609596    17A     -0.590489    18A     -0.540920
      19A     -0.526064    20A     -0.523082    21A     -0.486458
      22A     -0.481443    23A     -0.465537    24A     -0.411057

  @DF-RHF Final Energy:  -270.01844967819090

   => Energetics <=

    Nuclear Repulsion Energy =            232.9184265499674211
    One-Electron Energy =                -827.0664409072155649
    Two-Electron Energy =                 324.1295646790572960
    DFT Exchange-Correlation Energy =       0.0000000000000000
    Empirical Dispersion Energy =           0.0000000000000000
    PCM Polarization Energy =               0.0000000000000000
    EFP Energy =                            0.0000000000000000
    Total Energy =                       -270.0184496781908479

  Mulliken Charges: (a.u.)
   Center  Symbol    Alpha    Beta     Spin     Total
       1     H     0.43160  0.43160  0.00000  0.13680
       2     C     2.83225  2.83225  0.00000  0.33551
       3     C     3.20869  3.20869  0.00000 -0.41739
       4     O     4.23665  4.23665  0.00000 -0.47330
       5     C     3.16676  3.16676  0.00000 -0.33353
       6     H     0.39881  0.39881  0.00000  0.20238
       7     H     0.40670  0.40670  0.00000  0.18659
       8     C     3.15338  3.15338  0.00000 -0.30677
       9     H     0.41918  0.41918  0.00000  0.16165
      10     H     0.41365  0.41365  0.00000  0.17269
      11     C     3.24046  3.24046  0.00000 -0.48091
      12     H     0.41599  0.41599  0.00000  0.16802
      13     H     0.41831  0.41831  0.00000  0.16338
      14     H     0.42083  0.42083  0.00000  0.15833
      15     H     0.41586  0.41586  0.00000  0.16827
      16     H     0.42087  0.42087  0.00000  0.15826

   Total alpha = 24.00000, Total beta = 24.00000, Total charge =  0.00000
