                              Psi4 1.0.54 Driver

  ==> Input File <==

--------------------------------------------------------------------------
set {
	reference rhf
	basis cc-pvtz
}

set_num_threads( 4 )
memory 2 gb

molecule MOL {
0 1

H	 -2.362939	 -1.309000	 -0.383250
C	 -1.359344	 -1.272457	 0.020748
C	 -0.684082	 0.000127	 -0.464918
H	 -0.825835	 -2.151141	 -0.318537
H	 -1.416276	 -1.292399	 1.099455
C	 -1.359089	 1.272668	 0.021259
N	 0.742439	 -0.000109	 0.007333
H	 -0.596914	 0.000345	 -1.538146
H	 -2.362696	 1.309620	 -0.382686
H	 -0.825392	 2.151374	 -0.317674
H	 -1.415983	 1.292181	 1.099973
O	 0.972785	 0.525815	 1.043668
O	 1.547776	 -0.526353	 -0.686057

	symmetry c1
}
set optking {
	frozen_dihedral = ("
		12 7 3 8
	")
}

ee,wfn = optimize('scf', return_wfn=True)
oeprop( wfn, 'DIPOLE', 'QUADRUPOLE', 'MULLIKEN_CHARGES')
f=open( 'psi4out.xyz', 'w' )
f.write( "13  " )
f.write( str(ee) + "\n" )
f.write( MOL.save_string_xyz() )
f.close()
--------------------------------------------------------------------------

    Molecular point group: c1
  Charge       = 0
  Multiplicity = 1
  Basis Set: CC-PVTZ
  Basis Set:
  @DF-RHF Final Energy:  -321.86368027823272
    Total Energy =                       -321.8636802782325503
    Molecular point group: c1
  Basis Set: CC-PVTZ
  Basis Set:
  Basis Set: CC-PVTZ
  Basis Set:
  @DF-RHF Final Energy:  -321.86071233490145
    Total Energy =                       -321.8607123349016206
  Basis Set: CC-PVTZ
  Basis Set:
  Basis Set: CC-PVTZ
  Basis Set:
  @DF-RHF Final Energy:  -321.86071013914591
    Total Energy =                       -321.8607101391457945
  Basis Set: CC-PVTZ
  Basis Set:
  Basis Set: CC-PVTZ
  Basis Set:
  @DF-RHF Final Energy:  -321.86403436290567
    Total Energy =                       -321.8640343629056702
  Basis Set: CC-PVTZ
  Basis Set:
  Basis Set: CC-PVTZ
  Basis Set:
  @DF-RHF Final Energy:  -321.86416616179929
    Total Energy =                       -321.8641661617994032
  Basis Set: CC-PVTZ
  Basis Set:
  Basis Set: CC-PVTZ
  Basis Set:
  @DF-RHF Final Energy:  -321.86417986426551
    Total Energy =                       -321.8641798642655658
  Basis Set: CC-PVTZ
  Basis Set:
  Charge       = 0
  Multiplicity = 1
  Basis Set: CC-PVTZ
  Basis Set:

    Orbital Energies (a.u.)
    -----------------------

    Doubly Occupied:

       1A    -20.589833     2A    -20.587784     3A    -15.832875
       4A    -11.304768     5A    -11.245379     6A    -11.239178
       7A     -1.633962     8A     -1.418248     9A     -1.142191
      10A     -0.972958    11A     -0.957337    12A     -0.816216
      13A     -0.755414    14A     -0.731659    15A     -0.726132
      16A     -0.648233    17A     -0.594253    18A     -0.587643
      19A     -0.571370    20A     -0.529520    21A     -0.521978
      22A     -0.485061    23A     -0.470746    24A     -0.451834

  @DF-RHF Final Energy:  -321.86418143293810

   => Energetics <=

    Nuclear Repulsion Energy =            257.3754516914635246
    One-Electron Energy =                -948.8501193220755567
    Two-Electron Energy =                 369.6104861976740494
    DFT Exchange-Correlation Energy =       0.0000000000000000
    Empirical Dispersion Energy =           0.0000000000000000
    PCM Polarization Energy =               0.0000000000000000
    EFP Energy =                            0.0000000000000000
    Total Energy =                       -321.8641814329379258
    Molecular point group: c1
  Basis Set: CC-PVTZ
  Basis Set:

  -Total Gradient:
     Atom            X                  Y                   Z
    ------   -----------------  -----------------  -----------------
       1       -0.000029501613    -0.000015973568     0.000006769441
       2        0.000001244189    -0.000038374914    -0.000020082185
       3       -0.000101487534    -0.000611328046    -0.000104956837
       4       -0.000010596741    -0.000017949558     0.000007827137
       5       -0.000002763435     0.000001253259    -0.000002310943
       6        0.000024802226     0.000014782882     0.000005302460
       7       -0.000243494637    -0.000855535167     0.000454581298
       8        0.000193888838     0.000759632146     0.000012742503
       9       -0.000001847425     0.000001978123    -0.000001087345
      10        0.000005737532     0.000030007003     0.000002999847
      11        0.000002028690    -0.000007995649    -0.000010124987
      12        0.000199764470     0.000760072448    -0.000261337443
      13       -0.000037774563    -0.000020568960    -0.000090322946

  **** Optimization is complete! (in 7 steps) ****
    Final optimized geometry and variables:
    Molecular point group: c1

    Geometry (in Angstrom), charge = 0, multiplicity = 1:

    H           -2.566883002481    -0.805119584732    -0.346355097747
    C           -1.560696836831    -0.973776475769     0.014286218564
    C           -0.670057251555     0.172229248775    -0.449168859768
    H           -1.209898960802    -1.919165953993    -0.375062754552
    H           -1.587862329673    -1.023628122748     1.095260846071
    C           -1.107469394548     1.530224344204     0.064088001938
    N            0.731198146482    -0.143855669235    -0.001935586674
    H           -0.594833933685     0.173854006103    -1.524389552345
    H           -2.077988415234     1.757194671887    -0.359729287661
    H           -0.415731611415     2.305818537775    -0.235846631497
    H           -1.186481126949     1.538727862996     1.140808750678
    O            1.100904612228     0.291265253169     1.035897378721
    O            1.370804125127    -0.839767831788    -0.717878165615

  Mulliken Charges: (a.u.)
   Center  Symbol    Alpha    Beta     Spin     Total
       1     H     0.44844  0.44844  0.00000  0.10311
       2     C     3.14295  3.14295  0.00000 -0.28589
       3     C     3.00770  3.00770  0.00000 -0.01541
       4     H     0.43601  0.43601  0.00000  0.12798
       5     H     0.44303  0.44303  0.00000  0.11394
       6     C     3.14390  3.14390  0.00000 -0.28780
       7     N     3.27415  3.27415  0.00000  0.45169
       8     H     0.42609  0.42609  0.00000  0.14783
       9     H     0.45014  0.45014  0.00000  0.09972
      10     H     0.44058  0.44058  0.00000  0.11884
      11     H     0.43914  0.43914  0.00000  0.12171
      12     O     4.17384  4.17384  0.00000 -0.34768
      13     O     4.17402  4.17402  0.00000 -0.34804

   Total alpha = 24.00000, Total beta = 24.00000, Total charge = -0.00000

*** Psi4 exiting successfully. Buy a developer a beer!
