  ==> Input File <==

--------------------------------------------------------------------------
set {
	reference rhf
	basis 6-31G*
}

set_num_threads( 4 )
memory 2 gb

molecule MOL {
0 1

O	 -2.439739	 -0.935931	 -0.423848
C	 -1.921153	 0.064240	 -0.045697
C	 -2.624470	 1.379923	 0.150949
O	 -0.632575	 0.154573	 0.251549
H	 -2.168117	 2.136577	 -0.476876
H	 -3.669540	 1.273223	 -0.098610
H	 -2.519365	 1.700893	 1.180846
C	 0.160891	 -1.019931	 0.106212
C	 1.589627	 -0.672828	 0.480843
H	 0.089836	 -1.367806	 -0.916050
H	 -0.238459	 -1.792301	 0.749618
C	 2.246377	 0.346236	 -0.452210
H	 2.163194	 -1.597435	 0.473358
H	 1.604769	 -0.303424	 1.502885
C	 2.863237	 1.521646	 0.304688
H	 3.016465	 -0.149862	 -1.039536
H	 1.508687	 0.714725	 -1.157468
H	 3.321244	 2.229959	 -0.378360
H	 3.630678	 1.185708	 0.996395
H	 2.111656	 2.055486	 0.879334

	symmetry c1
}
set optking {
	frozen_dihedral = ("
		16 12 9 8
	")
}

ee = optimize('scf')
oeprop('DIPOLE', 'QUADRUPOLE', 'MULLIKEN_CHARGES')
f=open( 'psi4out.xyz', 'w' )
f.write( "20  " )
f.write( str(ee) + "\n" )
f.write( MOL.save_string_xyz() )
f.close()
--------------------------------------------------------------------------

    Molecular point group: c1
  Charge       = 0
  Multiplicity = 1
  Basis Set: 6-31G*
  Basis Set:
  @DF-RHF Final Energy:  -383.94048947836387
    Total Energy =                       -383.9404894783637019
    Molecular point group: c1
  Basis Set: 6-31G*
  Basis Set:
  Basis Set: 6-31G*
  Basis Set:
  @DF-RHF Final Energy:  -383.94062989998122
    Total Energy =                       -383.9406298999812179
  Basis Set: 6-31G*
  Basis Set:
  Basis Set: 6-31G*
  Basis Set:
  @DF-RHF Final Energy:  -383.93966557369276
    Total Energy =                       -383.9396655736923094
  Basis Set: 6-31G*
  Basis Set:
  Basis Set: 6-31G*
  Basis Set:
  @DF-RHF Final Energy:  -383.94079542207010
    Total Energy =                       -383.9407954220703232
  Basis Set: 6-31G*
  Basis Set:
  Basis Set: 6-31G*
  Basis Set:
  @DF-RHF Final Energy:  -383.94080498519816
    Total Energy =                       -383.9408049851981559
  Basis Set: 6-31G*
  Basis Set:
  Basis Set: 6-31G*
  Basis Set:
  @DF-RHF Final Energy:  -383.94080564792949
    Total Energy =                       -383.9408056479292100
  Basis Set: 6-31G*
  Basis Set:
  Basis Set: 6-31G*
  Basis Set:
  @DF-RHF Final Energy:  -383.94080757751101
    Total Energy =                       -383.9408075775106681
  Basis Set: 6-31G*
  Basis Set:
  Charge       = 0
  Multiplicity = 1
  Basis Set: 6-31G*
  Basis Set:

    Orbital Energies (a.u.)
    -----------------------

    Doubly Occupied:

       1A    -20.602182     2A    -20.544372     3A    -11.374821
       4A    -11.282459     5A    -11.233658     6A    -11.225125
       7A    -11.220807     8A    -11.211818     9A     -1.468232
      10A     -1.362557    11A     -1.083658    12A     -1.027397
      13A     -0.981202    14A     -0.880124    15A     -0.809681
      16A     -0.776812    17A     -0.690513    18A     -0.683702
      19A     -0.666800    20A     -0.622811    21A     -0.604637
      22A     -0.594054    23A     -0.574856    24A     -0.552585
      25A     -0.537238    26A     -0.533333    27A     -0.512883
      28A     -0.480149    29A     -0.474652    30A     -0.469311
      31A     -0.449489    32A     -0.438643

  @DF-RHF Final Energy:  -383.94080757861934

   => Energetics <=

    Nuclear Repulsion Energy =            388.6135182859806037
    One-Electron Energy =               -1293.1675318269640229
    Two-Electron Energy =                 520.6132059623641908
    DFT Exchange-Correlation Energy =       0.0000000000000000
    Empirical Dispersion Energy =           0.0000000000000000
    PCM Polarization Energy =               0.0000000000000000
    EFP Energy =                            0.0000000000000000
    Total Energy =                       -383.9408075786192285
    Molecular point group: c1
  Basis Set: 6-31G*
  Basis Set:

  -Total Gradient:
     Atom            X                  Y                   Z
    ------   -----------------  -----------------  -----------------
       1       -0.000007218861     0.000000129955     0.000000740882
       2        0.000000371635    -0.000003791470    -0.000003087411
       3        0.000001961959    -0.000002697471     0.000004998761
       4        0.000010323596    -0.000002314161     0.000009161279
       5       -0.000000134576    -0.000000191885    -0.000002485281
       6        0.000000796383    -0.000000982982    -0.000001071097
       7        0.000001397157     0.000000828156    -0.000001255798
       8       -0.000362860612     0.000807652385     0.000607042959
       9        0.000737463380    -0.001045330548    -0.000631128681
      10        0.000003123805    -0.000001285772     0.000005411779
      11       -0.000004234334    -0.000000978366     0.000005092266
      12       -0.001366114908    -0.000062850223    -0.001024464809
      13       -0.000004340395    -0.000001622949     0.000001809732
      14        0.000000979246    -0.000000781873     0.000001194583
      15        0.000000007947     0.000000089237    -0.000003915210
      16        0.000988054289     0.000312007415     0.001034283043
      17        0.000000534733     0.000002651928    -0.000002291743
      18        0.000000350838     0.000000682340     0.000000138731
      19       -0.000000135663    -0.000000455756    -0.000000390082
      20       -0.000000325619    -0.000000757958     0.000000216098

  **** Optimization is complete! (in 8 steps) ****
    Final optimized geometry and variables:
    Molecular point group: c1

    Geometry (in Angstrom), charge = 0, multiplicity = 1:

    O           -2.333446069069    -1.042310954304    -0.483775915454
    C           -1.810608447156    -0.047697263388    -0.097014248044
    C           -2.507556328325     1.270271548126     0.107379080181
    O           -0.523780040182     0.031883719215     0.211262081447
    H           -2.042515189913     2.030119057463    -0.510084715049
    H           -3.551478076840     1.171926970438    -0.150302710448
    H           -2.407640908931     1.580732253186     1.141040160910
    C            0.264573116178    -1.145924224005     0.063343817926
    C            1.691890004022    -0.793927759280     0.438432157063
    H            0.190927020711    -1.492445922467    -0.959085409378
    H           -0.135500997817    -1.917462383751     0.707457041626
    C            2.348734016388     0.242623046695    -0.499393923639
    H            2.266775919527    -1.715611319797     0.449226541007
    H            1.686998211566    -0.424510529659     1.459716430738
    C            2.970811125815     1.420203683588     0.251502122970
    H            3.120555945916    -0.239808975807    -1.092030819593
    H            1.612623878076     0.622990051066    -1.199981950326
    H            3.436752564773     2.120872328813    -0.434534151742
    H            3.733099418002     1.082983641895     0.948426143892
    H            2.217118334673     1.957937965548     0.818778092752

  Mulliken Charges: (a.u.)
   Center  Symbol    Alpha    Beta     Spin     Total
       1     O     4.28303  4.28303  0.00000 -0.56607
       2     C     2.61949  2.61949  0.00000  0.76102
       3     C     3.28169  3.28169  0.00000 -0.56337
       4     O     4.30819  4.30819  0.00000 -0.61639
       5     H     0.40079  0.40079  0.00000  0.19843
       6     H     0.39681  0.39681  0.00000  0.20639
       7     H     0.40054  0.40054  0.00000  0.19893
       8     C     3.00574  3.00574  0.00000 -0.01148
       9     C     3.16754  3.16754  0.00000 -0.33508
      10     H     0.41022  0.41022  0.00000  0.17956
      11     H     0.40917  0.40917  0.00000  0.18166
      12     C     3.15554  3.15554  0.00000 -0.31108
      13     H     0.41507  0.41507  0.00000  0.16986
      14     H     0.41194  0.41194  0.00000  0.17613
      15     C     3.24106  3.24106  0.00000 -0.48211
      16     H     0.41971  0.41971  0.00000  0.16059
      17     H     0.41407  0.41407  0.00000  0.17187
      18     H     0.41983  0.41983  0.00000  0.16034
      19     H     0.42187  0.42187  0.00000  0.15626
      20     H     0.41772  0.41772  0.00000  0.16455

   Total alpha = 32.00000, Total beta = 32.00000, Total charge = -0.00000
