  ==> Input File <==

--------------------------------------------------------------------------
set {
	reference rhf
	basis 6-31G*
}

set_num_threads( 1 )
memory 2 gb

molecule MOL {
0 1

O	 -2.439739	 -0.935931	 -0.423848
C	 -1.921153	 0.064240	 -0.045697
C	 -2.624470	 1.379923	 0.150949
O	 -0.632575	 0.154573	 0.251549
H	 -2.168117	 2.136577	 -0.476876
H	 -3.669540	 1.273223	 -0.098610
H	 -2.519365	 1.700893	 1.180846
C	 0.160891	 -1.019931	 0.106212
C	 1.589627	 -0.672828	 0.480843
H	 0.089836	 -1.367806	 -0.916050
H	 -0.238459	 -1.792301	 0.749618
C	 1.898540	 0.824668	 0.431063
H	 2.245676	 -1.203982	 -0.205749
H	 1.796260	 -1.061201	 1.474688
C	 3.351535	 1.135597	 0.787617
H	 1.682152	 1.202233	 -0.566294
H	 1.236617	 1.350491	 1.111303
H	 3.544978	 2.202784	 0.746096
H	 4.038577	 0.648044	 0.101655
H	 3.590170	 0.795353	 1.791293

	symmetry c1
}
set optking {
	frozen_dihedral = ("
		16 12 9 8,
		2 4 8 10,
		1 2 4 8
	")
}

ee = energy('scf')
oeprop('DIPOLE', 'QUADRUPOLE', 'MULLIKEN_CHARGES')
f=open( 'psi4out.xyz', 'w' )
f.write( "20  " )
f.write( str(ee) + "\n" )
f.write( MOL.save_string_xyz() )
f.close()
--------------------------------------------------------------------------

    Molecular point group: c1

    Geometry (in Angstrom), charge = 0, multiplicity = 1:

       Center              X                  Y                   Z               Mass
    ------------   -----------------  -----------------  -----------------  -----------------
           O         -2.353786992812    -1.056297794268    -0.640124094145    15.994914619560
           C         -1.835200992812    -0.056126794268    -0.261973094145    12.000000000000
           C         -2.538517992812     1.259556205732    -0.065327094145    12.000000000000
           O         -0.546622992812     0.034206205732     0.035272905855    15.994914619560
           H         -2.082164992812     2.016210205732    -0.693152094145     1.007825032070
           H         -3.583587992812     1.152856205732    -0.314886094145     1.007825032070
           H         -2.433412992812     1.580526205732     0.964569905855     1.007825032070
           C          0.246843007188    -1.140297794268    -0.110064094145    12.000000000000
           C          1.675579007188    -0.793194794268     0.264566905855    12.000000000000
           H          0.175788007188    -1.488172794268    -1.132326094145     1.007825032070
           H         -0.152506992812    -1.912667794268     0.533341905855     1.007825032070
           C          1.984492007188     0.704301205732     0.214786905855    12.000000000000
           H          2.331628007188    -1.324348794268    -0.422025094145     1.007825032070
           H          1.882212007188    -1.181567794268     1.258411905855     1.007825032070
           C          3.437487007188     1.015230205732     0.571340905855    12.000000000000
           H          1.768104007188     1.081866205732    -0.782570094145     1.007825032070
           H          1.322569007188     1.230124205732     0.895026905855     1.007825032070
           H          3.630930007188     2.082417205732     0.529819905855     1.007825032070
           H          4.124529007188     0.527677205732    -0.114621094145     1.007825032070
           H          3.676122007188     0.674986205732     1.575016905855     1.007825032070

  Charge       = 0
  Multiplicity = 1
  Basis Set: 6-31G*
  Basis Set:

    Orbital Energies (a.u.)
    -----------------------

    Doubly Occupied:

       1A    -20.601266     2A    -20.544153     3A    -11.374405
       4A    -11.281732     5A    -11.233744     6A    -11.223864
       7A    -11.217912     8A    -11.210919     9A     -1.468267
      10A     -1.362586    11A     -1.084722    12A     -1.027089
      13A     -0.981179    14A     -0.879044    15A     -0.819173
      16A     -0.760146    17A     -0.691281    18A     -0.689264
      19A     -0.667558    20A     -0.633066    21A     -0.595077
      22A     -0.592907    23A     -0.573632    24A     -0.548110
      25A     -0.543923    26A     -0.534009    27A     -0.507211
      28A     -0.482149    29A     -0.476037    30A     -0.468188
      31A     -0.444425    32A     -0.438518

  @DF-RHF Final Energy:  -383.93776607333098

   => Energetics <=

    Nuclear Repulsion Energy =            388.8520256781940816
    One-Electron Energy =               -1293.6685504888323521
    Two-Electron Energy =                 520.8787587373074075
    DFT Exchange-Correlation Energy =       0.0000000000000000
    Empirical Dispersion Energy =           0.0000000000000000
    PCM Polarization Energy =               0.0000000000000000
    EFP Energy =                            0.0000000000000000
    Total Energy =                       -383.9377660733308630

  Mulliken Charges: (a.u.)
   Center  Symbol    Alpha    Beta     Spin     Total
       1     O     4.28358  4.28358  0.00000 -0.56717
       2     C     2.61816  2.61816  0.00000  0.76368
       3     C     3.28178  3.28178  0.00000 -0.56355
       4     O     4.31114  4.31114  0.00000 -0.62228
       5     H     0.40057  0.40057  0.00000  0.19886
       6     H     0.39674  0.39674  0.00000  0.20652
       7     H     0.40095  0.40095  0.00000  0.19811
       8     C     2.99685  2.99685  0.00000  0.00630
       9     C     3.17714  3.17714  0.00000 -0.35427
      10     H     0.40925  0.40925  0.00000  0.18149
      11     H     0.40811  0.40811  0.00000  0.18379
      12     C     3.14664  3.14664  0.00000 -0.29328
      13     H     0.41669  0.41669  0.00000  0.16662
      14     H     0.41651  0.41651  0.00000  0.16697
      15     C     3.24067  3.24067  0.00000 -0.48134
      16     H     0.42099  0.42099  0.00000  0.15803
      17     H     0.41147  0.41147  0.00000  0.17706
      18     H     0.41828  0.41828  0.00000  0.16344
      19     H     0.42253  0.42253  0.00000  0.15494
      20     H     0.42196  0.42196  0.00000  0.15607

   Total alpha = 32.00000, Total beta = 32.00000, Total charge = -0.00000
