                              Psi4 1.0.54 Driver

  ==> Input File <==

--------------------------------------------------------------------------
set {
	reference rhf
	basis cc-pvtz
}

set_num_threads( 4 )
memory 2 gb

molecule MOL {
0 1

H	 -3.941973	 0.934228	 -0.390224
C	 -3.240162	 0.342701	 0.161016
C	 -2.105997	 -0.000418	 -0.398703
H	 -3.485368	 0.047206	 1.162193
O	 -1.189946	 -0.765863	 0.237511
H	 -1.846458	 0.297311	 -1.398265
C	 0.026572	 -0.995256	 -0.379403
C	 1.057223	 0.049888	 -0.004615
H	 -0.054361	 -1.010670	 -1.459674
H	 0.397526	 -1.952058	 -0.044198
F	 0.455891	 1.074112	 0.566739
F	 1.944182	 -0.418444	 0.847134
F	 1.708023	 0.497691	 -1.050745

	symmetry c1
}
set optking {
	frozen_dihedral = ("
		11 8 7 9
	")
}

ee,wfn = optimize('scf', return_wfn=True)
oeprop( wfn, 'DIPOLE', 'QUADRUPOLE', 'MULLIKEN_CHARGES')
f=open( 'psi4out.xyz', 'w' )
f.write( "13  " )
f.write( str(ee) + "\n" )
f.write( MOL.save_string_xyz() )
f.close()
--------------------------------------------------------------------------

    Molecular point group: c1
  Charge       = 0
  Multiplicity = 1
  Basis Set: CC-PVTZ
  Basis Set:
  @DF-RHF Final Energy:  -527.73478298189048
    Total Energy =                       -527.7347829818905893
    Molecular point group: c1
  Basis Set: CC-PVTZ
  Basis Set:
  Basis Set: CC-PVTZ
  Basis Set:
  @DF-RHF Final Energy:  -527.73579061035718
    Total Energy =                       -527.7357906103572986
  Basis Set: CC-PVTZ
  Basis Set:
  Basis Set: CC-PVTZ
  Basis Set:
  @DF-RHF Final Energy:  -527.73612493732298
    Total Energy =                       -527.7361249373229839
  Basis Set: CC-PVTZ
  Basis Set:
  Basis Set: CC-PVTZ
  Basis Set:
  @DF-RHF Final Energy:  -527.73614872660278
    Total Energy =                       -527.7361487266032327
  Basis Set: CC-PVTZ
  Basis Set:
  Basis Set: CC-PVTZ
  Basis Set:
  @DF-RHF Final Energy:  -527.73615231586177
    Total Energy =                       -527.7361523158617729
  Basis Set: CC-PVTZ
  Basis Set:
  Basis Set: CC-PVTZ
  Basis Set:
  @DF-RHF Final Energy:  -527.73615369300467
    Total Energy =                       -527.7361536930047805
  Basis Set: CC-PVTZ
  Basis Set:
  Basis Set: CC-PVTZ
  Basis Set:
  @DF-RHF Final Energy:  -527.73615504463089
    Total Energy =                       -527.7361550446310048
  Basis Set: CC-PVTZ
  Basis Set:
  Charge       = 0
  Multiplicity = 1
  Basis Set: CC-PVTZ
  Basis Set:

    Orbital Energies (a.u.)
    -----------------------

    Doubly Occupied:

       1A    -26.341037     2A    -26.340520     3A    -26.337214
       4A    -20.603709     5A    -11.499588     6A    -11.319696
       7A    -11.298632     8A    -11.214452     9A     -1.750660
      10A     -1.647460    11A     -1.643710    12A     -1.444602
      13A     -1.084649    14A     -1.019280    15A     -0.932597
      16A     -0.843990    17A     -0.838045    18A     -0.828124
      19A     -0.795934    20A     -0.732314    21A     -0.722569
      22A     -0.702443    23A     -0.679897    24A     -0.668793
      25A     -0.661518    26A     -0.649864    27A     -0.634625
      28A     -0.587311    29A     -0.565025    30A     -0.529533
      31A     -0.516195    32A     -0.357144

  @DF-RHF Final Energy:  -527.73615570876336

   => Energetics <=

    Nuclear Repulsion Energy =            412.7022090732088486
    One-Electron Energy =               -1549.2944735071214382
    Two-Electron Energy =                 608.8561087251490562
    DFT Exchange-Correlation Energy =       0.0000000000000000
    Empirical Dispersion Energy =           0.0000000000000000
    PCM Polarization Energy =               0.0000000000000000
    EFP Energy =                            0.0000000000000000
    Total Energy =                       -527.7361557087634765
    Molecular point group: c1
  Basis Set: CC-PVTZ
  Basis Set:

  -Total Gradient:
     Atom            X                  Y                   Z
    ------   -----------------  -----------------  -----------------
       1        0.000019939091     0.000016613121     0.000003008293
       2       -0.000052867782     0.000026173017     0.000006908488
       3        0.000029050701    -0.000110291990    -0.000030764729
       4       -0.000017867691    -0.000019160615     0.000047873451
       5       -0.000074891108     0.000016248392     0.000042253120
       6        0.000034469127     0.000038893903    -0.000045628452
       7       -0.002574324058     0.002327964069     0.000741709619
       8        0.000030000398     0.000885556246    -0.003222795072
       9        0.002255268361    -0.002195667474     0.000009767797
      10       -0.000036243109     0.000014842260     0.000014228481
      11        0.000309718982    -0.001027976931     0.002473715293
      12        0.000034969350    -0.000010658367     0.000042292311
      13        0.000042777737     0.000037464369    -0.000082568601

  **** Optimization is complete! (in 8 steps) ****
    Final optimized geometry and variables:
    Molecular point group: c1

    Geometry (in Angstrom), charge = 0, multiplicity = 1:

    H           -3.941490259574     0.912126855260    -0.414922972663
    C           -3.273277347563     0.270910617060     0.122323814734
    C           -2.089814634674     0.009357766122    -0.375969039991
    H           -3.590778323303    -0.138172097499     1.061413818200
    O           -1.205891815581    -0.801478825753     0.248737520667
    H           -1.759993067430     0.420417057468    -1.313320911156
    C            0.021762027032    -1.011124861654    -0.347810222424
    C            1.060686396442     0.068063116581    -0.007318558159
    H           -0.045078678496    -1.086016324504    -1.425746842605
    H            0.403737206686    -1.947905354048     0.025926457461
    F            0.517745727218     1.144738463514     0.503250579089
    F            1.941483034537    -0.377415781455     0.865628471953
    F            1.733721943082     0.423674785635    -1.084140662381

  Mulliken Charges: (a.u.)
   Center  Symbol    Alpha    Beta     Spin     Total
       1     H     0.42542  0.42542  0.00000  0.14916
       2     C     3.19623  3.19623  0.00000 -0.39247
       3     C     2.95668  2.95668  0.00000  0.08665
       4     H     0.42502  0.42502  0.00000  0.14995
       5     O     4.13953  4.13953  0.00000 -0.27907
       6     H     0.43480  0.43480  0.00000  0.13039
       7     C     3.03493  3.03493  0.00000 -0.06986
       8     C     2.67137  2.67137  0.00000  0.65726
       9     H     0.45474  0.45474  0.00000  0.09053
      10     H     0.43570  0.43570  0.00000  0.12861
      11     F     4.60314  4.60314  0.00000 -0.20628
      12     F     4.61036  4.61036  0.00000 -0.22072
      13     F     4.61207  4.61207  0.00000 -0.22415

   Total alpha = 32.00000, Total beta = 32.00000, Total charge =  0.00000

*** Psi4 exiting successfully. Buy a developer a beer!
