  ==> Input File <==

--------------------------------------------------------------------------
set {
	reference rhf
	basis 6-31G*
}

set_num_threads( 4 )
memory 2 gb

molecule MOL {
0 1

H	 -1.179568	 1.680005	 -1.726989
C	 -0.942008	 0.935001	 -0.993544
C	 -1.922187	 0.455778	 -0.062352
C	 0.290998	 0.417947	 -0.917595
H	 -2.921733	 0.851616	 -0.097924
C	 -1.601428	 -0.476628	 0.846052
H	 1.081069	 0.722693	 -1.577385
N	 0.640212	 -0.532897	 -0.000111
H	 -2.307410	 -0.858418	 1.557516
C	 -0.259650	 -1.039142	 0.928458
C	 2.010177	 -1.032049	 0.000042
O	 0.068463	 -1.878337	 1.729894
H	 2.187698	 -1.635381	 -0.882279
H	 2.677579	 -0.189247	 -0.001871
H	 2.188882	 -1.632203	 0.884288

	symmetry c1
}
set optking {
	frozen_dihedral = ("
		10 8 11 13
	")
}

ee = optimize('scf')
oeprop('DIPOLE', 'QUADRUPOLE', 'MULLIKEN_CHARGES')
f=open( 'psi4out.xyz', 'w' )
f.write( "15  " )
f.write( str(ee) + "\n" )
f.write( MOL.save_string_xyz() )
f.close()
--------------------------------------------------------------------------

    Molecular point group: c1
  Charge       = 0
  Multiplicity = 1
  Basis Set: 6-31G*
  Basis Set:
  @DF-RHF Final Energy:  -360.59556568995441
    Total Energy =                       -360.5955656899545829
    Molecular point group: c1
  Basis Set: 6-31G*
  Basis Set:
  Basis Set: 6-31G*
  Basis Set:
  @DF-RHF Final Energy:  -360.59582056452047
    Total Energy =                       -360.5958205645204089
  Basis Set: 6-31G*
  Basis Set:
  Basis Set: 6-31G*
  Basis Set:
  @DF-RHF Final Energy:  -360.59584528202782
    Total Energy =                       -360.5958452820277671
  Basis Set: 6-31G*
  Basis Set:
  Basis Set: 6-31G*
  Basis Set:
  @DF-RHF Final Energy:  -360.59583391529844
    Total Energy =                       -360.5958339152982717
  Basis Set: 6-31G*
  Basis Set:
  Charge       = 0
  Multiplicity = 1
  Basis Set: 6-31G*
  Basis Set:

    Orbital Energies (a.u.)
    -----------------------

    Doubly Occupied:

       1A    -20.508660     2A    -15.621218     3A    -11.343461
       4A    -11.296603     5A    -11.264225     6A    -11.260453
       7A    -11.233805     8A    -11.229239     9A     -1.384294
      10A     -1.281025    11A     -1.114818    12A     -1.025772
      13A     -0.969947    14A     -0.872123    15A     -0.835312
      16A     -0.715411    17A     -0.698551    18A     -0.660678
      19A     -0.647845    20A     -0.621662    21A     -0.606713
      22A     -0.572118    23A     -0.553286    24A     -0.546979
      25A     -0.526085    26A     -0.476120    27A     -0.413618
      28A     -0.405974    29A     -0.305272

  @DF-RHF Final Energy:  -360.59585084407468

   => Energetics <=

    Nuclear Repulsion Energy =            357.5845097437985487
    One-Electron Energy =               -1198.3781926583694712
    Two-Electron Energy =                 480.1978320704962471
    DFT Exchange-Correlation Energy =       0.0000000000000000
    Empirical Dispersion Energy =           0.0000000000000000
    PCM Polarization Energy =               0.0000000000000000
    EFP Energy =                            0.0000000000000000
    Total Energy =                       -360.5958508440746755
    Molecular point group: c1
  Basis Set: 6-31G*
  Basis Set:

  -Total Gradient:
     Atom            X                  Y                   Z
    ------   -----------------  -----------------  -----------------
       1       -0.000001180142     0.000002061849     0.000002415508
       2       -0.000012676750     0.000006305616    -0.000002502083
       3        0.000005225903     0.000002401402    -0.000004211139
       4        0.000010500534     0.000005655114    -0.000002533575
       5       -0.000000506535     0.000000811530     0.000002279088
       6        0.000000622644    -0.000007116962    -0.000006363813
       7       -0.000005842046    -0.000004977386    -0.000001238352
       8       -0.000077728413    -0.000146463671    -0.000192231879
       9       -0.000002907467     0.000000792189    -0.000001547669
      10        0.000062128344     0.000136878553     0.000118516323
      11       -0.000059290290    -0.000180502829     0.000182492554
      12        0.000001086624     0.000000050241     0.000000103546
      13        0.000061875018     0.000170248063    -0.000097567393
      14        0.000011380516     0.000017912346     0.000008009722
      15        0.000007312058    -0.000004056052    -0.000005620841

  **** Optimization is complete! (in 5 steps) ****
    Final optimized geometry and variables:
    Molecular point group: c1

    Geometry (in Angstrom), charge = 0, multiplicity = 1:

    H           -1.029082907841     2.107040871709    -1.946699648126
    C           -0.788231068325     1.365462289270    -1.210928366895
    C           -1.765652700780     0.887716245477    -0.276020228440
    C            0.446860981394     0.853486103681    -1.133935117909
    H           -2.765960663223     1.281588246724    -0.311245832225
    C           -1.441263166014    -0.040582956060     0.635260523509
    H            1.235144993441     1.158699528858    -1.795450454525
    N            0.800679499736    -0.090633291565    -0.211269329220
    H           -2.145173146308    -0.421956720219     1.349128992895
    C           -0.098960254060    -0.602471032613     0.714122542367
    C            2.168763094341    -0.595181170803    -0.214621411269
    O            0.230576488502    -1.446029430254     1.510390375375
    H            2.350070226632    -1.193528041363    -1.100028214930
    H            2.865753087529     0.233533720212    -0.196879861201
    H            2.308955933496    -1.203620204569     0.660634514029

  Mulliken Charges: (a.u.)
   Center  Symbol    Alpha    Beta     Spin     Total
       1     H     0.39284  0.39284  0.00000  0.21433
       2     C     3.16150  3.16150  0.00000 -0.32301
       3     C     3.05827  3.05827  0.00000 -0.11654
       4     C     2.92084  2.92084  0.00000  0.15831
       5     H     0.39084  0.39084  0.00000  0.21832
       6     C     3.16971  3.16971  0.00000 -0.33942
       7     H     0.38790  0.38790  0.00000  0.22420
       8     N     3.86560  3.86560  0.00000 -0.73119
       9     H     0.38633  0.38633  0.00000  0.22733
      10     C     2.59395  2.59395  0.00000  0.81210
      11     C     3.15524  3.15524  0.00000 -0.31048
      12     O     4.32202  4.32202  0.00000 -0.64405
      13     H     0.40911  0.40911  0.00000  0.18178
      14     H     0.41175  0.41175  0.00000  0.17649
      15     H     0.37409  0.37409  0.00000  0.25182

   Total alpha = 29.00000, Total beta = 29.00000, Total charge = -0.00000
