  ==> Input File <==

--------------------------------------------------------------------------
set {
	reference rhf
	basis 6-31G*
}

set_num_threads( 4 )
memory 2 gb

molecule MOL {
0 1

O	 3.225979	 0.970355	 -0.599647
C	 2.701189	 0.057885	 -0.047330
C	 1.245376	 -0.013843	 0.345420
O	 3.347903	 -1.046386	 0.304773
C	 0.426388	 1.168081	 -0.168808
H	 0.863910	 -0.962128	 -0.018491
H	 1.206024	 -0.074633	 1.430064
C	 -1.029652	 1.164493	 0.309135
H	 0.457226	 1.180590	 -1.254170
H	 0.904131	 2.086529	 0.154665
C	 -1.883193	 0.013241	 -0.230492
H	 -1.485135	 2.105159	 0.008457
H	 -1.053845	 1.152419	 1.397840
C	 -3.351940	 0.115655	 0.185795
H	 -1.817804	 -0.001561	 -1.317379
H	 -1.486777	 -0.939779	 0.112405
C	 -4.213402	 -1.032355	 -0.343437
H	 -3.760298	 1.061738	 -0.165494
H	 -3.417289	 0.141319	 1.272428
C	 -5.679464	 -0.920553	 0.073532
H	 -4.148446	 -1.060072	 -1.429096
H	 -3.809338	 -1.978631	 0.010224
H	 -6.263988	 -1.748091	 -0.316493
H	 -6.122784	 0.000142	 -0.295229
H	 -5.780900	 -0.924882	 1.155181
C	 4.728119	 -1.109107	 -0.004993
H	 4.882018	 -1.033965	 -1.071845
H	 5.068212	 -2.067527	 0.355250
H	 5.265056	 -0.311663	 0.488280

	symmetry c1
}
set optking {
	frozen_dihedral = ("
		6 3 2 1
	")
}

ee = optimize('scf')
oeprop('DIPOLE', 'QUADRUPOLE', 'MULLIKEN_CHARGES')
f=open( 'psi4out.xyz', 'w' )
f.write( "29  " )
f.write( str(ee) + "\n" )
f.write( MOL.save_string_xyz() )
f.close()
--------------------------------------------------------------------------

    Molecular point group: c1
  Charge       = 0
  Multiplicity = 1
  Basis Set: 6-31G*
  Basis Set:
  @DF-RHF Final Energy:  -501.04407907253221
    Total Energy =                       -501.0440790725328952
    Molecular point group: c1
  Basis Set: 6-31G*
  Basis Set:
  Basis Set: 6-31G*
  Basis Set:
  @DF-RHF Final Energy:  -501.04393972656783
    Total Energy =                       -501.0439397265679418
  Basis Set: 6-31G*
  Basis Set:
  Basis Set: 6-31G*
  Basis Set:
  @DF-RHF Final Energy:  -501.04408998513145
    Total Energy =                       -501.0440899851313361
  Basis Set: 6-31G*
  Basis Set:
  Basis Set: 6-31G*
  Basis Set:
  @DF-RHF Final Energy:  -501.04409241230337
    Total Energy =                       -501.0440924123034847
  Basis Set: 6-31G*
  Basis Set:
  Charge       = 0
  Multiplicity = 1
  Basis Set: 6-31G*
  Basis Set:

    Orbital Energies (a.u.)
    -----------------------

    Doubly Occupied:

       1A    -20.603457     2A    -20.545161     3A    -11.372033
       4A    -11.280675     5A    -11.234727     6A    -11.219126
       7A    -11.217651     8A    -11.215995     9A    -11.215860
      10A    -11.214457    11A    -11.209076    12A     -1.469112
      13A     -1.362511    14A     -1.098065    15A     -1.066824
      16A     -1.019518    17A     -0.977261    18A     -0.928570
      19A     -0.861564    20A     -0.799296    21A     -0.790487
      22A     -0.763991    23A     -0.700711    24A     -0.682218
      25A     -0.672212    26A     -0.650873    27A     -0.628646
      28A     -0.604811    29A     -0.595038    30A     -0.580991
      31A     -0.566430    32A     -0.550070    33A     -0.531373
      34A     -0.530603    35A     -0.515864    36A     -0.512088
      37A     -0.496236    38A     -0.477864    39A     -0.470236
      40A     -0.462475    41A     -0.458946    42A     -0.455666
      43A     -0.440758    44A     -0.435696

  @DF-RHF Final Energy:  -501.04409167124243

   => Energetics <=

    Nuclear Repulsion Energy =            610.1350766842234634
    One-Electron Energy =               -1891.3879008347960280
    Two-Electron Energy =                 780.2087324793307062
    DFT Exchange-Correlation Energy =       0.0000000000000000
    Empirical Dispersion Energy =           0.0000000000000000
    PCM Polarization Energy =               0.0000000000000000
    EFP Energy =                            0.0000000000000000
    Total Energy =                       -501.0440916712417447
    Molecular point group: c1
  Basis Set: 6-31G*
  Basis Set:

  -Total Gradient:
     Atom            X                  Y                   Z
    ------   -----------------  -----------------  -----------------
       1        0.000042943200     0.000099979105     0.000210072745
       2       -0.000073627956    -0.000165482802    -0.000292507484
       3        0.000010934921     0.000210567438    -0.000040531437
       4       -0.000009727006    -0.000003655222     0.000010207363
       5       -0.000032062397    -0.000060527379    -0.000097166698
       6        0.000099427273    -0.000051137385     0.000155664468
       7       -0.000014580066    -0.000024703186     0.000031287460
       8        0.000019626731    -0.000032608728     0.000044040336
       9       -0.000002118240    -0.000008495079    -0.000001425078
      10       -0.000009484521     0.000008445327    -0.000007167744
      11       -0.000015111298     0.000013273950    -0.000005193275
      12        0.000015728500     0.000008254325     0.000013680424
      13        0.000004022714    -0.000022843945     0.000009077194
      14       -0.000000640602     0.000013310020    -0.000013440169
      15        0.000002846487    -0.000004232649    -0.000011173973
      16       -0.000037616121     0.000019481879     0.000002340763
      17        0.000000471299     0.000001349146    -0.000004387084
      18       -0.000001209279    -0.000001528538    -0.000005917126
      19        0.000000310884     0.000005842756    -0.000002691389
      20        0.000002348449    -0.000005837721     0.000009382704
      21       -0.000003265902     0.000004337807     0.000000487850
      22        0.000002060744    -0.000002152399    -0.000004408324
      23        0.000000942094    -0.000001472035     0.000002690287
      24        0.000002258142    -0.000001698882    -0.000002261721
      25       -0.000002342102     0.000002097060     0.000001363843
      26       -0.000001780109     0.000004161106     0.000007083616
      27       -0.000004745880    -0.000000435970    -0.000002017125
      28        0.000000136865    -0.000001853419    -0.000003045156
      29        0.000004253152    -0.000002434581    -0.000004045267

  **** Optimization is complete! (in 5 steps) ****
    Final optimized geometry and variables:
    Molecular point group: c1

    Geometry (in Angstrom), charge = 0, multiplicity = 1:

    O            3.226032296330     1.038659048754    -0.590972742551
    C            2.703675558337     0.124250295783    -0.039497581245
    C            1.247288429715     0.047238096349     0.350417289129
    O            3.356241782717    -0.972992632987     0.323402913688
    C            0.426838277750     1.231229675965    -0.156660034509
    H            0.865920387896    -0.900967110247    -0.012077510591
    H            1.211265146851    -0.014137198098     1.435731889121
    C           -1.026793568875     1.228121154465     0.328439214063
    H            0.451517063281     1.246182155331    -1.242458895709
    H            0.907781734437     2.147799133444     0.166409075312
    C           -1.886730576950     0.083931882693    -0.216017505754
    H           -1.480821332293     2.172595506528     0.037666706433
    H           -1.045384380191     1.207419113204     1.417138542711
    C           -3.353307298589     0.188421488416     0.207320046756
    H           -1.826079247520     0.076962664769    -1.303271567029
    H           -1.492190123559    -0.872972578018     0.118045028967
    C           -4.220710442008    -0.953619685411    -0.325098923707
    H           -3.760208515263     1.137927593318    -0.136337202020
    H           -3.413790117220     0.207613301528     1.294363302335
    C           -5.684068433011    -0.841132870082     0.101093700079
    H           -4.162048077762    -0.973788014987    -1.411283071590
    H           -3.817034641576    -1.903391103117     0.019511400898
    H           -6.272808811023    -1.664696744952    -0.291002988569
    H           -6.127301486473     0.083026993421    -0.258993232737
    H           -5.779265608026    -0.852386983832     1.183259455431
    C            4.740629918613    -1.023725254139     0.030451366815
    H            4.906483972409    -0.950579983278    -1.034731680039
    H            5.085278768446    -1.977765748569     0.397897774131
    H            5.264202723758    -0.219699088162     0.527419137546

  Mulliken Charges: (a.u.)
   Center  Symbol    Alpha    Beta     Spin     Total
       1     O     4.28599  4.28599  0.00000 -0.57198
       2     C     2.60465  2.60465  0.00000  0.79069
       3     C     3.20998  3.20998  0.00000 -0.41995
       4     O     4.30742  4.30742  0.00000 -0.61485
       5     C     3.15406  3.15406  0.00000 -0.30812
       6     H     0.39890  0.39890  0.00000  0.20220
       7     H     0.40109  0.40109  0.00000  0.19781
       8     C     3.15670  3.15670  0.00000 -0.31340
       9     H     0.41418  0.41418  0.00000  0.17165
      10     H     0.40737  0.40737  0.00000  0.18525
      11     C     3.15496  3.15496  0.00000 -0.30993
      12     H     0.41822  0.41822  0.00000  0.16356
      13     H     0.42382  0.42382  0.00000  0.15235
      14     C     3.15031  3.15031  0.00000 -0.30063
      15     H     0.42271  0.42271  0.00000  0.15457
      16     H     0.42355  0.42355  0.00000  0.15291
      17     C     3.15145  3.15145  0.00000 -0.30290
      18     H     0.42332  0.42332  0.00000  0.15336
      19     H     0.42398  0.42398  0.00000  0.15205
      20     C     3.23935  3.23935  0.00000 -0.47870
      21     H     0.42282  0.42282  0.00000  0.15436
      22     H     0.42342  0.42342  0.00000  0.15315
      23     H     0.41923  0.41923  0.00000  0.16153
      24     H     0.42155  0.42155  0.00000  0.15690
      25     H     0.42182  0.42182  0.00000  0.15635
      26     C     3.09244  3.09244  0.00000 -0.18488
      27     H     0.40898  0.40898  0.00000  0.18204
      28     H     0.40851  0.40851  0.00000  0.18298
      29     H     0.40919  0.40919  0.00000  0.18161

   Total alpha = 44.00000, Total beta = 44.00000, Total charge = -0.00000
