                              Psi4 1.0.54 Driver

  ==> Input File <==

--------------------------------------------------------------------------
set {
	reference rhf
	basis cc-pvtz
}

set_num_threads( 4 )
memory 2 gb

molecule MOL {
0 1

H	 1.747110	 1.942153	 -1.235003
O	 0.847344	 1.807326	 -1.002864
C	 0.700177	 0.619554	 -0.266242
C	 -0.713111	 0.588314	 0.266177
H	 1.400728	 0.593748	 0.562907
H	 0.872767	 -0.250651	 -0.894201
O	 -1.421673	 -0.521378	 -0.196983
H	 -1.244794	 1.469161	 -0.069059
H	 -0.685100	 0.604721	 1.352683
H	 -0.933408	 -1.297830	 0.014544

	symmetry c1
}
set optking {
	frozen_dihedral = ("
		5 3 4 7
	")
}

ee,wfn = optimize('scf', return_wfn=True)
oeprop( wfn, 'DIPOLE', 'QUADRUPOLE', 'MULLIKEN_CHARGES')
f=open( 'psi4out.xyz', 'w' )
f.write( "10  " )
f.write( str(ee) + "\n" )
f.write( MOL.save_string_xyz() )
f.close()
--------------------------------------------------------------------------

    Molecular point group: c1
  Charge       = 0
  Multiplicity = 1
  Basis Set: CC-PVTZ
  Basis Set:
  @DF-RHF Final Energy:  -229.01717139362589
    Total Energy =                       -229.0171713936259437
    Molecular point group: c1
  Basis Set: CC-PVTZ
  Basis Set:
  Basis Set: CC-PVTZ
  Basis Set:
  @DF-RHF Final Energy:  -229.01822417544119
    Total Energy =                       -229.0182241754413326
  Basis Set: CC-PVTZ
  Basis Set:
  Basis Set: CC-PVTZ
  Basis Set:
  @DF-RHF Final Energy:  -229.01867062399830
    Total Energy =                       -229.0186706239984460
  Basis Set: CC-PVTZ
  Basis Set:
  Basis Set: CC-PVTZ
  Basis Set:
  @DF-RHF Final Energy:  -229.01875711328529
    Total Energy =                       -229.0187571132850621
  Basis Set: CC-PVTZ
  Basis Set:
  Basis Set: CC-PVTZ
  Basis Set:
  @DF-RHF Final Energy:  -229.01876780467464
    Total Energy =                       -229.0187678046746100
  Basis Set: CC-PVTZ
  Basis Set:
  Charge       = 0
  Multiplicity = 1
  Basis Set: CC-PVTZ
  Basis Set:

    Orbital Energies (a.u.)
    -----------------------

    Doubly Occupied:

       1A    -20.552131     2A    -20.550010     3A    -11.270966
       4A    -11.267620     5A     -1.375811     6A     -1.361958
       7A     -0.996759     8A     -0.848053     9A     -0.714820
      10A     -0.700313    11A     -0.640196    12A     -0.596488
      13A     -0.585503    14A     -0.532220    15A     -0.489919
      16A     -0.445167    17A     -0.440064

  @DF-RHF Final Energy:  -229.01876836546117

   => Energetics <=

    Nuclear Repulsion Energy =            131.3917925259459309
    One-Electron Energy =                -574.0851257995805099
    Two-Electron Energy =                 213.6745649081734655
    DFT Exchange-Correlation Energy =       0.0000000000000000
    Empirical Dispersion Energy =           0.0000000000000000
    PCM Polarization Energy =               0.0000000000000000
    EFP Energy =                            0.0000000000000000
    Total Energy =                       -229.0187683654611419
    Molecular point group: c1
  Basis Set: CC-PVTZ
  Basis Set:

  -Total Gradient:
     Atom            X                  Y                   Z
    ------   -----------------  -----------------  -----------------
       1       -0.000020797775    -0.000005711365    -0.000000575336
       2       -0.000000823002    -0.000019415839     0.000007953864
       3        0.000003558385    -0.000665667892    -0.000238654554
       4        0.000214980784    -0.000224255103     0.000584499037
       5       -0.000012946826     0.000621254819     0.000049955106
       6        0.000002680574     0.000003195624     0.000009528770
       7       -0.000161112203     0.000332671242    -0.000410017242
       8       -0.000024442389    -0.000033387858    -0.000011652111
       9       -0.000008404180    -0.000001203507     0.000002050671
      10        0.000007306631    -0.000007480120     0.000006911792

  **** Optimization is complete! (in 6 steps) ****
    Final optimized geometry and variables:
    Molecular point group: c1

    Geometry (in Angstrom), charge = 0, multiplicity = 1:

    H            1.910188225692     1.226557343516    -1.016011486515
    O            1.032016951061     1.184549565914    -0.684936333556
    C            0.847387905426     0.000478980031     0.044828591197
    C           -0.587931325374    -0.027666596591     0.578437590132
    H            1.561331452479    -0.044164226709     0.863281343123
    H            0.996912040975    -0.869050843832    -0.587160447781
    O           -1.334858865331    -1.117681199766     0.110380623523
    H           -1.088582357521     0.861378018700     0.227270203255
    H           -0.592910917086    -0.005815759741     1.663683764731
    H           -1.069922547648    -1.906435735194     0.546429040789

  Mulliken Charges: (a.u.)
   Center  Symbol    Alpha    Beta     Spin     Total
       1     H     0.39412  0.39412  0.00000  0.21175
       2     O     4.19684  4.19684  0.00000 -0.39368
       3     C     2.96770  2.96770  0.00000  0.06460
       4     C     2.97554  2.97554  0.00000  0.04892
       5     H     0.47813  0.47813  0.00000  0.04373
       6     H     0.47359  0.47359  0.00000  0.05282
       7     O     4.19897  4.19897  0.00000 -0.39794
       8     H     0.44936  0.44936  0.00000  0.10128
       9     H     0.46980  0.46980  0.00000  0.06041
      10     H     0.39594  0.39594  0.00000  0.20812

   Total alpha = 17.00000, Total beta = 17.00000, Total charge =  0.00000

*** Psi4 exiting successfully. Buy a developer a beer!
