  ==> Input File <==

--------------------------------------------------------------------------
set {
	reference rhf
	basis 6-31G*
}

set_num_threads( 4 )
memory 2 gb

molecule MOL {
0 1

H	 4.151204	 -0.195657	 1.911316
C	 3.489074	 -0.613259	 1.159689
C	 2.178711	 0.169251	 1.084932
H	 4.014296	 -0.591028	 0.208966
H	 3.314095	 -1.654372	 1.416031
C	 1.217350	 -0.386724	 0.039429
H	 2.376937	 1.211033	 0.853011
H	 1.695131	 0.155452	 2.060304
N	 0.000003	 0.397874	 -0.023260
H	 1.690124	 -0.348878	 -0.938332
H	 1.021472	 -1.443961	 0.247416
C	 -1.217365	 -0.386708	 0.039277
H	 -0.000031	 1.072115	 0.718656
C	 -2.452633	 0.504241	 -0.042481
H	 -1.215291	 -1.074557	 -0.802042
H	 -1.269739	 -1.003477	 0.942735
C	 -3.758029	 -0.289423	 -0.010781
H	 -2.394220	 1.093569	 -0.952170
H	 -2.440793	 1.210787	 0.785871
H	 -3.816659	 -0.981993	 -0.845726
H	 -4.617837	 0.370165	 -0.069296
H	 -3.847478	 -0.867502	 0.904682

	symmetry c1
}
set optking {
	frozen_dihedral = ("
		10 6 9 12
	")
}

ee = optimize('scf')
oeprop('DIPOLE', 'QUADRUPOLE', 'MULLIKEN_CHARGES')
f=open( 'psi4out.xyz', 'w' )
f.write( "22  " )
f.write( str(ee) + "\n" )
f.write( MOL.save_string_xyz() )
f.close()
--------------------------------------------------------------------------

    Molecular point group: c1
  Charge       = 0
  Multiplicity = 1
  Basis Set: 6-31G*
  Basis Set:
  @DF-RHF Final Energy:  -290.37759123036528
    Total Energy =                       -290.3775912303647715
    Molecular point group: c1
  Basis Set: 6-31G*
  Basis Set:
  Basis Set: 6-31G*
  Basis Set:
  @DF-RHF Final Energy:  -290.37803304826673
    Total Energy =                       -290.3780330482670138
  Basis Set: 6-31G*
  Basis Set:
  Basis Set: 6-31G*
  Basis Set:
  @DF-RHF Final Energy:  -290.37812775802843
    Total Energy =                       -290.3781277580284836
  Basis Set: 6-31G*
  Basis Set:
  Basis Set: 6-31G*
  Basis Set:
  @DF-RHF Final Energy:  -290.37812910901675
    Total Energy =                       -290.3781291090166405
  Basis Set: 6-31G*
  Basis Set:
  Basis Set: 6-31G*
  Basis Set:
  @DF-RHF Final Energy:  -290.37813126207084
    Total Energy =                       -290.3781312620708945
  Basis Set: 6-31G*
  Basis Set:
  Charge       = 0
  Multiplicity = 1
  Basis Set: 6-31G*
  Basis Set:

    Orbital Energies (a.u.)
    -----------------------

    Doubly Occupied:

       1A    -15.530439     2A    -11.237847     3A    -11.237467
       4A    -11.219119     5A    -11.212906     6A    -11.212603
       7A    -11.209372     8A     -1.201759     9A     -1.060335
      10A     -1.026708    11A     -0.928613    12A     -0.868547
      13A     -0.813362    14A     -0.797492    15A     -0.653748
      16A     -0.641081    17A     -0.614034    18A     -0.609970
      19A     -0.574124    20A     -0.558421    21A     -0.543365
      22A     -0.522978    23A     -0.515663    24A     -0.486050
      25A     -0.482424    26A     -0.476353    27A     -0.469853
      28A     -0.452999    29A     -0.353106

  @DF-RHF Final Energy:  -290.37813141900835

   => Energetics <=

    Nuclear Repulsion Energy =            313.8527266928914514
    One-Electron Energy =               -1013.4402373782470477
    Two-Electron Energy =                 409.2093792663470140
    DFT Exchange-Correlation Energy =       0.0000000000000000
    Empirical Dispersion Energy =           0.0000000000000000
    PCM Polarization Energy =               0.0000000000000000
    EFP Energy =                            0.0000000000000000
    Total Energy =                       -290.3781314190085823
    Molecular point group: c1
  Basis Set: 6-31G*
  Basis Set:

  -Total Gradient:
     Atom            X                  Y                   Z
    ------   -----------------  -----------------  -----------------
       1        0.000006046433    -0.000005113621     0.000004156057
       2        0.000002936278    -0.000004129229     0.000010870392
       3       -0.000006302550     0.000010259621    -0.000017244267
       4       -0.000000057759     0.000003766390    -0.000000083265
       5        0.000000003288     0.000001958526    -0.000004062571
       6       -0.001518012986    -0.002427293516    -0.000027775871
       7       -0.000003472345    -0.000007818056    -0.000000967277
       8        0.000002448783     0.000000882942    -0.000003220936
       9        0.000318376140     0.000268603020    -0.002541155324
      10        0.001217104260     0.002001147826     0.000674719471
      11       -0.000000303351    -0.000004870905     0.000002074752
      12       -0.000016739338     0.000167503313     0.001894325562
      13        0.000000024474    -0.000002259779     0.000006685078
      14       -0.000004152708    -0.000003187322     0.000004308361
      15        0.000000395101    -0.000001753250    -0.000001195567
      16       -0.000000437505     0.000005622560    -0.000002551071
      17       -0.000002190504     0.000001770927     0.000000203489
      18        0.000003256033    -0.000003868226    -0.000000362843
      19        0.000000406565    -0.000000832750     0.000001159474
      20        0.000000304784    -0.000000355221    -0.000000835504
      21        0.000000319058    -0.000000092805    -0.000000018390
      22        0.000000047848     0.000000059554     0.000000970251

  **** Optimization is complete! (in 6 steps) ****
    Final optimized geometry and variables:
    Molecular point group: c1

    Geometry (in Angstrom), charge = 0, multiplicity = 1:

    H            4.259797392956    -0.088566101871     1.562994211337
    C            3.596502585266    -0.500949403870     0.809571100542
    C            2.266971244967     0.250756779948     0.775715863258
    H            4.105394150789    -0.440410953174    -0.147908613274
    H            3.448107638059    -1.552182502403     1.039673687044
    C            1.301369277376    -0.298352754225    -0.273590825326
    H            2.450116922707     1.302881815594     0.568175347328
    H            1.795201502151     0.203124960332     1.755474515806
    N            0.068287139971     0.477793581093    -0.351185621480
    H            1.800207550188    -0.280925619830    -1.239800132406
    H            1.086179738180    -1.340660038377    -0.043116769768
    C           -1.155082302973    -0.298298005006    -0.289614018454
    H            0.055737368920     1.167647358223     0.373810812454
    C           -2.382149383072     0.601745525969    -0.385946929565
    H           -1.156860267096    -0.993194204394    -1.124969221340
    H           -1.217475955954    -0.907044078659     0.618721630288
    C           -3.694480134584    -0.180254372479    -0.349893014255
    H           -2.315194771908     1.180339003848    -1.301936711869
    H           -2.367063984517     1.317654808583     0.434467235798
    H           -3.755692985641    -0.882502589902    -1.176482492736
    H           -4.548286209564     0.485984079193    -0.420110702886
    H           -3.792779220622    -0.746181180005     0.572266684215

  Mulliken Charges: (a.u.)
   Center  Symbol    Alpha    Beta     Spin     Total
       1     H     0.41742  0.41742  0.00000  0.16516
       2     C     3.24253  3.24253  0.00000 -0.48507
       3     C     3.17004  3.17004  0.00000 -0.34008
       4     H     0.41896  0.41896  0.00000  0.16207
       5     H     0.42056  0.42056  0.00000  0.15889
       6     C     3.03626  3.03626  0.00000 -0.07252
       7     H     0.41823  0.41823  0.00000  0.16354
       8     H     0.42356  0.42356  0.00000  0.15287
       9     N     3.86337  3.86337  0.00000 -0.72674
      10     H     0.42136  0.42136  0.00000  0.15728
      11     H     0.42881  0.42881  0.00000  0.14238
      12     C     3.04940  3.04940  0.00000 -0.09881
      13     H     0.33212  0.33212  0.00000  0.33575
      14     C     3.15625  3.15625  0.00000 -0.31249
      15     H     0.42112  0.42112  0.00000  0.15775
      16     H     0.43682  0.43682  0.00000  0.12637
      17     C     3.24313  3.24313  0.00000 -0.48627
      18     H     0.41272  0.41272  0.00000  0.17455
      19     H     0.42697  0.42697  0.00000  0.14606
      20     H     0.42066  0.42066  0.00000  0.15867
      21     H     0.41780  0.41780  0.00000  0.16440
      22     H     0.42188  0.42188  0.00000  0.15624

   Total alpha = 29.00000, Total beta = 29.00000, Total charge =  0.00000
