                              Psi4 1.0.54 Driver

  ==> Input File <==

--------------------------------------------------------------------------
set {
	reference rhf
	basis cc-pvtz
}

set_num_threads( 4 )
memory 2 gb

molecule MOL {
0 1

O	 1.847685	 1.294399	 -0.000190
C	 1.704209	 0.119472	 -0.000093
C	 0.380337	 -0.600947	 -0.000234
O	 2.715427	 -0.733672	 0.000025
C	 -0.824290	 0.329213	 -0.000115
H	 0.371455	 -1.255476	 -0.865660
H	 0.371410	 -1.255787	 0.864952
C	 -0.422893	 1.798934	 -0.082692
H	 -1.408681	 0.156891	 0.896582
H	 -1.470749	 0.076700	 -0.832952
C	 -1.618147	 2.747530	 -0.084271
H	 0.227295	 2.044997	 0.753944
H	 0.165553	 1.964305	 -0.982482
C	 -1.217020	 4.216468	 -0.166305
H	 -2.206071	 2.583896	 0.814465
H	 -2.267407	 2.503734	 -0.920444
H	 -0.594510	 4.500176	 0.675851
H	 -2.087920	 4.861654	 -0.165124
H	 -0.656672	 4.419472	 -1.072966
C	 4.020999	 -0.192556	 0.000019
H	 4.182809	 0.412891	 -0.879449
H	 4.692590	 -1.035653	 0.000152
H	 4.182726	 0.413087	 0.879368

	symmetry c1
}
set optking {
	frozen_dihedral = ("
		9 5 3 6
	")
}

ee,wfn = optimize('scf', return_wfn=True)
oeprop( wfn, 'DIPOLE', 'QUADRUPOLE', 'MULLIKEN_CHARGES')
f=open( 'psi4out.xyz', 'w' )
f.write( "23  " )
f.write( str(ee) + "\n" )
f.write( MOL.save_string_xyz() )
f.close()
--------------------------------------------------------------------------

    Molecular point group: c1
  Charge       = 0
  Multiplicity = 1
  Basis Set: CC-PVTZ
  Basis Set:
  @DF-RHF Final Energy:  -423.09196245796795
    Total Energy =                       -423.0919624579681795
    Molecular point group: c1
  Basis Set: CC-PVTZ
  Basis Set:
  Basis Set: CC-PVTZ
  Basis Set:
  @DF-RHF Final Energy:  -423.11233173787087
    Total Energy =                       -423.1123317378709316
  Basis Set: CC-PVTZ
  Basis Set:
  Basis Set: CC-PVTZ
  Basis Set:
  @DF-RHF Final Energy:  -423.11628598066619
    Total Energy =                       -423.1162859806661345
  Basis Set: CC-PVTZ
  Basis Set:
  Basis Set: CC-PVTZ
  Basis Set:
  @DF-RHF Final Energy:  -423.11421038966995
    Total Energy =                       -423.1142103896700064
  Basis Set: CC-PVTZ
  Basis Set:
  @DF-RHF Final Energy:  -423.11788022517936
    Total Energy =                       -423.1178802251788511
  @DF-RHF Final Energy:  -423.11826592312923
    Total Energy =                       -423.1182659231294565
  @DF-RHF Final Energy:  -423.11836238882842
    Total Energy =                       -423.1183623888284728
  @DF-RHF Final Energy:  -423.11809251190056
    Total Energy =                       -423.1180925119009544
  @DF-RHF Final Energy:  -423.11863599174382
    Total Energy =                       -423.1186359917436448
  @DF-RHF Final Energy:  -423.09473365602605
    Total Energy =                       -423.0947336560261647
  @DF-RHF Final Energy:  -423.11890549730089
    Total Energy =                       -423.1189054973008297
  @DF-RHF Final Energy:  -423.11918505979867
    Total Energy =                       -423.1191850597986104
  @DF-RHF Final Energy:  -423.11774585156445
    Total Energy =                       -423.1177458515652461
  @DF-RHF Final Energy:  -423.11974527043861
    Total Energy =                       -423.1197452704384432
  @DF-RHF Final Energy:  -423.11980663764263
    Total Energy =                       -423.1198066376427960
  @DF-RHF Final Energy:  -423.12050681076306
    Total Energy =                       -423.1205068107635725
  @DF-RHF Final Energy:  -423.12075980915722
    Total Energy =                       -423.1207598091575619
  @DF-RHF Final Energy:  -423.12097540306615
    Total Energy =                       -423.1209754030661543
  @DF-RHF Final Energy:  -423.12116818580012
    Total Energy =                       -423.1211681858002294
  @DF-RHF Final Energy:  -423.12132807826003
    Total Energy =                       -423.1213280782599213
  @DF-RHF Final Energy:  -423.12147702109559
    Total Energy =                       -423.1214770210954157
  Basis Set: CC-PVTZ
  Basis Set:
  @DF-RHF Final Energy:  -423.12155927353245
    Total Energy =                       -423.1215592735325117
  Basis Set: CC-PVTZ
  Basis Set:
  Basis Set: CC-PVTZ
  Basis Set:
  @DF-RHF Final Energy:  -423.12156345848672
    Total Energy =                       -423.1215634584864347
  Basis Set: CC-PVTZ
  Basis Set:
  Basis Set: CC-PVTZ
  Basis Set:
  @DF-RHF Final Energy:  -423.12157055544515
    Total Energy =                       -423.1215705554456008
  Basis Set: CC-PVTZ
  Basis Set:
  Charge       = 0
  Multiplicity = 1
  Basis Set: CC-PVTZ
  Basis Set:

    Orbital Energies (a.u.)
    -----------------------

    Doubly Occupied:

       1A    -20.597392     2A    -20.531479     3A    -11.363622
       4A    -11.278246     5A    -11.232057     6A    -11.228328
       7A    -11.216373     8A    -11.215307     9A    -11.208168
      10A     -1.471763    11A     -1.364033    12A     -1.093717
      13A     -1.042800    14A     -0.984202    15A     -0.936541
      16A     -0.848526    17A     -0.802206    18A     -0.770365
      19A     -0.689975    20A     -0.681529    21A     -0.675956
      22A     -0.652285    23A     -0.606850    24A     -0.599569
      25A     -0.578955    26A     -0.570249    27A     -0.544759
      28A     -0.534394    29A     -0.526457    30A     -0.510337
      31A     -0.486614    32A     -0.474711    33A     -0.467655
      34A     -0.458785    35A     -0.454083    36A     -0.434117

  @DF-RHF Final Energy:  -423.12157087257225

   => Energetics <=

    Nuclear Repulsion Energy =            471.7624162364281233
    One-Electron Energy =               -1511.5031679458420513
    Two-Electron Energy =                 616.6191808368416787
    DFT Exchange-Correlation Energy =       0.0000000000000000
    Empirical Dispersion Energy =           0.0000000000000000
    PCM Polarization Energy =               0.0000000000000000
    EFP Energy =                            0.0000000000000000
    Total Energy =                       -423.1215708725721925
    Molecular point group: c1
  Basis Set: CC-PVTZ
  Basis Set:

  -Total Gradient:
     Atom            X                  Y                   Z
    ------   -----------------  -----------------  -----------------
       1        0.000019283016     0.000010942052    -0.000003359839
       2        0.000022280469    -0.000002474755    -0.000064961708
       3        0.000514714238     0.000519566510    -0.000631437703
       4       -0.000056421367    -0.000024777177     0.000105235184
       5        0.000407957149     0.000638813980     0.000556428353
       6       -0.000495976953    -0.000545311234     0.000441039280
       7       -0.000002609220     0.000000469428    -0.000004828817
       8       -0.000015513267     0.000010008966     0.000000362915
       9       -0.000432787161    -0.000615807369    -0.000375721407
      10       -0.000013879639    -0.000001489308    -0.000009286223
      11       -0.000004197076    -0.000001310441     0.000010184506
      12        0.000004271517     0.000008722410     0.000010570048
      13        0.000012049428    -0.000009197629    -0.000006232613
      14        0.000007444627    -0.000011221608    -0.000003386671
      15       -0.000007871359     0.000000886085     0.000008046763
      16       -0.000000022101     0.000001033538    -0.000000843501
      17       -0.000000886646    -0.000002595803     0.000003085509
      18       -0.000004468103    -0.000002750557    -0.000002496607
      19        0.000004578799     0.000003540514    -0.000006669992
      20        0.000049124096     0.000051771971    -0.000020147322
      21       -0.000005949710    -0.000030461869    -0.000007814558
      22        0.000009006265     0.000003209401     0.000002952520
      23       -0.000010126994    -0.000001567107    -0.000000718117

  **** Optimization is complete! (in 25 steps) ****
    Final optimized geometry and variables:
    Molecular point group: c1

    Geometry (in Angstrom), charge = 0, multiplicity = 1:

    O            1.596539578562    -0.673501176663     1.385953763478
    C            1.073662936210    -1.049944917847     0.391876154010
    C           -0.267482447624    -1.736422109373     0.338401250347
    O            1.616503785501    -0.909179623657    -0.806239207712
    C           -1.483138497162    -0.777592976490     0.182462831327
    H           -0.252691649337    -2.447612960402    -0.474850011324
    H           -0.357399288429    -2.288845904478     1.261927710437
    C           -1.170957966139     0.704270831868    -0.022587234931
    H           -2.111539490743    -0.882402010146     1.058640117106
    H           -2.078983719270    -1.123295822076    -0.654163601411
    C           -2.434956183359     1.549019925632    -0.156889635026
    H           -0.582653894402     1.073655421061     0.811294323981
    H           -0.563325508175     0.830760999882    -0.913673987810
    C           -2.140946596905     3.030872474456    -0.364902584103
    H           -3.045900034008     1.424968516699     0.732934634090
    H           -3.028878381316     1.179676673575    -0.988511272029
    H           -1.576485780580     3.437991857332     0.467139949635
    H           -3.056874084882     3.603374705899    -0.455017367322
    H           -1.560404375815     3.191748985421    -1.267243226086
    C            2.869170434281    -0.258061487108    -0.876925933774
    H            2.796167019263     0.750642413158    -0.498199821459
    H            3.139914882430    -0.245643728846    -1.920248206713
    H            3.610313054796    -0.796197545873    -0.305121788446

  Mulliken Charges: (a.u.)
   Center  Symbol    Alpha    Beta     Spin     Total
       1     O     4.20865  4.20865  0.00000 -0.41731
       2     C     2.79181  2.79181  0.00000  0.41638
       3     C     3.08642  3.08642  0.00000 -0.17285
       4     O     4.15489  4.15489  0.00000 -0.30978
       5     C     3.09983  3.09983  0.00000 -0.19965
       6     H     0.44192  0.44192  0.00000  0.11616
       7     H     0.43731  0.43731  0.00000  0.12539
       8     C     3.09878  3.09878  0.00000 -0.19756
       9     H     0.44787  0.44787  0.00000  0.10426
      10     H     0.44917  0.44917  0.00000  0.10166
      11     C     3.08661  3.08661  0.00000 -0.17322
      12     H     0.44290  0.44290  0.00000  0.11420
      13     H     0.44857  0.44857  0.00000  0.10287
      14     C     3.15029  3.15029  0.00000 -0.30058
      15     H     0.45359  0.45359  0.00000  0.09282
      16     H     0.45461  0.45461  0.00000  0.09078
      17     H     0.45349  0.45349  0.00000  0.09302
      18     H     0.44817  0.44817  0.00000  0.10365
      19     H     0.45551  0.45551  0.00000  0.08898
      20     C     3.04210  3.04210  0.00000 -0.08419
      21     H     0.45338  0.45338  0.00000  0.09324
      22     H     0.44494  0.44494  0.00000  0.11012
      23     H     0.44920  0.44920  0.00000  0.10160

   Total alpha = 36.00000, Total beta = 36.00000, Total charge = -0.00000

*** Psi4 exiting successfully. Buy a developer a beer!
