                              Psi4 1.0.54 Driver

  ==> Input File <==

--------------------------------------------------------------------------
set {
	reference rhf
	basis cc-pvtz
}

set_num_threads( 4 )
memory 2 gb

molecule MOL {
0 1

H	 -3.958600	 0.899431	 -0.410073
C	 -3.249946	 0.323492	 0.148866
C	 -2.114609	 -0.019340	 -0.408650
H	 -3.489424	 0.043045	 1.155741
O	 -1.189946	 -0.765863	 0.237511
H	 -1.860813	 0.263491	 -1.413996
C	 0.026572	 -0.995256	 -0.379403
C	 1.057223	 0.049888	 -0.004615
H	 -0.054361	 -1.010670	 -1.459674
H	 0.397526	 -1.952058	 -0.044198
F	 2.203233	 -0.234060	 -0.590375
F	 0.698147	 1.254887	 -0.392621
F	 1.266440	 0.094219	 1.288722

	symmetry c1
}
set optking {
	frozen_dihedral = ("
		3 5 7 9
	")
}

ee,wfn = optimize('scf', return_wfn=True)
oeprop( wfn, 'DIPOLE', 'QUADRUPOLE', 'MULLIKEN_CHARGES')
f=open( 'psi4out.xyz', 'w' )
f.write( "13  " )
f.write( str(ee) + "\n" )
f.write( MOL.save_string_xyz() )
f.close()
--------------------------------------------------------------------------

    Molecular point group: c1
  Charge       = 0
  Multiplicity = 1
  Basis Set: CC-PVTZ
  Basis Set:
  @DF-RHF Final Energy:  -527.74207835541347
    Total Energy =                       -527.7420783554132413
    Molecular point group: c1
  Basis Set: CC-PVTZ
  Basis Set:
  Basis Set: CC-PVTZ
  Basis Set:
  @DF-RHF Final Energy:  -527.74207972131353
    Total Energy =                       -527.7420797213135302
  Basis Set: CC-PVTZ
  Basis Set:
  Charge       = 0
  Multiplicity = 1
  Basis Set: CC-PVTZ
  Basis Set:

    Orbital Energies (a.u.)
    -----------------------

    Doubly Occupied:

       1A    -26.341791     2A    -26.340492     3A    -26.337988
       4A    -20.604148     5A    -11.497763     6A    -11.320205
       7A    -11.298812     8A    -11.213862     9A     -1.750414
      10A     -1.646918    11A     -1.645323    12A     -1.444796
      13A     -1.088342    14A     -1.020627    15A     -0.932242
      16A     -0.843988    17A     -0.839587    18A     -0.826785
      19A     -0.798648    20A     -0.728924    21A     -0.719247
      22A     -0.703971    23A     -0.681850    24A     -0.668092
      25A     -0.661551    26A     -0.650879    27A     -0.640658
      28A     -0.587948    29A     -0.566382    30A     -0.529083
      31A     -0.518757    32A     -0.356630

  @DF-RHF Final Energy:  -527.74208026697193

   => Energetics <=

    Nuclear Repulsion Energy =            413.4120129754800814
    One-Electron Energy =               -1550.6947817846978523
    Two-Electron Energy =                 609.5406885422457890
    DFT Exchange-Correlation Energy =       0.0000000000000000
    Empirical Dispersion Energy =           0.0000000000000000
    PCM Polarization Energy =               0.0000000000000000
    EFP Energy =                            0.0000000000000000
    Total Energy =                       -527.7420802669719251
    Molecular point group: c1
  Basis Set: CC-PVTZ
  Basis Set:

  -Total Gradient:
     Atom            X                  Y                   Z
    ------   -----------------  -----------------  -----------------
       1       -0.000004266308    -0.000007030764    -0.000005316391
       2        0.000012879668     0.000014495633     0.000001589954
       3       -0.000080016196    -0.000082066320     0.000010042215
       4        0.000000780608    -0.000001175007     0.000003129951
       5        0.000078121797     0.000181577794     0.000005799427
       6        0.000012406396    -0.000013226668    -0.000022190567
       7       -0.000084765102    -0.000270444107     0.000007291831
       8       -0.000039198014     0.000028039270    -0.000008197670
       9        0.000029141495     0.000155183428    -0.000001703615
      10        0.000039010291    -0.000001651788     0.000000533736
      11        0.000009280963    -0.000010087830    -0.000031192356
      12        0.000044872975    -0.000015026084     0.000021626554
      13       -0.000018248571     0.000021412439     0.000018586928

  **** Optimization is complete! (in 3 steps) ****
    Final optimized geometry and variables:
    Molecular point group: c1

    Geometry (in Angstrom), charge = 0, multiplicity = 1:

    H           -3.955606399883     0.902485645500    -0.408217441656
    C           -3.248582444272     0.324082948230     0.150255925029
    C           -2.110336809333    -0.013551829331    -0.404604167014
    H           -3.491908954757     0.037097557362     1.154371963429
    O           -1.186579923967    -0.761427972403     0.240821998796
    H           -1.853021692720     0.276047452285    -1.407188118985
    C            0.029572253100    -0.992625126392    -0.375999446436
    C            1.058891755308     0.054227526300    -0.002341130579
    H           -0.051156233574    -1.007758029926    -1.456243513770
    H            0.401407393889    -1.948949485622    -0.040236498518
    F            2.205211523811    -0.228399262489    -0.588158091229
    F            0.697576750935     1.258146249298    -0.391470426142
    F            1.268353307118     0.100246611673     1.290956510133

  Mulliken Charges: (a.u.)
   Center  Symbol    Alpha    Beta     Spin     Total
       1     H     0.42513  0.42513  0.00000  0.14974
       2     C     3.19755  3.19755  0.00000 -0.39511
       3     C     2.95867  2.95867  0.00000  0.08266
       4     H     0.42475  0.42475  0.00000  0.15050
       5     O     4.14447  4.14447  0.00000 -0.28894
       6     H     0.43463  0.43463  0.00000  0.13074
       7     C     3.01886  3.01886  0.00000 -0.03772
       8     C     2.67547  2.67547  0.00000  0.64905
       9     H     0.45534  0.45534  0.00000  0.08931
      10     H     0.43532  0.43532  0.00000  0.12937
      11     F     4.61264  4.61264  0.00000 -0.22527
      12     F     4.61039  4.61039  0.00000 -0.22078
      13     F     4.60678  4.60678  0.00000 -0.21355

   Total alpha = 32.00000, Total beta = 32.00000, Total charge = -0.00000

*** Psi4 exiting successfully. Buy a developer a beer!
