  ==> Input File <==

--------------------------------------------------------------------------
set {
	reference rhf
	basis 6-31G*
}

set_num_threads( 4 )
memory 2 gb

molecule MOL {
0 1

H	 -0.216825	 0.021369	 -3.357402
C	 0.374198	 0.036393	 -2.447010
C	 -0.521757	 -0.028637	 -1.217342
H	 0.969602	 0.942322	 -2.434777
H	 1.053364	 -0.811668	 -2.481329
N	 0.263400	 0.031178	 0.000000
H	 -1.199035	 0.820290	 -1.219355
H	 -1.147901	 -0.924895	 -1.265384
C	 -0.521757	 -0.028637	 1.217342
H	 0.935769	 -0.712709	 0.000000
C	 -1.973475	 0.344169	 0.947939
H	 -0.474764	 -1.045841	 1.594799
H	 -0.117245	 0.613593	 2.005728
H	 -2.400976	 -0.313039	 0.199150
H	 -2.566340	 0.270308	 1.854252
H	 -2.053960	 1.365359	 0.584148

	symmetry c1
}
set optking {
	frozen_dihedral = ("
		12 9 6 3
	")
}

ee = optimize('scf')
oeprop('DIPOLE', 'QUADRUPOLE', 'MULLIKEN_CHARGES')
f=open( 'psi4out.xyz', 'w' )
f.write( "16  " )
f.write( str(ee) + "\n" )
f.write( MOL.save_string_xyz() )
f.close()
--------------------------------------------------------------------------

    Molecular point group: c1
  Charge       = 0
  Multiplicity = 1
  Basis Set: 6-31G*
  Basis Set:
  @DF-RHF Final Energy:  -212.29629019036906
    Total Energy =                       -212.2962901903691204
    Molecular point group: c1
  Basis Set: 6-31G*
  Basis Set:
  Basis Set: 6-31G*
  Basis Set:
  @DF-RHF Final Energy:  -212.29639338743010
    Total Energy =                       -212.2963933874299869
  Basis Set: 6-31G*
  Basis Set:
  Basis Set: 6-31G*
  Basis Set:
  @DF-RHF Final Energy:  -212.30243608773398
    Total Energy =                       -212.3024360877341223
  Basis Set: 6-31G*
  Basis Set:
  Basis Set: 6-31G*
  Basis Set:
  @DF-RHF Final Energy:  -212.30442095170307
    Total Energy =                       -212.3044209517031504
  Basis Set: 6-31G*
  Basis Set:
  @DF-RHF Final Energy:  -212.30468216743273
    Total Energy =                       -212.3046821674327020
  Basis Set: 6-31G*
  Basis Set:
  @DF-RHF Final Energy:  -212.30475236011065
    Total Energy =                       -212.3047523601105695
  Basis Set: 6-31G*
  Basis Set:
  Basis Set: 6-31G*
  Basis Set:
  @DF-RHF Final Energy:  -212.30475660095740
    Total Energy =                       -212.3047566009574894
  Basis Set: 6-31G*
  Basis Set:
  Basis Set: 6-31G*
  Basis Set:
  @DF-RHF Final Energy:  -212.30475862819503
    Total Energy =                       -212.3047586281949748
  Basis Set: 6-31G*
  Basis Set:
  Charge       = 0
  Multiplicity = 1
  Basis Set: 6-31G*
  Basis Set:

    Orbital Energies (a.u.)
    -----------------------

    Doubly Occupied:

       1A    -15.528789     2A    -11.241270     3A    -11.239506
       4A    -11.211158     5A    -11.207128     6A     -1.196686
       7A     -1.024319     8A     -0.969107     9A     -0.853690
      10A     -0.791789    11A     -0.661509    12A     -0.625973
      13A     -0.608727    14A     -0.592836    15A     -0.538268
      16A     -0.516416    17A     -0.512168    18A     -0.494330
      19A     -0.483040    20A     -0.477665    21A     -0.345034

  @DF-RHF Final Energy:  -212.30475875835387

   => Energetics <=

    Nuclear Repulsion Energy =            191.6577260949448771
    One-Electron Energy =                -665.6861538943858250
    Two-Electron Energy =                 261.7236690410868505
    DFT Exchange-Correlation Energy =       0.0000000000000000
    Empirical Dispersion Energy =           0.0000000000000000
    PCM Polarization Energy =               0.0000000000000000
    EFP Energy =                            0.0000000000000000
    Total Energy =                       -212.3047587583540690
    Molecular point group: c1
  Basis Set: 6-31G*
  Basis Set:

  -Total Gradient:
     Atom            X                  Y                   Z
    ------   -----------------  -----------------  -----------------
       1        0.000002388796    -0.000000784455    -0.000003765832
       2       -0.000000402177    -0.000001722201    -0.000004963180
       3       -0.000497469184     0.004436997165    -0.000031346563
       4       -0.000000814089     0.000002425509    -0.000002025941
       5       -0.000000307826     0.000000655725     0.000000347997
       6        0.001945282604    -0.006229061999     0.000796813438
       7       -0.000001381255    -0.000002156919    -0.000002713638
       8        0.000002966224     0.000004194577     0.000007003529
       9       -0.005968910186     0.000332804658    -0.003551358584
      10        0.000002105377    -0.000010340842     0.000010236733
      11       -0.000005080064     0.000006006979    -0.000008824764
      12        0.004524505076     0.001463758338     0.002792116970
      13       -0.000003278747    -0.000004220675    -0.000000444179
      14        0.000003424866     0.000000324842    -0.000001474678
      15        0.000000067251    -0.000000077471    -0.000000124638
      16       -0.000003096666     0.000001196769     0.000000523330

  **** Optimization is complete! (in 9 steps) ****
    Final optimized geometry and variables:
    Molecular point group: c1

    Geometry (in Angstrom), charge = 0, multiplicity = 1:

    H            0.464545240781    -0.033554197230    -3.112947733480
    C            0.974308112224    -0.006780761917    -2.154847886662
    C           -0.021989497852    -0.124963781864    -1.008028464843
    H            1.527689695635     0.922650920293    -2.081196888418
    H            1.689010390005    -0.825855958852    -2.139641280622
    N            0.674890322755    -0.044293806470     0.260106875789
    H           -0.728455923908     0.693127972770    -1.072495326785
    H           -0.598435848169    -1.047320728425    -1.129475445113
    C           -0.078565657268    -0.120385456141     1.508911701210
    H            1.434636595433    -0.692945765326     0.280588143801
    C           -1.533232449924     0.325387154186     1.421064414883
    H           -0.024459411835    -1.120528146570     1.942316823364
    H            0.421648889776     0.522948525120     2.229035939983
    H           -2.124726357745    -0.314320762343     0.775738847791
    H           -1.975898967166     0.295147637101     2.411506495470
    H           -1.610407498438     1.343823779602     1.055657588036

  Mulliken Charges: (a.u.)
   Center  Symbol    Alpha    Beta     Spin     Total
       1     H     0.42048  0.42048  0.00000  0.15903
       2     C     3.24260  3.24260  0.00000 -0.48521
       3     C     3.04926  3.04926  0.00000 -0.09852
       4     H     0.41244  0.41244  0.00000  0.17513
       5     H     0.42548  0.42548  0.00000  0.14905
       6     N     3.86337  3.86337  0.00000 -0.72675
       7     H     0.41856  0.41856  0.00000  0.16287
       8     H     0.43667  0.43667  0.00000  0.12665
       9     C     3.04206  3.04206  0.00000 -0.08412
      10     H     0.33232  0.33232  0.00000  0.33535
      11     C     3.25427  3.25427  0.00000 -0.50853
      12     H     0.43296  0.43296  0.00000  0.13407
      13     H     0.42022  0.42022  0.00000  0.15955
      14     H     0.41769  0.41769  0.00000  0.16463
      15     H     0.41689  0.41689  0.00000  0.16622
      16     H     0.41472  0.41472  0.00000  0.17057

   Total alpha = 21.00000, Total beta = 21.00000, Total charge =  0.00000
