  ==> Input File <==

--------------------------------------------------------------------------
set {
	reference rhf
	basis 6-31G*
}

set_num_threads( 1 )
memory 2 gb

molecule MOL {
0 1

H	 -3.519146	 1.078596	 1.338418
O	 -2.659361	 1.365404	 1.065862
C	 -2.026376	 0.340750	 0.341611
C	 -0.673256	 0.843270	 -0.132153
H	 -1.892241	 -0.539286	 0.968094
H	 -2.633610	 0.045723	 -0.513304
C	 0.486613	 -0.083066	 0.235839
H	 -0.715586	 0.970948	 -1.210718
H	 -0.508072	 1.829858	 0.297090
C	 1.840406	 0.433480	 -0.254303
H	 0.300215	 -1.068318	 -0.178947
H	 0.519509	 -0.203625	 1.318070
C	 3.000220	 -0.489290	 0.118523
H	 1.809207	 0.553576	 -1.335192
H	 2.021860	 1.424500	 0.157276
H	 2.864959	 -1.479103	 -0.307933
H	 3.946603	 -0.099227	 -0.243630
H	 3.080049	 -0.602997	 1.196117

	symmetry c1
}
set optking {
	frozen_dihedral = ("
		14 10 7 11,
		10 7 4 8,
		1 2 3 4
	")
}

ee = energy('scf')
oeprop('DIPOLE', 'QUADRUPOLE', 'MULLIKEN_CHARGES')
f=open( 'psi4out.xyz', 'w' )
f.write( "18  " )
f.write( str(ee) + "\n" )
f.write( MOL.save_string_xyz() )
f.close()
--------------------------------------------------------------------------

    Molecular point group: c1

    Geometry (in Angstrom), charge = 0, multiplicity = 1:

       Center              X                  Y                   Z               Mass
    ------------   -----------------  -----------------  -----------------  -----------------
           H         -3.454552624577     0.666434203320     1.085723721775     1.007825032070
           O         -2.594767624577     0.953242203320     0.813167721775    15.994914619560
           C         -1.961782624577    -0.071411796680     0.088916721775    12.000000000000
           C         -0.608662624577     0.431108203320    -0.384847278225    12.000000000000
           H         -1.827647624577    -0.951447796680     0.715399721775     1.007825032070
           H         -2.569016624577    -0.366438796680    -0.765998278225     1.007825032070
           C          0.551206375423    -0.495227796680    -0.016855278225    12.000000000000
           H         -0.650992624577     0.558786203320    -1.463412278225     1.007825032070
           H         -0.443478624577     1.417696203320     0.044395721775     1.007825032070
           C          1.904999375423     0.021318203320    -0.506997278225    12.000000000000
           H          0.364808375423    -1.480479796680    -0.431641278225     1.007825032070
           H          0.584102375423    -0.615786796680     1.065375721775     1.007825032070
           C          3.064813375423    -0.901451796680    -0.134171278225    12.000000000000
           H          1.873800375423     0.141414203320    -1.587886278225     1.007825032070
           H          2.086453375423     1.012338203320    -0.095418278225     1.007825032070
           H          2.929552375423    -1.891264796680    -0.560627278225     1.007825032070
           H          4.011196375423    -0.511388796680    -0.496324278225     1.007825032070
           H          3.144642375423    -1.015158796680     0.943422721775     1.007825032070

  Charge       = 0
  Multiplicity = 1
  Basis Set: 6-31G*
  Basis Set:

    Orbital Energies (a.u.)
    -----------------------

    Doubly Occupied:

       1A    -20.551568     2A    -11.266125     3A    -11.214514
       4A    -11.213903     5A    -11.209201     6A    -11.207748
       7A     -1.358194     8A     -1.079157     9A     -1.010268
      10A     -0.913177    11A     -0.818904    12A     -0.791382
      13A     -0.700650    14A     -0.647005    15A     -0.626383
      16A     -0.582119    17A     -0.571017    18A     -0.559535
      19A     -0.527050    20A     -0.496744    21A     -0.489396
      22A     -0.468802    23A     -0.463476    24A     -0.451633
      25A     -0.427056

  @DF-RHF Final Energy:  -271.17377225002542

   => Energetics <=

    Nuclear Repulsion Energy =            245.9765071114345858
    One-Electron Energy =                -855.0106361763066616
    Two-Electron Energy =                 337.8603568148463410
    DFT Exchange-Correlation Energy =       0.0000000000000000
    Empirical Dispersion Energy =           0.0000000000000000
    PCM Polarization Energy =               0.0000000000000000
    EFP Energy =                            0.0000000000000000
    Total Energy =                       -271.1737722500257632

  Mulliken Charges: (a.u.)
   Center  Symbol    Alpha    Beta     Spin     Total
       1     H     0.28206  0.28206  0.00000  0.43589
       2     O     4.37096  4.37096  0.00000 -0.74191
       3     C     2.99433  2.99433  0.00000  0.01134
       4     C     3.16505  3.16505  0.00000 -0.33009
       5     H     0.42959  0.42959  0.00000  0.14081
       6     H     0.43101  0.43101  0.00000  0.13798
       7     C     3.15858  3.15858  0.00000 -0.31715
       8     H     0.42074  0.42074  0.00000  0.15852
       9     H     0.40380  0.40380  0.00000  0.19241
      10     C     3.15213  3.15213  0.00000 -0.30425
      11     H     0.42484  0.42484  0.00000  0.15032
      12     H     0.42045  0.42045  0.00000  0.15910
      13     C     3.23927  3.23927  0.00000 -0.47853
      14     H     0.42303  0.42303  0.00000  0.15393
      15     H     0.42100  0.42100  0.00000  0.15799
      16     H     0.42240  0.42240  0.00000  0.15521
      17     H     0.41925  0.41925  0.00000  0.16150
      18     H     0.42154  0.42154  0.00000  0.15693

   Total alpha = 25.00000, Total beta = 25.00000, Total charge =  0.00000
