  ==> Input File <==

--------------------------------------------------------------------------
set {
	reference rhf
	basis 6-31G*
}

set_num_threads( 1 )
memory 2 gb

molecule MOL {
0 1

H	 -2.698709	 -0.000305	 0.034435
C	 -1.693833	 0.000034	 0.434417
O	 -0.828952	 -0.000968	 -0.659236
H	 -1.574200	 0.882896	 1.055746
H	 -1.574147	 -0.881698	 1.057355
C	 -1.250949	 0.616423	 -1.853075
C	 -2.461362	 -0.077461	 -2.474638
C	 -1.463677	 2.120234	 -1.691035
H	 -0.407485	 0.470373	 -2.517356
H	 -2.295074	 -1.148011	 -2.527736
H	 -2.624178	 0.292258	 -3.482127
H	 -3.371643	 0.100762	 -1.910910
H	 -0.607210	 2.570691	 -1.201126
H	 -1.582448	 2.585248	 -2.664750
H	 -2.351126	 2.349532	 -1.109917

	symmetry c1
}
set optking {
	frozen_dihedral = ("
		9 6 3 2
	")
}

ee = energy('scf')
oeprop('DIPOLE', 'QUADRUPOLE', 'MULLIKEN_CHARGES')
f=open( 'psi4out.xyz', 'w' )
f.write( "15  " )
f.write( str(ee) + "\n" )
f.write( MOL.save_string_xyz() )
f.close()
--------------------------------------------------------------------------

    Molecular point group: c1

    Geometry (in Angstrom), charge = 0, multiplicity = 1:

       Center              X                  Y                   Z               Mass
    ------------   -----------------  -----------------  -----------------  -----------------
           H         -1.147102033563    -0.529154190504     1.261959050084     1.007825032070
           C         -0.142226033563    -0.528815190504     1.661941050084    12.000000000000
           O          0.722654966437    -0.529817190504     0.568288050084    15.994914619560
           H         -0.022593033563     0.354046809496     2.283270050084     1.007825032070
           H         -0.022540033563    -1.410547190504     2.284879050084     1.007825032070
           C          0.300657966437     0.087573809496    -0.625550949916    12.000000000000
           C         -0.909755033563    -0.606310190504    -1.247113949916    12.000000000000
           C          0.087929966437     1.591384809496    -0.463510949916    12.000000000000
           H          1.144121966437    -0.058476190504    -1.289831949916     1.007825032070
           H         -0.743467033563    -1.676860190504    -1.300211949916     1.007825032070
           H         -1.072571033563    -0.236591190504    -2.254602949916     1.007825032070
           H         -1.820036033563    -0.428087190504    -0.683385949916     1.007825032070
           H          0.944396966437     2.041841809496     0.026398050084     1.007825032070
           H         -0.030841033563     2.056398809496    -1.437225949916     1.007825032070
           H         -0.799519033563     1.820682809496     0.117607050084     1.007825032070

  Charge       = 0
  Multiplicity = 1
  Basis Set: 6-31G*
  Basis Set:

    Orbital Energies (a.u.)
    -----------------------

    Doubly Occupied:

       1A    -20.545816     2A    -11.275534     3A    -11.261086
       4A    -11.211280     5A    -11.210690     6A     -1.369636
       7A     -1.050476     8A     -0.940253     9A     -0.931277
      10A     -0.781600    11A     -0.676505    12A     -0.639452
      13A     -0.632702    14A     -0.575220    15A     -0.565056
      16A     -0.550449    17A     -0.535709    18A     -0.501276
      19A     -0.497260    20A     -0.439431    21A     -0.404666

  @DF-RHF Final Energy:  -232.13389795484426

   => Energetics <=

    Nuclear Repulsion Energy =            198.9588510316656880
    One-Electron Energy =                -708.9946583307607852
    Two-Electron Energy =                 277.9019093442510666
    DFT Exchange-Correlation Energy =       0.0000000000000000
    Empirical Dispersion Energy =           0.0000000000000000
    PCM Polarization Energy =               0.0000000000000000
    EFP Energy =                            0.0000000000000000
    Total Energy =                       -232.1338979548440307

  Mulliken Charges: (a.u.)
   Center  Symbol    Alpha    Beta     Spin     Total
       1     H     0.43277  0.43277  0.00000  0.13445
       2     C     3.07723  3.07723  0.00000 -0.15445
       3     O     4.31407  4.31407  0.00000 -0.62814
       4     H     0.42675  0.42675  0.00000  0.14650
       5     H     0.41519  0.41519  0.00000  0.16962
       6     C     2.91081  2.91081  0.00000  0.17837
       7     C     3.25372  3.25372  0.00000 -0.50744
       8     C     3.25201  3.25201  0.00000 -0.50402
       9     H     0.41456  0.41456  0.00000  0.17088
      10     H     0.41089  0.41089  0.00000  0.17822
      11     H     0.41876  0.41876  0.00000  0.16249
      12     H     0.42059  0.42059  0.00000  0.15882
      13     H     0.41119  0.41119  0.00000  0.17763
      14     H     0.41969  0.41969  0.00000  0.16063
      15     H     0.42178  0.42178  0.00000  0.15644

   Total alpha = 21.00000, Total beta = 21.00000, Total charge = -0.00000
