                              Psi4 1.0.54 Driver

  ==> Input File <==

--------------------------------------------------------------------------
set {
	reference rhf
	basis cc-pvtz
}

set_num_threads( 4 )
memory 2 gb

molecule MOL {
0 1

O	 -0.294688	 1.318815	 -0.000872
C	 -0.448732	 0.145721	 -0.000187
C	 -1.780748	 -0.548101	 0.000195
O	 0.550743	 -0.719877	 0.000412
H	 -1.859389	 -1.183260	 -0.872613
H	 -2.570236	 0.185547	 -0.001342
H	 -1.860233	 -1.180337	 0.875064
C	 0.897712	 -1.309708	 -1.236834
H	 0.063730	 -1.863466	 -1.641623
H	 1.720583	 -1.974095	 -1.029092
H	 1.197960	 -0.554350	 -1.947684

	symmetry c1
}
set optking {
	frozen_dihedral = ("
		8 4 2 1
	")
}

ee,wfn = optimize('scf', return_wfn=True)
oeprop( wfn, 'DIPOLE', 'QUADRUPOLE', 'MULLIKEN_CHARGES')
f=open( 'psi4out.xyz', 'w' )
f.write( "11  " )
f.write( str(ee) + "\n" )
f.write( MOL.save_string_xyz() )
f.close()
--------------------------------------------------------------------------

    Molecular point group: c1
  Charge       = 0
  Multiplicity = 1
  Basis Set: CC-PVTZ
  Basis Set:
  @DF-RHF Final Energy:  -266.91699267729871
    Total Energy =                       -266.9169926772985946
    Molecular point group: c1
  Basis Set: CC-PVTZ
  Basis Set:
  Basis Set: CC-PVTZ
  Basis Set:
  @DF-RHF Final Energy:  -266.47473872880175
    Total Energy =                       -266.4747387288017535
  Basis Set: CC-PVTZ
  Basis Set:
  Basis Set: CC-PVTZ
  Basis Set:
  @DF-RHF Final Energy:  -266.64547263542408
    Total Energy =                       -266.6454726354240847
  Basis Set: CC-PVTZ
  Basis Set:
  Basis Set: CC-PVTZ
  Basis Set:
  @DF-RHF Final Energy:  -266.11487512243622
    Total Energy =                       -266.1148751224362172
  Basis Set: CC-PVTZ
  Basis Set:
  @DF-RHF Final Energy:  -266.38612649358038
    Total Energy =                       -266.3861264935803774
  @DF-RHF Final Energy:  -266.40274143936284
    Total Energy =                       -266.4027414393628419
  @DF-RHF Final Energy:  -266.47800849283448
    Total Energy =                       -266.4780084928341353
  @DF-RHF Final Energy:  -266.67849821512493
    Total Energy =                       -266.6784982151249324
  @DF-RHF Final Energy:  -266.12801067057654
    Total Energy =                       -266.1280106705764865
  @DF-RHF Final Energy:  -266.37791543238188
    Total Energy =                       -266.3779154323817693
  @DF-RHF Final Energy:  -266.63282786056993
    Total Energy =                       -266.6328278605697619
  @DF-RHF Final Energy:  -266.73711173365604
    Total Energy =                       -266.7371117336562065
  @DF-RHF Final Energy:  -266.36912561460292
    Total Energy =                       -266.3691256146029218
  @DF-RHF Final Energy:  -266.62225139606096
    Total Energy =                       -266.6222513960609604
  @DF-RHF Final Energy:  -266.64709124412593
    Total Energy =                       -266.6470912441258747
  @DF-RHF Final Energy:  -266.67485428691077
    Total Energy =                       -266.6748542869108860
  @DF-RHF Final Energy:  -266.70394241007136
    Total Energy =                       -266.7039424100711926
  @DF-RHF Final Energy:  -266.72937522013751
    Total Energy =                       -266.7293752201374559
  @DF-RHF Final Energy:  -266.76824809540756
    Total Energy =                       -266.7682480954074435
  @DF-RHF Final Energy:  -266.83092699604197
    Total Energy =                       -266.8309269960419670
  @DF-RHF Final Energy:  -266.89953137856804
    Total Energy =                       -266.8995313785680992
  @DF-RHF Final Energy:  -266.90084255555530
    Total Energy =                       -266.9008425555554140
  @DF-RHF Final Energy:  -266.91572960685721
    Total Energy =                       -266.9157296068573260
  @DF-RHF Final Energy:  -266.91428767581232
    Total Energy =                       -266.9142876758120906
  @DF-RHF Final Energy:  -266.91662350919432
    Total Energy =                       -266.9166235091943804
  @DF-RHF Final Energy:  -266.91827784540442
    Total Energy =                       -266.9182778454045319
  @DF-RHF Final Energy:  -266.91813686700368
    Total Energy =                       -266.9181368670036818
  @DF-RHF Final Energy:  -266.91869061665608
    Total Energy =                       -266.9186906166562494
  @DF-RHF Final Energy:  -266.91882633738078
    Total Energy =                       -266.9188263373807217
  Basis Set: CC-PVTZ
  Basis Set:
  @DF-RHF Final Energy:  -266.91891676110902
    Total Energy =                       -266.9189167611090170
  Basis Set: CC-PVTZ
  Basis Set:
  Basis Set: CC-PVTZ
  Basis Set:
  @DF-RHF Final Energy:  -266.91894357600233
    Total Energy =                       -266.9189435760024480
  Basis Set: CC-PVTZ
  Basis Set:
  Basis Set: CC-PVTZ
  Basis Set:
  @DF-RHF Final Energy:  -266.91895224469681
    Total Energy =                       -266.9189522446968112
  Basis Set: CC-PVTZ
  Basis Set:
  Charge       = 0
  Multiplicity = 1
  Basis Set: CC-PVTZ
  Basis Set:

    Orbital Energies (a.u.)
    -----------------------

    Doubly Occupied:

       1A    -20.580931     2A    -20.547011     3A    -11.372366
       4A    -11.291911     5A    -11.238579     6A     -1.463881
       7A     -1.372642     8A     -1.026355     9A     -0.967616
      10A     -0.780830    11A     -0.697389    12A     -0.687323
      13A     -0.672215    14A     -0.617256    15A     -0.589715
      16A     -0.580092    17A     -0.544390    18A     -0.497287
      19A     -0.464817    20A     -0.444385

  @DF-RHF Final Energy:  -266.91895314802190

   => Energetics <=

    Nuclear Repulsion Energy =            182.7189966049493819
    One-Electron Energy =                -726.4019153593500278
    Two-Electron Energy =                 276.7639656063785765
    DFT Exchange-Correlation Energy =       0.0000000000000000
    Empirical Dispersion Energy =           0.0000000000000000
    PCM Polarization Energy =               0.0000000000000000
    EFP Energy =                            0.0000000000000000
    Total Energy =                       -266.9189531480220126
    Molecular point group: c1
  Basis Set: CC-PVTZ
  Basis Set:

  -Total Gradient:
     Atom            X                  Y                   Z
    ------   -----------------  -----------------  -----------------
       1       -0.001001747423    -0.000467629567     0.000027437262
       2        0.001213895568     0.000882338669    -0.000323125574
       3        0.000012132668     0.000113151558     0.000123384663
       4        0.000378026231    -0.000822685374     0.000827353154
       5        0.000018955619    -0.000016362512     0.000018729843
       6        0.000011916563    -0.000088540124    -0.000134604703
       7       -0.000055824139    -0.000008261728    -0.000000194826
       8       -0.000686268310     0.000437609939    -0.000568871213
       9        0.000024635030    -0.000036524109     0.000027231716
      10        0.000007243469    -0.000026388674    -0.000039427675
      11        0.000077034725     0.000033291920     0.000042087352

  **** Optimization is complete! (in 33 steps) ****
    Final optimized geometry and variables:
    Molecular point group: c1

    Geometry (in Angstrom), charge = 0, multiplicity = 1:

    O           -0.030731850826    -0.112565178470     1.555323612174
    C           -0.279923996748     0.095692252945     0.426009951323
    C           -1.084794064638     1.269477686859    -0.060652670413
    O            0.080122751497    -0.771213308197    -0.543833413699
    H           -0.549971776439     1.809919174990    -0.830990327707
    H           -1.308537548416     1.928656161388     0.761994968080
    H           -2.003400210056     0.900488831473    -0.500487258680
    C            1.236722449828    -0.472808014760    -1.290046652705
    H            1.129597910173     0.456541702761    -1.837509611183
    H            1.368704948606    -1.279688128148    -1.992277289413
    H            2.103759059466    -0.414912382163    -0.643696015648

  Mulliken Charges: (a.u.)
   Center  Symbol    Alpha    Beta     Spin     Total
       1     O     4.16647  4.16647  0.00000 -0.33294
       2     C     2.79907  2.79907  0.00000  0.40187
       3     C     3.14382  3.14382  0.00000 -0.28765
       4     O     4.16270  4.16270  0.00000 -0.32540
       5     H     0.45152  0.45152  0.00000  0.09695
       6     H     0.43634  0.43634  0.00000  0.12732
       7     H     0.44337  0.44337  0.00000  0.11325
       8     C     3.03130  3.03130  0.00000 -0.06261
       9     H     0.46682  0.46682  0.00000  0.06636
      10     H     0.44210  0.44210  0.00000  0.11580
      11     H     0.45648  0.45648  0.00000  0.08704

   Total alpha = 20.00000, Total beta = 20.00000, Total charge =  0.00000

*** Psi4 exiting successfully. Buy a developer a beer!
