  ==> Input File <==

--------------------------------------------------------------------------
set {
	reference rhf
	basis 6-31G*
}

set_num_threads( 4 )
memory 2 gb

molecule MOL {
0 1

H	 -2.480931	 -0.565790	 0.975890
O	 -2.347518	 -0.290803	 0.079804
C	 -1.184022	 0.487508	 -0.006784
C	 0.062599	 -0.378592	 0.031606
H	 -1.176523	 1.099369	 -0.904519
H	 -1.187323	 1.153111	 0.844927
O	 1.171513	 0.459272	 -0.058250
H	 0.050699	 -1.089204	 -0.797170
H	 0.078739	 -0.954914	 0.954740
C	 2.397842	 -0.198080	 -0.002151
H	 2.508049	 -0.905315	 -0.822092
H	 3.173794	 0.550865	 -0.078850
H	 2.517602	 -0.735921	 0.936026

	symmetry c1
}
set optking {
	frozen_dihedral = ("
		1 2 3 5
	")
}

ee = optimize('scf')
oeprop('DIPOLE', 'QUADRUPOLE', 'MULLIKEN_CHARGES')
f=open( 'psi4out.xyz', 'w' )
f.write( "13  " )
f.write( str(ee) + "\n" )
f.write( MOL.save_string_xyz() )
f.close()
--------------------------------------------------------------------------

    Molecular point group: c1
  Charge       = 0
  Multiplicity = 1
  Basis Set: 6-31G*
  Basis Set:
  @DF-RHF Final Energy:  -267.94881745352473
    Total Energy =                       -267.9488174535246117
    Molecular point group: c1
  Basis Set: 6-31G*
  Basis Set:
  Basis Set: 6-31G*
  Basis Set:
  @DF-RHF Final Energy:  -267.95019860042402
    Total Energy =                       -267.9501986004240734
  Basis Set: 6-31G*
  Basis Set:
  Basis Set: 6-31G*
  Basis Set:
  @DF-RHF Final Energy:  -267.95058760126062
    Total Energy =                       -267.9505876012607359
  Basis Set: 6-31G*
  Basis Set:
  Basis Set: 6-31G*
  Basis Set:
  @DF-RHF Final Energy:  -267.95059567835563
    Total Energy =                       -267.9505956783555121
  Basis Set: 6-31G*
  Basis Set:
  Charge       = 0
  Multiplicity = 1
  Basis Set: 6-31G*
  Basis Set:

    Orbital Energies (a.u.)
    -----------------------

    Doubly Occupied:

       1A    -20.561892     2A    -20.560038     3A    -11.270058
       4A    -11.269901     5A    -11.269017     6A     -1.388200
       7A     -1.364972     8A     -1.018333     9A     -0.913094
      10A     -0.840784    11A     -0.710309    12A     -0.674075
      13A     -0.659004    14A     -0.637878    15A     -0.596441
      16A     -0.567130    17A     -0.545566    18A     -0.487887
      19A     -0.483106    20A     -0.438279    21A     -0.421611

  @DF-RHF Final Energy:  -267.95059635234884

   => Energetics <=

    Nuclear Repulsion Energy =            190.2006462133192883
    One-Electron Energy =                -742.9473326329807605
    Two-Electron Energy =                 284.7960900673126048
    DFT Exchange-Correlation Energy =       0.0000000000000000
    Empirical Dispersion Energy =           0.0000000000000000
    PCM Polarization Energy =               0.0000000000000000
    EFP Energy =                            0.0000000000000000
    Total Energy =                       -267.9505963523488958
    Molecular point group: c1
  Basis Set: 6-31G*
  Basis Set:

  -Total Gradient:
     Atom            X                  Y                   Z
    ------   -----------------  -----------------  -----------------
       1       -0.000279782561     0.000430010201     0.000055547568
       2        0.000267744021    -0.000460534029    -0.000014229789
       3        0.000178742007    -0.000338329695    -0.000199768306
       4       -0.000046793512     0.000045728939    -0.000027095701
       5       -0.000172578600     0.000324563819     0.000196905945
       6        0.000000406129    -0.000010054482    -0.000000468757
       7        0.000038048465    -0.000010833295     0.000001978295
       8       -0.000000981269    -0.000019782167    -0.000001873782
       9       -0.000008860088     0.000028224015    -0.000020457026
      10        0.000016182383     0.000016653511     0.000015587845
      11       -0.000006576421     0.000003770985    -0.000001983440
      12        0.000007479162    -0.000004563065    -0.000002838937
      13        0.000006970285    -0.000004854738    -0.000001303914

  **** Optimization is complete! (in 5 steps) ****
    Final optimized geometry and variables:
    Molecular point group: c1

    Geometry (in Angstrom), charge = 0, multiplicity = 1:

    H           -2.521009137968    -0.551395898395     0.924512706274
    O           -2.346129790139    -0.301639793481     0.028531159283
    C           -1.184761866432     0.483828486982    -0.025915325302
    C            0.063124649514    -0.379493443459     0.020023389842
    H           -1.213917816537     1.030812411872    -0.958007455372
    H           -1.155028300341     1.211267430871     0.780280032380
    O            1.171689099129     0.462472009114    -0.040292247732
    H            0.054421323209    -1.077990211955    -0.814488796849
    H            0.077236500293    -0.967816798446     0.939121703140
    C            2.398036381310    -0.197344120075    -0.041097595571
    H            2.491796920288    -0.860207036626    -0.898808215503
    H            3.173587816960     0.554306006432    -0.091898956032
    H            2.534272548615    -0.784056738374     0.865442286370

  Mulliken Charges: (a.u.)
   Center  Symbol    Alpha    Beta     Spin     Total
       1     H     0.28065  0.28065  0.00000  0.43870
       2     O     4.37123  4.37123  0.00000 -0.74246
       3     C     3.00583  3.00583  0.00000 -0.01166
       4     C     2.99532  2.99532  0.00000  0.00935
       5     H     0.40874  0.40874  0.00000  0.18253
       6     H     0.42243  0.42243  0.00000  0.15514
       7     O     4.30782  4.30782  0.00000 -0.61565
       8     H     0.42335  0.42335  0.00000  0.15330
       9     H     0.43686  0.43686  0.00000  0.12629
      10     C     3.07986  3.07986  0.00000 -0.15973
      11     H     0.42773  0.42773  0.00000  0.14455
      12     H     0.41087  0.41087  0.00000  0.17826
      13     H     0.42930  0.42930  0.00000  0.14139

   Total alpha = 21.00000, Total beta = 21.00000, Total charge =  0.00000
