  ==> Input File <==

--------------------------------------------------------------------------
set {
	reference rhf
	basis 6-31G*
}

set_num_threads( 1 )
memory 2 gb

molecule MOL {
0 1

H	 -4.031818	 -0.453427	 -0.000094
C	 -2.967712	 -0.297022	 -0.000064
C	 -2.458620	 0.992929	 0.000032
C	 -2.109895	 -1.385637	 -0.000122
H	 -3.124998	 1.836319	 0.000077
C	 -1.090278	 1.193236	 0.000070
H	 -2.506361	 -2.384847	 -0.000198
C	 -0.739812	 -1.187531	 -0.000085
H	 -0.678594	 2.184290	 0.000146
C	 -0.226438	 0.104061	 0.000012
H	 -0.072310	 -2.027032	 -0.000131
C	 1.239129	 0.373821	 0.000060
O	 1.940715	 -0.570194	 0.609335
O	 1.738825	 1.335730	 -0.493798
C	 3.345497	 -0.393882	 0.655938
H	 3.754805	 -0.351612	 -0.342799
H	 3.731846	 -1.251778	 1.183767
H	 3.595426	 0.515407	 1.182862

	symmetry c1
}
set optking {
	frozen_dihedral = ("
		12 13 15 16,
		10 12 13 15
	")
}

ee = energy('scf')
oeprop('DIPOLE', 'QUADRUPOLE', 'MULLIKEN_CHARGES')
f=open( 'psi4out.xyz', 'w' )
f.write( "18  " )
f.write( str(ee) + "\n" )
f.write( MOL.save_string_xyz() )
f.close()
--------------------------------------------------------------------------

    Molecular point group: c1

    Geometry (in Angstrom), charge = 0, multiplicity = 1:

       Center              X                  Y                   Z               Mass
    ------------   -----------------  -----------------  -----------------  -----------------
           H         -4.027625522345    -0.476187193895    -0.086513341894     1.007825032070
           C         -2.963519522345    -0.319782193895    -0.086483341894    12.000000000000
           C         -2.454427522345     0.970168806105    -0.086387341894    12.000000000000
           C         -2.105702522345    -1.408397193895    -0.086541341894    12.000000000000
           H         -3.120805522345     1.813558806105    -0.086342341894     1.007825032070
           C         -1.086085522345     1.170475806105    -0.086349341894    12.000000000000
           H         -2.502168522345    -2.407607193895    -0.086617341894     1.007825032070
           C         -0.735619522345    -1.210291193895    -0.086504341894    12.000000000000
           H         -0.674401522345     2.161529806105    -0.086273341894     1.007825032070
           C         -0.222245522345     0.081300806105    -0.086407341894    12.000000000000
           H         -0.068117522345    -2.049792193895    -0.086550341894     1.007825032070
           C          1.243321477655     0.351060806105    -0.086359341894    12.000000000000
           O          1.944907477655    -0.592954193895     0.522915658106    15.994914619560
           O          1.743017477655     1.312969806105    -0.580217341894    15.994914619560
           C          3.349689477655    -0.416642193895     0.569518658106    12.000000000000
           H          3.758997477655    -0.374372193895    -0.429218341894     1.007825032070
           H          3.736038477655    -1.274538193895     1.097347658106     1.007825032070
           H          3.599618477655     0.492646806105     1.096442658106     1.007825032070

  Charge       = 0
  Multiplicity = 1
  Basis Set: 6-31G*
  Basis Set:

    Orbital Energies (a.u.)
    -----------------------

    Doubly Occupied:

       1A    -20.608240     2A    -20.545625     3A    -11.378269
       4A    -11.282958     5A    -11.247300     6A    -11.244971
       7A    -11.244334     8A    -11.242649     9A    -11.238418
      10A    -11.237679    11A     -1.473120    12A     -1.364198
      13A     -1.165834    14A     -1.048447    15A     -1.025503
      16A     -0.978511    17A     -0.860529    18A     -0.835794
      19A     -0.778348    20A     -0.739009    21A     -0.683772
      22A     -0.677721    23A     -0.673626    24A     -0.630772
      25A     -0.626047    26A     -0.597645    27A     -0.587264
      28A     -0.557004    29A     -0.531287    30A     -0.516359
      31A     -0.505245    32A     -0.500533    33A     -0.458290
      34A     -0.444874    35A     -0.344142    36A     -0.341735

  @DF-RHF Final Energy:  -457.34808393326256

   => Energetics <=

    Nuclear Repulsion Energy =            492.6002432630967292
    One-Electron Energy =               -1599.4648420938469826
    Two-Electron Energy =                 649.5165148974870135
    DFT Exchange-Correlation Energy =       0.0000000000000000
    Empirical Dispersion Energy =           0.0000000000000000
    PCM Polarization Energy =               0.0000000000000000
    EFP Energy =                            0.0000000000000000
    Total Energy =                       -457.3480839332632968

  Mulliken Charges: (a.u.)
   Center  Symbol    Alpha    Beta     Spin     Total
       1     H     0.39562  0.39562  0.00000  0.20876
       2     C     3.09165  3.09165  0.00000 -0.18331
       3     C     3.10551  3.10551  0.00000 -0.21103
       4     C     3.10595  3.10595  0.00000 -0.21190
       5     H     0.39529  0.39529  0.00000  0.20941
       6     C     3.09038  3.09038  0.00000 -0.18077
       7     H     0.39602  0.39602  0.00000  0.20795
       8     C     3.08920  3.08920  0.00000 -0.17840
       9     H     0.37980  0.37980  0.00000  0.24039
      10     C     3.05099  3.05099  0.00000 -0.10198
      11     H     0.38437  0.38437  0.00000  0.23126
      12     C     2.60425  2.60425  0.00000  0.79150
      13     O     4.30707  4.30707  0.00000 -0.61415
      14     O     4.28775  4.28775  0.00000 -0.57550
      15     C     3.09331  3.09331  0.00000 -0.18662
      16     H     0.40780  0.40780  0.00000  0.18441
      17     H     0.40757  0.40757  0.00000  0.18486
      18     H     0.40745  0.40745  0.00000  0.18510

   Total alpha = 36.00000, Total beta = 36.00000, Total charge = -0.00000
