  ==> Input File <==

--------------------------------------------------------------------------
set {
	reference rhf
	basis 6-31G*
}

set_num_threads( 4 )
memory 2 gb

molecule MOL {
0 1

H	 -0.658909	 4.066508	 -0.678139
O	 -0.822974	 3.204056	 -0.324660
C	 0.326448	 2.407997	 -0.467089
C	 0.031547	 1.023609	 0.088541
H	 1.161119	 2.843223	 0.079529
H	 0.621245	 2.347021	 -1.512306
C	 -1.134819	 0.293262	 -0.585751
H	 -0.181922	 1.126884	 1.148754
H	 0.938021	 0.426380	 0.005817
C	 -1.917817	 -0.639439	 0.339494
H	 -0.758119	 -0.268455	 -1.433105
H	 -1.813832	 1.041889	 -0.986690
H	 -2.777680	 -1.057197	 -0.174994
H	 -1.310268	 -1.471279	 0.680599
H	 -2.283753	 -0.111424	 1.216626

	symmetry c1
}
set optking {
	frozen_dihedral = ("
		8 4 7 11
	")
}

ee = optimize('scf')
oeprop('DIPOLE', 'QUADRUPOLE', 'MULLIKEN_CHARGES')
f=open( 'psi4out.xyz', 'w' )
f.write( "15  " )
f.write( str(ee) + "\n" )
f.write( MOL.save_string_xyz() )
f.close()
--------------------------------------------------------------------------

    Molecular point group: c1
  Charge       = 0
  Multiplicity = 1
  Basis Set: 6-31G*
  Basis Set:
  @DF-RHF Final Energy:  -232.14182661938858
    Total Energy =                       -232.1418266193884392
    Molecular point group: c1
  Basis Set: 6-31G*
  Basis Set:
  Basis Set: 6-31G*
  Basis Set:
  @DF-RHF Final Energy:  -232.14272416492173
    Total Energy =                       -232.1427241649217308
  Basis Set: 6-31G*
  Basis Set:
  Basis Set: 6-31G*
  Basis Set:
  @DF-RHF Final Energy:  -232.14279951642629
    Total Energy =                       -232.1427995164261802
  Basis Set: 6-31G*
  Basis Set:
  Basis Set: 6-31G*
  Basis Set:
  @DF-RHF Final Energy:  -232.14280915273022
    Total Energy =                       -232.1428091527302513
  Basis Set: 6-31G*
  Basis Set:
  Basis Set: 6-31G*
  Basis Set:
  @DF-RHF Final Energy:  -232.14281662231161
    Total Energy =                       -232.1428166223119547
  Basis Set: 6-31G*
  Basis Set:
  Charge       = 0
  Multiplicity = 1
  Basis Set: 6-31G*
  Basis Set:

    Orbital Energies (a.u.)
    -----------------------

    Doubly Occupied:

       1A    -20.553387     2A    -11.268439     3A    -11.211868
       4A    -11.208656     5A    -11.203414     6A     -1.360095
       7A     -1.063064     8A     -0.973276     9A     -0.855219
      10A     -0.786726    11A     -0.705587    12A     -0.634358
      13A     -0.611664    14A     -0.593196    15A     -0.545319
      16A     -0.524587    17A     -0.512967    18A     -0.475257
      19A     -0.462814    20A     -0.456833    21A     -0.430123

  @DF-RHF Final Energy:  -232.14281674609353

   => Energetics <=

    Nuclear Repulsion Energy =            188.9866706995312313
    One-Electron Energy =                -689.3852794536386455
    Two-Electron Energy =                 268.2557920080138274
    DFT Exchange-Correlation Energy =       0.0000000000000000
    Empirical Dispersion Energy =           0.0000000000000000
    PCM Polarization Energy =               0.0000000000000000
    EFP Energy =                            0.0000000000000000
    Total Energy =                       -232.1428167460935583
    Molecular point group: c1
  Basis Set: 6-31G*
  Basis Set:

  -Total Gradient:
     Atom            X                  Y                   Z
    ------   -----------------  -----------------  -----------------
       1        0.000000821242    -0.000000097372     0.000002005761
       2       -0.000011971265    -0.000016397603    -0.000022161877
       3        0.000004839121     0.000011135824     0.000034046022
       4       -0.002040381946     0.003666008415    -0.000329020095
       5        0.000013782558    -0.000020522983    -0.000005363031
       6       -0.000009888548     0.000001793371    -0.000001868203
       7       -0.000224339631     0.003030314496    -0.002732049619
       8        0.001745317564    -0.003523696020     0.000731169867
       9        0.000005187991     0.000010372320    -0.000004935220
      10        0.000012985491     0.000006127686    -0.000006022966
      11        0.000502304022    -0.003168558282     0.002349369538
      12       -0.000009943954    -0.000006187437    -0.000008875999
      13        0.000006425326     0.000010271263    -0.000003533928
      14        0.000003253602    -0.000006539542    -0.000001775306
      15        0.000001608426     0.000005975863    -0.000000984943

  **** Optimization is complete! (in 6 steps) ****
    Final optimized geometry and variables:
    Molecular point group: c1

    Geometry (in Angstrom), charge = 0, multiplicity = 1:

    H            0.114027113815     2.769175284577    -0.481736264815
    O           -0.055908614087     1.931590611402    -0.075059050097
    C            1.033619874371     1.070544745489    -0.291445514194
    C            0.699976953526    -0.290039168363     0.293168176067
    H            1.929818273979     1.465963969927     0.182885942515
    H            1.240334798756     0.975841525534    -1.356902899258
    C           -0.460501988844    -1.005076400286    -0.415514577946
    H            0.483696862526    -0.179500292337     1.352142267172
    H            1.593500337194    -0.909347809684     0.240022207829
    C           -1.196435400217    -1.979808102341     0.505356294562
    H           -0.071086479871    -1.568443332188    -1.260376078559
    H           -1.161987747704    -0.274293893626    -0.800909407069
    H           -1.981463721613    -2.507520419771    -0.027782195719
    H           -0.517721964281    -2.723920572589     0.914282601524
    H           -1.654578000567    -1.456536963670     1.339374052251

  Mulliken Charges: (a.u.)
   Center  Symbol    Alpha    Beta     Spin     Total
       1     H     0.28060  0.28060  0.00000  0.43880
       2     O     4.36910  4.36910  0.00000 -0.73820
       3     C     2.99859  2.99859  0.00000  0.00283
       4     C     3.15998  3.15998  0.00000 -0.31997
       5     H     0.42925  0.42925  0.00000  0.14150
       6     H     0.43261  0.43261  0.00000  0.13478
       7     C     3.15547  3.15547  0.00000 -0.31094
       8     H     0.41406  0.41406  0.00000  0.17188
       9     H     0.42322  0.42322  0.00000  0.15355
      10     C     3.24063  3.24063  0.00000 -0.48127
      11     H     0.42537  0.42537  0.00000  0.14925
      12     H     0.40722  0.40722  0.00000  0.18557
      13     H     0.42080  0.42080  0.00000  0.15839
      14     H     0.42423  0.42423  0.00000  0.15155
      15     H     0.41886  0.41886  0.00000  0.16228

   Total alpha = 21.00000, Total beta = 21.00000, Total charge = -0.00000
