                              Psi4 1.0.54 Driver

  ==> Input File <==

--------------------------------------------------------------------------
set {
	reference rhf
	basis cc-pvtz
}

set_num_threads( 4 )
memory 2 gb

molecule MOL {
0 1

O	 -2.071633	 -1.227563	 -0.223463
C	 -1.652164	 -0.152425	 0.058082
C	 -0.327811	 0.006324	 0.778296
C	 -2.402515	 1.108629	 -0.298924
C	 0.843231	 -0.001575	 -0.211665
H	 -0.319484	 0.928173	 1.350354
H	 -0.227804	 -0.823091	 1.466705
C	 0.542104	 -0.804157	 -1.473970
H	 1.728457	 -0.410376	 0.268908
H	 1.079879	 1.022943	 -0.477606
C	 1.699264	 -0.804377	 -2.467018
H	 0.299871	 -1.827596	 -1.201171
H	 -0.344127	 -0.397156	 -1.951970
H	 2.591836	 -1.238342	 -2.028812
H	 1.943563	 0.204129	 -2.782618
H	 1.453765	 -1.378125	 -3.352988
H	 -3.240910	 0.874416	 -0.936711
H	 -1.747554	 1.818823	 -0.790984
H	 -2.760419	 1.579708	 0.610998

	symmetry c1
}
set optking {
	frozen_dihedral = ("
		9 5 3 2
	")
}

ee,wfn = optimize('scf', return_wfn=True)
oeprop( wfn, 'DIPOLE', 'QUADRUPOLE', 'MULLIKEN_CHARGES')
f=open( 'psi4out.xyz', 'w' )
f.write( "19  " )
f.write( str(ee) + "\n" )
f.write( MOL.save_string_xyz() )
f.close()
--------------------------------------------------------------------------

    Molecular point group: c1
  Charge       = 0
  Multiplicity = 1
  Basis Set: CC-PVTZ
  Basis Set:
  @DF-RHF Final Energy:  -309.16853854892304
    Total Energy =                       -309.1685385489224700
    Molecular point group: c1
  Basis Set: CC-PVTZ
  Basis Set:
  Basis Set: CC-PVTZ
  Basis Set:
  @DF-RHF Final Energy:  -309.16801205121953
    Total Energy =                       -309.1680120512193639
  Basis Set: CC-PVTZ
  Basis Set:
  Basis Set: CC-PVTZ
  Basis Set:
  @DF-RHF Final Energy:  -309.17156740034261
    Total Energy =                       -309.1715674003425534
  Basis Set: CC-PVTZ
  Basis Set:
  Basis Set: CC-PVTZ
  Basis Set:
  @DF-RHF Final Energy:  -309.17104470107063
    Total Energy =                       -309.1710447010701728
  Basis Set: CC-PVTZ
  Basis Set:
  @DF-RHF Final Energy:  -309.17204824058183
    Total Energy =                       -309.1720482405815460
  @DF-RHF Final Energy:  -309.17221022546840
    Total Energy =                       -309.1722102254681772
  @DF-RHF Final Energy:  -309.17228283057892
    Total Energy =                       -309.1722828305790927
  Basis Set: CC-PVTZ
  Basis Set:
  @DF-RHF Final Energy:  -309.17229914269319
    Total Energy =                       -309.1722991426935323
  Basis Set: CC-PVTZ
  Basis Set:
  Basis Set: CC-PVTZ
  Basis Set:
  @DF-RHF Final Energy:  -309.17230298968650
    Total Energy =                       -309.1723029896862727
  Basis Set: CC-PVTZ
  Basis Set:
  Basis Set: CC-PVTZ
  Basis Set:
  @DF-RHF Final Energy:  -309.17230437470130
    Total Energy =                       -309.1723043747010706
  Basis Set: CC-PVTZ
  Basis Set:
  Charge       = 0
  Multiplicity = 1
  Basis Set: CC-PVTZ
  Basis Set:

    Orbital Energies (a.u.)
    -----------------------

    Doubly Occupied:

       1A    -20.537304     2A    -11.319400     3A    -11.230491
       4A    -11.228088     5A    -11.226569     6A    -11.220023
       7A    -11.212080     8A     -1.397532     9A     -1.091049
      10A     -1.027358    11A     -0.983932    12A     -0.891878
      13A     -0.812807    14A     -0.727667    15A     -0.661149
      16A     -0.646174    17A     -0.623291    18A     -0.618944
      19A     -0.583496    20A     -0.573047    21A     -0.557137
      22A     -0.542661    23A     -0.509808    24A     -0.498566
      25A     -0.486317    26A     -0.471637    27A     -0.466071
      28A     -0.399560

  @DF-RHF Final Energy:  -309.17230453968051

   => Energetics <=

    Nuclear Repulsion Energy =            310.2404068779250679
    One-Electron Energy =               -1033.7373500586572845
    Two-Electron Energy =                 414.3246386410517630
    DFT Exchange-Correlation Energy =       0.0000000000000000
    Empirical Dispersion Energy =           0.0000000000000000
    PCM Polarization Energy =               0.0000000000000000
    EFP Energy =                            0.0000000000000000
    Total Energy =                       -309.1723045396803968
    Molecular point group: c1
  Basis Set: CC-PVTZ
  Basis Set:

  -Total Gradient:
     Atom            X                  Y                   Z
    ------   -----------------  -----------------  -----------------
       1        0.000012541479     0.000012077740    -0.000006701465
       2        0.000445569379    -0.004304432660     0.000684967213
       3       -0.001037613566     0.004906343487    -0.001184454852
       4        0.000000782702    -0.000014981177     0.000006320921
       5        0.002176708963     0.004953585060     0.001579297527
       6        0.000021732044    -0.000015291959     0.000000464461
       7        0.000025932801    -0.000003522603    -0.000001315763
       8       -0.000004134413     0.000005915249     0.000043839302
       9       -0.001619322165    -0.005545848940    -0.001074327924
      10       -0.000031666454    -0.000002587529    -0.000025909736
      11        0.000022874566    -0.000002005700    -0.000018059598
      12       -0.000000502750    -0.000001504138    -0.000002960916
      13       -0.000004969790    -0.000001433014    -0.000005617227
      14       -0.000003806502    -0.000000120470     0.000003173717
      15       -0.000005958179     0.000001651206     0.000004728196
      16        0.000000000789    -0.000001501715    -0.000000794869
      17       -0.000001597646     0.000002298210    -0.000001502740
      18        0.000000711885     0.000004686849    -0.000001043908
      19        0.000002716851     0.000006672107    -0.000000102340

  **** Optimization is complete! (in 11 steps) ****
    Final optimized geometry and variables:
    Molecular point group: c1

    Geometry (in Angstrom), charge = 0, multiplicity = 1:

    O           -1.682114621513    -0.855492899074     0.981710377192
    C           -1.139086333785     0.184607698820     0.798539879196
    C            0.295841362156     0.412638764067     1.232085360305
    C           -1.856198591808     1.343766815345     0.145254552366
    C            1.329568184472     0.335467819849     0.084432240291
    H            0.375951885550     1.373729859003     1.728253522551
    H            0.511247527688    -0.356931758390     1.960651412556
    C            0.971870724121    -0.630896228973    -1.047333129049
    H            2.259318435709    -0.020088464266     0.513851840843
    H            1.513784381835     1.321691128362    -0.327227072044
    C            2.091995292257    -0.754130855571    -2.074754604590
    H            0.749849297847    -1.607188230100    -0.629923169614
    H            0.066125965522    -0.306363286514    -1.549934515273
    H            3.003321036395    -1.125575923329    -1.618281764527
    H            2.317953919767     0.205878765260    -2.527456918385
    H            1.818198460627    -1.437879499165    -2.869474116335
    H           -2.779555798819     1.006138201214    -0.300172009008
    H           -1.232701399080     1.819965813448    -0.602251477214
    H           -2.077170300580     2.089526300122     0.902523812042

  Mulliken Charges: (a.u.)
   Center  Symbol    Alpha    Beta     Spin     Total
       1     O     4.17933  4.17933  0.00000 -0.35865
       2     C     2.85310  2.85310  0.00000  0.29380
       3     C     3.10578  3.10578  0.00000 -0.21157
       4     C     3.15593  3.15593  0.00000 -0.31187
       5     C     3.11052  3.11052  0.00000 -0.22104
       6     H     0.44267  0.44267  0.00000  0.11465
       7     H     0.43841  0.43841  0.00000  0.12317
       8     C     3.08778  3.08778  0.00000 -0.17556
       9     H     0.44407  0.44407  0.00000  0.11187
      10     H     0.44785  0.44785  0.00000  0.10429
      11     C     3.15142  3.15142  0.00000 -0.30284
      12     H     0.44103  0.44103  0.00000  0.11794
      13     H     0.45244  0.45244  0.00000  0.09512
      14     H     0.45405  0.45405  0.00000  0.09191
      15     H     0.45634  0.45634  0.00000  0.08731
      16     H     0.44588  0.44588  0.00000  0.10824
      17     H     0.43591  0.43591  0.00000  0.12818
      18     H     0.45130  0.45130  0.00000  0.09740
      19     H     0.44618  0.44618  0.00000  0.10764

   Total alpha = 28.00000, Total beta = 28.00000, Total charge = -0.00000

*** Psi4 exiting successfully. Buy a developer a beer!
