  ==> Input File <==

--------------------------------------------------------------------------
set {
	reference rhf
	basis cc-pvtz
}

set_num_threads( 4 )
memory 2 gb

molecule MOL {
0 1

H	 -3.642953	 0.223825	 0.000000
C	 -2.571844	 0.155001	 0.000000
C	 -1.957580	 -1.086132	 0.000000
C	 -1.807160	 1.303787	 0.000000
H	 -2.551493	 -1.979629	 0.000000
C	 -0.582719	 -1.174294	 0.000000
H	 -2.279934	 2.266806	 0.000000
C	 -0.427220	 1.213406	 0.000000
H	 -0.094904	 -2.127556	 0.000000
C	 0.196908	 -0.024061	 0.000000
H	 0.151409	 2.115254	 0.000000
C	 1.690041	 -0.173233	 0.000000
C	 2.465739	 0.203360	 1.241422
O	 2.256256	 -0.582093	 -0.963118
H	 2.309290	 1.246303	 1.489969
H	 3.513937	 0.030920	 1.056286
H	 2.145707	 -0.391076	 2.088892

	symmetry c1
}
set optking {
	frozen_dihedral = ("
		13 12 10 8
	")
}

ee = optimize('scf')
oeprop('DIPOLE', 'QUADRUPOLE', 'MULLIKEN_CHARGES')
f=open( 'psi4out.xyz', 'w' )
f.write( "17  " )
f.write( str(ee) + "\n" )
f.write( MOL.save_string_xyz() )
f.close()
--------------------------------------------------------------------------

    Molecular point group: c1
  Charge       = 0
  Multiplicity = 1
  Basis Set: CC-PVTZ
  Basis Set:
  @DF-RHF Final Energy:  -382.59774904642319
    Total Energy =                       -382.5977490464229049
    Molecular point group: c1
  Basis Set: CC-PVTZ
  Basis Set:
  Basis Set: CC-PVTZ
  Basis Set:
  @DF-RHF Final Energy:  -382.59679927314374
    Total Energy =                       -382.5967992731440290
  Basis Set: CC-PVTZ
  Basis Set:
  Basis Set: CC-PVTZ
  Basis Set:
  @DF-RHF Final Energy:  -382.59848411277721
    Total Energy =                       -382.5984841127767595
  Basis Set: CC-PVTZ
  Basis Set:
  Basis Set: CC-PVTZ
  Basis Set:
  @DF-RHF Final Energy:  -382.59866255379768
    Total Energy =                       -382.5986625537975669
  Basis Set: CC-PVTZ
  Basis Set:
  Basis Set: CC-PVTZ
  Basis Set:
  @DF-RHF Final Energy:  -382.59867315616259
    Total Energy =                       -382.5986731561624765
  Basis Set: CC-PVTZ
  Basis Set:
  Basis Set: CC-PVTZ
  Basis Set:
  @DF-RHF Final Energy:  -382.59867923510478
    Total Energy =                       -382.5986792351043277
  Basis Set: CC-PVTZ
  Basis Set:
  Charge       = 0
  Multiplicity = 1
  Basis Set: CC-PVTZ
  Basis Set:

    Orbital Energies (a.u.)
    -----------------------

    Doubly Occupied:

       1A    -20.547122     2A    -11.330326     3A    -11.246240
       4A    -11.242999     5A    -11.240544     6A    -11.239729
       7A    -11.238709     8A    -11.237637     9A    -11.231168
      10A     -1.407138    11A     -1.171097    12A     -1.053837
      13A     -1.029872    14A     -1.001384    15A     -0.862671
      16A     -0.841229    17A     -0.765201    18A     -0.707236
      19A     -0.665675    20A     -0.649121    21A     -0.629972
      22A     -0.623649    23A     -0.602600    24A     -0.592571
      25A     -0.564174    26A     -0.527344    27A     -0.517035
      28A     -0.509290    29A     -0.496967    30A     -0.413828
      31A     -0.348788    32A     -0.346717

  @DF-RHF Final Energy:  -382.59867958763942

   => Energetics <=

    Nuclear Repulsion Energy =            403.7306623767677252
    One-Electron Energy =               -1318.8949447755605888
    Two-Electron Energy =                 532.5656028111530986
    DFT Exchange-Correlation Energy =       0.0000000000000000
    Empirical Dispersion Energy =           0.0000000000000000
    PCM Polarization Energy =               0.0000000000000000
    EFP Energy =                            0.0000000000000000
    Total Energy =                       -382.5986795876398219
    Molecular point group: c1
  Basis Set: CC-PVTZ
  Basis Set:

  -Total Gradient:
     Atom            X                  Y                   Z
    ------   -----------------  -----------------  -----------------
       1       -0.000001631029     0.000000208359     0.000002207087
       2       -0.000006255597    -0.000042576303     0.000025727873
       3       -0.000036018603     0.000020672138     0.000001672284
       4        0.000047047594     0.000026612325    -0.000053377849
       5        0.000001576282     0.000000513560    -0.000005126724
       6        0.000022091859     0.000036897812    -0.000002762737
       7       -0.000001555973    -0.000000509089     0.000005459552
       8       -0.000149183054    -0.000027481027    -0.003382093987
       9        0.000007005612    -0.000005522600     0.000005803997
      10        0.000043853862    -0.001276665038     0.005546231836
      11       -0.000004872395     0.000003688267    -0.000006723944
      12        0.000313225863     0.004067738996    -0.003286300488
      13       -0.000252926863    -0.002827762731     0.001103761033
      14       -0.000017518987     0.000021350687     0.000042447629
      15        0.000004181513    -0.000002889406    -0.000006603592
      16        0.000020794371     0.000000655596     0.000014119365
      17        0.000010185552     0.000005068454    -0.000004441336

  **** Optimization is complete! (in 7 steps) ****
    Final optimized geometry and variables:
    Molecular point group: c1

    Geometry (in Angstrom), charge = 0, multiplicity = 1:

    H           -3.633770408513     0.278137806771    -0.050185381410
    C           -2.563788562596     0.197474806352    -0.039351268158
    C           -1.962772661409    -1.047578043517    -0.040716345396
    C           -1.783811549093     1.337668792044    -0.031820535409
    H           -2.565178102160    -1.935492183825    -0.054968421945
    C           -0.585714180799    -1.152457804901    -0.039108307148
    H           -2.245554273948     2.306213450104    -0.044945872011
    C           -0.405853793944     1.233505550712    -0.008866592401
    H           -0.118620270649    -2.118048326047    -0.069318793586
    C            0.198632152869    -0.011674408491    -0.006121850111
    H            0.193412248357     2.124772986440    -0.002985515101
    C            1.698025808305    -0.145324860948    -0.050882813813
    C            2.461388321127     0.273607866810     1.181625499701
    O            2.237866536051    -0.625066714780    -0.991999710284
    H            2.213703732367     1.289089100391     1.467035947006
    H            3.522690822726     0.184800661023     1.005977559926
    H            2.169197409021    -0.368030882101     2.005940061541

  Mulliken Charges: (a.u.)
   Center  Symbol    Alpha    Beta     Spin     Total
       1     H     0.42144  0.42144  0.00000  0.15712
       2     C     3.08340  3.08340  0.00000 -0.16680
       3     C     3.06385  3.06385  0.00000 -0.12770
       4     C     3.06575  3.06575  0.00000 -0.13149
       5     H     0.42134  0.42134  0.00000  0.15732
       6     C     3.08997  3.08997  0.00000 -0.17995
       7     H     0.42165  0.42165  0.00000  0.15669
       8     C     3.09726  3.09726  0.00000 -0.19452
       9     H     0.41936  0.41936  0.00000  0.16128
      10     C     2.96434  2.96434  0.00000  0.07133
      11     H     0.42410  0.42410  0.00000  0.15180
      12     C     2.87878  2.87878  0.00000  0.24244
      13     C     3.15004  3.15004  0.00000 -0.30007
      14     O     4.16677  4.16677  0.00000 -0.33354
      15     H     0.44957  0.44957  0.00000  0.10087
      16     H     0.43649  0.43649  0.00000  0.12702
      17     H     0.44590  0.44590  0.00000  0.10820

   Total alpha = 32.00000, Total beta = 32.00000, Total charge = -0.00000
