  ==> Input File <==

--------------------------------------------------------------------------
set {
	reference rhf
	basis 6-31G*
}

set_num_threads( 4 )
memory 2 gb

molecule MOL {
0 1

O	 3.811942	 -1.246000	 2.459977
C	 3.014090	 -1.127262	 1.586825
C	 1.517343	 -1.048823	 1.766779
O	 3.347903	 -1.046386	 0.304773
C	 1.084151	 -1.125195	 3.229184
H	 1.187416	 -0.130619	 1.292184
H	 1.079409	 -1.856927	 1.186366
C	 -0.435910	 -1.152554	 3.421949
H	 1.508893	 -0.286928	 3.773264
H	 1.514324	 -2.017473	 3.671014
C	 -1.161738	 0.131843	 3.011329
H	 -0.638707	 -1.345316	 4.472872
H	 -0.855675	 -1.995275	 2.874565
C	 -2.658854	 0.095402	 3.324883
H	 -0.707667	 0.978693	 3.523659
H	 -1.030321	 0.312530	 1.946879
C	 -3.395409	 1.371664	 2.914061
H	 -2.799058	 -0.071890	 4.391462
H	 -3.111538	 -0.757462	 2.821495
C	 -4.889205	 1.328687	 3.234103
H	 -2.943679	 2.225028	 3.415411
H	 -3.260058	 1.538223	 1.847422
H	 -5.383347	 2.246710	 2.931345
H	 -5.058306	 1.197932	 4.299234
H	 -5.376902	 0.505446	 2.719612
C	 4.728119	 -1.109107	 -0.004993
H	 4.882018	 -1.033965	 -1.071845
H	 5.068212	 -2.067527	 0.355250
H	 5.265056	 -0.311663	 0.488280

	symmetry c1
}
set optking {
	frozen_dihedral = ("
		2 4 26 27
	")
}

ee = optimize('scf')
oeprop('DIPOLE', 'QUADRUPOLE', 'MULLIKEN_CHARGES')
f=open( 'psi4out.xyz', 'w' )
f.write( "29  " )
f.write( str(ee) + "\n" )
f.write( MOL.save_string_xyz() )
f.close()
--------------------------------------------------------------------------

    Molecular point group: c1
  Charge       = 0
  Multiplicity = 1
  Basis Set: 6-31G*
  Basis Set:
  @DF-RHF Final Energy:  -501.04246147364256
    Total Energy =                       -501.0424614736423337
    Molecular point group: c1
  Basis Set: 6-31G*
  Basis Set:
  Basis Set: 6-31G*
  Basis Set:
  @DF-RHF Final Energy:  -501.04377231933961
    Total Energy =                       -501.0437723193400643
  Basis Set: 6-31G*
  Basis Set:
  Basis Set: 6-31G*
  Basis Set:
  @DF-RHF Final Energy:  -501.04390346399839
    Total Energy =                       -501.0439034639981628
  Basis Set: 6-31G*
  Basis Set:
  Basis Set: 6-31G*
  Basis Set:
  @DF-RHF Final Energy:  -501.04389181059241
    Total Energy =                       -501.0438918105918447
  Basis Set: 6-31G*
  Basis Set:
  Basis Set: 6-31G*
  Basis Set:
  @DF-RHF Final Energy:  -501.04411239677211
    Total Energy =                       -501.0441123967721069
  Basis Set: 6-31G*
  Basis Set:
  Charge       = 0
  Multiplicity = 1
  Basis Set: 6-31G*
  Basis Set:

    Orbital Energies (a.u.)
    -----------------------

    Doubly Occupied:

       1A    -20.603354     2A    -20.545188     3A    -11.372005
       4A    -11.280645     5A    -11.234761     6A    -11.219105
       7A    -11.217647     8A    -11.216002     9A    -11.215857
      10A    -11.214460    11A    -11.209069    12A     -1.469081
      13A     -1.362501    14A     -1.098074    15A     -1.066812
      16A     -1.019501    17A     -0.977226    18A     -0.928565
      19A     -0.861595    20A     -0.799271    21A     -0.790499
      22A     -0.763799    23A     -0.700750    24A     -0.682314
      25A     -0.672162    26A     -0.650896    27A     -0.628797
      28A     -0.604688    29A     -0.594942    30A     -0.580913
      31A     -0.567037    32A     -0.549197    33A     -0.531874
      34A     -0.530429    35A     -0.516025    36A     -0.511841
      37A     -0.496364    38A     -0.477820    39A     -0.470196
      40A     -0.462412    41A     -0.458839    42A     -0.455777
      43A     -0.441145    44A     -0.435396

  @DF-RHF Final Energy:  -501.04411287955509

   => Energetics <=

    Nuclear Repulsion Energy =            610.1841495464561831
    One-Electron Energy =               -1891.4868650789089770
    Two-Electron Energy =                 780.2586026528975935
    DFT Exchange-Correlation Energy =       0.0000000000000000
    Empirical Dispersion Energy =           0.0000000000000000
    PCM Polarization Energy =               0.0000000000000000
    EFP Energy =                            0.0000000000000000
    Total Energy =                       -501.0441128795552004
    Molecular point group: c1
  Basis Set: 6-31G*
  Basis Set:

  -Total Gradient:
     Atom            X                  Y                   Z
    ------   -----------------  -----------------  -----------------
       1        0.000014506898    -0.000004371029    -0.000062749390
       2        0.000004305062     0.000012199049     0.000020177103
       3       -0.000013275770    -0.000005792982     0.000007778166
       4        0.000072209076    -0.000034573412    -0.000031576220
       5       -0.000014334776     0.000006575331    -0.000004148108
       6       -0.000001973454    -0.000004054420     0.000004865394
       7       -0.000002065535     0.000004124810     0.000001919705
       8       -0.000001361834     0.000001385213     0.000010595103
       9       -0.000001480438    -0.000001868324    -0.000001008344
      10       -0.000002385213     0.000004477947    -0.000002475220
      11       -0.000002169620    -0.000003441940     0.000001393292
      12       -0.000008702198    -0.000001534061     0.000001951822
      13        0.000000792790     0.000002313447    -0.000002004493
      14        0.000000562515     0.000001196609     0.000001493559
      15        0.000000905065     0.000000021293     0.000000301545
      16       -0.000002501077    -0.000000541847     0.000002134811
      17       -0.000000501420    -0.000000590495     0.000000241092
      18       -0.000000039135     0.000000213630    -0.000000116711
      19        0.000000228694     0.000000051220     0.000000341374
      20       -0.000000256103     0.000000365946    -0.000000894982
      21       -0.000000040297    -0.000000127633     0.000000205022
      22       -0.000000050385     0.000000354963    -0.000000080949
      23       -0.000000515928     0.000000121912    -0.000000072412
      24        0.000000294462     0.000000035093    -0.000000117528
      25       -0.000000156825    -0.000000112996     0.000000095989
      26        0.000021783783     0.000024829112     0.000049290256
      27       -0.000041129474     0.000003648192     0.000000211830
      28       -0.000022678560    -0.000010668828     0.000004941245
      29        0.000000029676     0.000005764202    -0.000002692946

  **** Optimization is complete! (in 6 steps) ****
    Final optimized geometry and variables:
    Molecular point group: c1

    Geometry (in Angstrom), charge = 0, multiplicity = 1:

    O            3.321466941504    -0.800050178572     0.192143898398
    C            2.524936869785    -0.679939827825    -0.682011054248
    C            1.027963067625    -0.600038461276    -0.504160438110
    O            2.860824726077    -0.598742535244    -1.963501838698
    C            0.592469977885    -0.676489831637     0.957578891336
    H            0.699645176439     0.318659753853    -0.978898041421
    H            0.590055076100    -1.407483675199    -1.085504580187
    C           -0.927906898464    -0.702299288565     1.148113898791
    H            1.017317872810     0.161091120491     1.502621559196
    H            1.021024948024    -1.569398740788     1.399685766544
    C           -1.651708559226     0.583248200215     0.737493550449
    H           -1.132495877830    -0.895689373015     2.198578581056
    H           -1.347820295793    -1.544088223591     0.599413531367
    C           -3.149271705450     0.548330438165     1.049101817856
    H           -1.197307736895     1.429190251226     1.251024214965
    H           -1.518718016388     0.764555467391    -0.326650792982
    C           -3.883894983849     1.825564101346     0.637860110896
    H           -3.291038696380     0.380741363872     2.115423242979
    H           -3.602232262425    -0.303825946846     0.544773480850
    C           -5.378260444074     1.783866353184     0.955422311817
    H           -3.432149679166     2.678179842120     1.140464554959
    H           -3.746635788113     1.992636514666    -0.428453768891
    H           -5.871021142726     2.702507017986     0.652273389771
    H           -5.549237522005     1.652776824425     2.020209751039
    H           -5.865895435733     0.961330301302     0.439748896550
    C            4.241481164868    -0.662166582410    -2.270979572228
    H            4.308470262104    -0.580467336224    -3.344679393458
    H            4.661831334757    -1.600878739111    -1.939831031042
    H            4.773729554792     0.151428076642    -1.799507088287

  Mulliken Charges: (a.u.)
   Center  Symbol    Alpha    Beta     Spin     Total
       1     O     4.28596  4.28596  0.00000 -0.57192
       2     C     2.60486  2.60486  0.00000  0.79029
       3     C     3.20973  3.20973  0.00000 -0.41946
       4     O     4.30746  4.30746  0.00000 -0.61491
       5     C     3.15378  3.15378  0.00000 -0.30756
       6     H     0.39879  0.39879  0.00000  0.20242
       7     H     0.40124  0.40124  0.00000  0.19751
       8     C     3.15663  3.15663  0.00000 -0.31327
       9     H     0.41308  0.41308  0.00000  0.17384
      10     H     0.40874  0.40874  0.00000  0.18252
      11     C     3.15507  3.15507  0.00000 -0.31014
      12     H     0.41822  0.41822  0.00000  0.16355
      13     H     0.42386  0.42386  0.00000  0.15228
      14     C     3.15030  3.15030  0.00000 -0.30059
      15     H     0.42261  0.42261  0.00000  0.15479
      16     H     0.42361  0.42361  0.00000  0.15278
      17     C     3.15146  3.15146  0.00000 -0.30291
      18     H     0.42332  0.42332  0.00000  0.15336
      19     H     0.42397  0.42397  0.00000  0.15205
      20     C     3.23935  3.23935  0.00000 -0.47870
      21     H     0.42280  0.42280  0.00000  0.15440
      22     H     0.42343  0.42343  0.00000  0.15313
      23     H     0.41923  0.41923  0.00000  0.16154
      24     H     0.42154  0.42154  0.00000  0.15691
      25     H     0.42183  0.42183  0.00000  0.15634
      26     C     3.09239  3.09239  0.00000 -0.18479
      27     H     0.40853  0.40853  0.00000  0.18295
      28     H     0.40912  0.40912  0.00000  0.18175
      29     H     0.40908  0.40908  0.00000  0.18183

   Total alpha = 44.00000, Total beta = 44.00000, Total charge = -0.00000
