                              Psi4 1.0.54 Driver

  ==> Input File <==

--------------------------------------------------------------------------
set {
	reference rhf
	basis cc-pvtz
}

set_num_threads( 4 )
memory 2 gb

molecule MOL {
0 1

H	 -0.582588	 1.103662	 -2.445959
C	 0.032492	 1.582709	 -1.671990
C	 0.062554	 0.862911	 -0.350953
O	 0.613092	 2.583661	 -1.913137
C	 -1.339253	 0.577611	 0.196911
H	 0.650414	 1.446121	 0.346028
H	 0.579151	 -0.079222	 -0.520026
C	 -1.813142	 -0.849710	 -0.061612
H	 -2.032833	 1.276441	 -0.256032
H	 -1.357249	 0.782269	 1.263793
H	 -1.839268	 -1.063526	 -1.124230
H	 -2.810118	 -1.001930	 0.334000
H	 -1.159274	 -1.579980	 0.402282

	symmetry c1
}
set optking {
	frozen_dihedral = ("
		6 3 5 9
	")
}

ee,wfn = optimize('scf', return_wfn=True)
oeprop( wfn, 'DIPOLE', 'QUADRUPOLE', 'MULLIKEN_CHARGES')
f=open( 'psi4out.xyz', 'w' )
f.write( "13  " )
f.write( str(ee) + "\n" )
f.write( MOL.save_string_xyz() )
f.close()
--------------------------------------------------------------------------

    Molecular point group: c1
  Charge       = 0
  Multiplicity = 1
  Basis Set: CC-PVTZ
  Basis Set:
  @DF-RHF Final Energy:  -231.06672719431171
    Total Energy =                       -231.0667271943116532
    Molecular point group: c1
  Basis Set: CC-PVTZ
  Basis Set:
  Basis Set: CC-PVTZ
  Basis Set:
  @DF-RHF Final Energy:  -231.06627350467792
    Total Energy =                       -231.0662735046779517
  Basis Set: CC-PVTZ
  Basis Set:
  Basis Set: CC-PVTZ
  Basis Set:
  @DF-RHF Final Energy:  -231.06514725792886
    Total Energy =                       -231.0651472579286860
  Basis Set: CC-PVTZ
  Basis Set:
  Basis Set: CC-PVTZ
  Basis Set:
  @DF-RHF Final Energy:  -231.06704651822622
    Total Energy =                       -231.0670465182261353
  Basis Set: CC-PVTZ
  Basis Set:
  Basis Set: CC-PVTZ
  Basis Set:
  @DF-RHF Final Energy:  -231.06707390897859
    Total Energy =                       -231.0670739089787276
  Basis Set: CC-PVTZ
  Basis Set:
  Basis Set: CC-PVTZ
  Basis Set:
  @DF-RHF Final Energy:  -231.06708595305344
    Total Energy =                       -231.0670859530534358
  Basis Set: CC-PVTZ
  Basis Set:
  Basis Set: CC-PVTZ
  Basis Set:
  @DF-RHF Final Energy:  -231.06709088364039
    Total Energy =                       -231.0670908836401054
  Basis Set: CC-PVTZ
  Basis Set:
  Charge       = 0
  Multiplicity = 1
  Basis Set: CC-PVTZ
  Basis Set:

    Orbital Energies (a.u.)
    -----------------------

    Doubly Occupied:

       1A    -20.551961     2A    -11.322410     3A    -11.237402
       4A    -11.234650     5A    -11.223747     6A     -1.407159
       7A     -1.087215     8A     -0.976324     9A     -0.847353
      10A     -0.793102    11A     -0.675554    12A     -0.653081
      13A     -0.609675    14A     -0.595284    15A     -0.585437
      16A     -0.529201    17A     -0.506570    18A     -0.492737
      19A     -0.486965    20A     -0.413128

  @DF-RHF Final Energy:  -231.06709279884478

   => Energetics <=

    Nuclear Repulsion Energy =            171.5865642251152394
    One-Electron Energy =                -652.8494082696956866
    Two-Electron Energy =                 250.1957512457358064
    DFT Exchange-Correlation Energy =       0.0000000000000000
    Empirical Dispersion Energy =           0.0000000000000000
    PCM Polarization Energy =               0.0000000000000000
    EFP Energy =                            0.0000000000000000
    Total Energy =                       -231.0670927988446408
    Molecular point group: c1
  Basis Set: CC-PVTZ
  Basis Set:

  -Total Gradient:
     Atom            X                  Y                   Z
    ------   -----------------  -----------------  -----------------
       1       -0.000078432694    -0.000059958574    -0.000041469930
       2       -0.000049746792    -0.000098033725     0.000054779167
       3       -0.001166459598     0.002208601494    -0.001823736259
       4        0.000142575235     0.000202650830    -0.000067694028
       5        0.000664649982     0.001467738743     0.002558615258
       6        0.000875440545    -0.002071042752     0.001134118158
       7       -0.000020873734     0.000003237325     0.000002208893
       8       -0.000006928813     0.000014500776    -0.000011410566
       9       -0.000342306290    -0.001671357948    -0.001809026431
      10       -0.000000273306     0.000012866475     0.000016053842
      11       -0.000003943324    -0.000014320863    -0.000003335680
      12       -0.000007939778    -0.000012759594    -0.000000879096
      13       -0.000005761431     0.000017877813    -0.000008223327

  **** Optimization is complete! (in 8 steps) ****
    Final optimized geometry and variables:
    Molecular point group: c1

    Geometry (in Angstrom), charge = 0, multiplicity = 1:

    H           -0.200079203928     0.187813537519    -1.635686197385
    C            0.507088727319     0.621986495320    -0.916238758682
    C            0.533147700303    -0.037979108880     0.434990640997
    O            1.180028770386     1.541465835183    -1.230880535971
    C           -0.875885582800    -0.330707619736     0.986372792730
    H            1.116538824329     0.574934484405     1.107779332604
    H            1.078013117887    -0.972071606247     0.316083553759
    C           -1.330973551141    -1.770321703048     0.760788273443
    H           -1.595738004248     0.334647608387     0.518592914013
    H           -0.895225084398    -0.108081651706     2.045412095200
    H           -1.332124041219    -2.024479302948    -0.294111661746
    H           -2.335070490156    -1.925108233430     1.137386005540
    H           -0.673451327416    -2.468915949070     1.266502685749

  Mulliken Charges: (a.u.)
   Center  Symbol    Alpha    Beta     Spin     Total
       1     H     0.46539  0.46539  0.00000  0.06923
       2     C     2.90497  2.90497  0.00000  0.19006
       3     C     3.08538  3.08538  0.00000 -0.17076
       4     O     4.16417  4.16417  0.00000 -0.32834
       5     C     3.10087  3.10087  0.00000 -0.20174
       6     H     0.43638  0.43638  0.00000  0.12724
       7     H     0.45075  0.45075  0.00000  0.09850
       8     C     3.14624  3.14624  0.00000 -0.29249
       9     H     0.45026  0.45026  0.00000  0.09948
      10     H     0.44196  0.44196  0.00000  0.11608
      11     H     0.45473  0.45473  0.00000  0.09055
      12     H     0.44615  0.44615  0.00000  0.10770
      13     H     0.45275  0.45275  0.00000  0.09450

   Total alpha = 20.00000, Total beta = 20.00000, Total charge =  0.00000

*** Psi4 exiting successfully. Buy a developer a beer!
