  ==> Input File <==

--------------------------------------------------------------------------
set {
	reference rhf
	basis 6-31G*
}

set_num_threads( 4 )
memory 2 gb

molecule MOL {
0 1

H	 -2.444412	 -1.769197	 1.502321
C	 -1.910696	 -1.079486	 0.875566
C	 -2.585950	 -0.132439	 0.124512
C	 -0.534730	 -1.128886	 0.810553
H	 -3.659064	 -0.077770	 0.161660
C	 -1.886021	 0.749048	 -0.677865
H	 0.016738	 -1.848612	 1.378580
C	 0.154804	 -0.237046	 -0.000077
H	 -2.428317	 1.476669	 -1.252824
C	 -0.495867	 0.731709	 -0.771551
N	 1.611208	 -0.370857	 -0.000034
C	 0.166395	 1.743187	 -1.681084
O	 2.274126	 0.622059	 -0.008063
O	 2.068510	 -1.474748	 0.007823
H	 0.738954	 1.261144	 -2.461430
H	 -0.596241	 2.359625	 -2.140178
H	 0.847169	 2.382307	 -1.135928

	symmetry c1
}
set optking {
	frozen_dihedral = ("
		4 8 11 13
	")
}

ee = optimize('scf')
oeprop('DIPOLE', 'QUADRUPOLE', 'MULLIKEN_CHARGES')
f=open( 'psi4out.xyz', 'w' )
f.write( "17  " )
f.write( str(ee) + "\n" )
f.write( MOL.save_string_xyz() )
f.close()
--------------------------------------------------------------------------

    Molecular point group: c1
  Charge       = 0
  Multiplicity = 1
  Basis Set: 6-31G*
  Basis Set:
  @DF-RHF Final Energy:  -473.20491107597104
    Total Energy =                       -473.2049110759709265
    Molecular point group: c1
  Basis Set: 6-31G*
  Basis Set:
  Basis Set: 6-31G*
  Basis Set:
  @DF-RHF Final Energy:  -473.19842077033820
    Total Energy =                       -473.1984207703378615
  Basis Set: 6-31G*
  Basis Set:
  Basis Set: 6-31G*
  Basis Set:
  @DF-RHF Final Energy:  -473.20561393283145
    Total Energy =                       -473.2056139328313975
  Basis Set: 6-31G*
  Basis Set:
  Basis Set: 6-31G*
  Basis Set:
  @DF-RHF Final Energy:  -473.20612473843829
    Total Energy =                       -473.2061247384380067
  Basis Set: 6-31G*
  Basis Set:
  Basis Set: 6-31G*
  Basis Set:
  @DF-RHF Final Energy:  -473.20621451736065
    Total Energy =                       -473.2062145173606496
  Basis Set: 6-31G*
  Basis Set:
  Basis Set: 6-31G*
  Basis Set:
  @DF-RHF Final Energy:  -473.20621948086961
    Total Energy =                       -473.2062194808695494
  Basis Set: 6-31G*
  Basis Set:
  Basis Set: 6-31G*
  Basis Set:
  @DF-RHF Final Energy:  -473.20622151117396
    Total Energy =                       -473.2062215111739079
  Basis Set: 6-31G*
  Basis Set:
  Charge       = 0
  Multiplicity = 1
  Basis Set: 6-31G*
  Basis Set:

    Orbital Energies (a.u.)
    -----------------------

    Doubly Occupied:

       1A    -20.601335     2A    -20.600369     3A    -15.852800
       4A    -11.300783     5A    -11.280394     6A    -11.267069
       7A    -11.262425     8A    -11.254785     9A    -11.253922
      10A    -11.235729    11A     -1.633154    12A     -1.416148
      13A     -1.200883    14A     -1.091966    15A     -1.072345
      16A     -0.979643    17A     -0.932772    18A     -0.849643
      19A     -0.821269    20A     -0.769932    21A     -0.732834
      22A     -0.726857    23A     -0.694149    24A     -0.658784
      25A     -0.637116    26A     -0.599059    27A     -0.593467
      28A     -0.566089    29A     -0.540896    30A     -0.522027
      31A     -0.520177    32A     -0.487698    33A     -0.480495
      34A     -0.448082    35A     -0.367220    36A     -0.353524

  @DF-RHF Final Energy:  -473.20622159134285

   => Energetics <=

    Nuclear Repulsion Energy =            509.9972402089861703
    One-Electron Energy =               -1655.1952437866680157
    Two-Electron Energy =                 671.9917819863392197
    DFT Exchange-Correlation Energy =       0.0000000000000000
    Empirical Dispersion Energy =           0.0000000000000000
    PCM Polarization Energy =               0.0000000000000000
    EFP Energy =                            0.0000000000000000
    Total Energy =                       -473.2062215913426826
    Molecular point group: c1
  Basis Set: 6-31G*
  Basis Set:

  -Total Gradient:
     Atom            X                  Y                   Z
    ------   -----------------  -----------------  -----------------
       1        0.000004867202    -0.000003757752    -0.000000426994
       2       -0.000046740148     0.000027109368    -0.000005255235
       3       -0.000004970669    -0.000050216342     0.000024705422
       4        0.000163270387     0.001224261165     0.001400908500
       5        0.000002294912     0.000005506487     0.000000489925
       6        0.000051533407     0.000025712226    -0.000026301886
       7        0.000000059165    -0.000005071910     0.000001035247
       8       -0.000139518859    -0.001742368100    -0.001141352245
       9       -0.000004140747    -0.000001883273    -0.000000288626
      10       -0.000041532931     0.000029500113    -0.000011869464
      11        0.000016628086     0.000497353318    -0.002436314094
      12       -0.000009530953    -0.000004492377    -0.000006359527
      13        0.000016975748     0.000026994419     0.002192410297
      14       -0.000012111151    -0.000031868389    -0.000002613986
      15        0.000000687588    -0.000004176356     0.000004675848
      16        0.000000603153    -0.000000555906     0.000004329063
      17        0.000001625808     0.000007953310     0.000002227755

  **** Optimization is complete! (in 8 steps) ****
    Final optimized geometry and variables:
    Molecular point group: c1

    Geometry (in Angstrom), charge = 0, multiplicity = 1:

    H           -2.424239377231    -1.712285427922     1.674123133809
    C           -1.893946662927    -1.026445483723     1.040155570271
    C           -2.573065158716    -0.061407706165     0.315432621942
    C           -0.519607441935    -1.103505439439     0.934937273634
    H           -3.644060516893     0.005477944099     0.379890975350
    C           -1.882691254437     0.818977413471    -0.499281377153
    H            0.038329016306    -1.847431036406     1.468203179405
    C            0.150250418497    -0.203105309458     0.125169411859
    H           -2.428355402576     1.553065398116    -1.063650364173
    C           -0.495965939949     0.787062728829    -0.609900402472
    N            1.605386645427    -0.316885160356     0.106510292632
    C            0.204135437183     1.779513460687    -1.510357379778
    O            2.244754764309     0.691451865015     0.096102334910
    O            2.071019080803    -1.416174747827     0.137385050708
    H            0.967310533553     1.309484967895    -2.116717681621
    H           -0.518886143519     2.241329680290    -2.170918131961
    H            0.687108042380     2.554415113571    -0.929297730870

  Mulliken Charges: (a.u.)
   Center  Symbol    Alpha    Beta     Spin     Total
       1     H     0.38952  0.38952  0.00000  0.22097
       2     C     3.11197  3.11197  0.00000 -0.22395
       3     C     3.08320  3.08320  0.00000 -0.16640
       4     C     3.08267  3.08267  0.00000 -0.16534
       5     H     0.39010  0.39010  0.00000  0.21980
       6     C     3.12337  3.12337  0.00000 -0.24674
       7     H     0.36909  0.36909  0.00000  0.26181
       8     C     2.92353  2.92353  0.00000  0.15294
       9     H     0.39271  0.39271  0.00000  0.21457
      10     C     2.96428  2.96428  0.00000  0.07144
      11     N     3.25958  3.25958  0.00000  0.48084
      12     C     3.24337  3.24337  0.00000 -0.48673
      13     O     4.22917  4.22917  0.00000 -0.45833
      14     O     4.22850  4.22850  0.00000 -0.45700
      15     H     0.40285  0.40285  0.00000  0.19430
      16     H     0.41295  0.41295  0.00000  0.17411
      17     H     0.39314  0.39314  0.00000  0.21372

   Total alpha = 36.00000, Total beta = 36.00000, Total charge = -0.00000
