  ==> Input File <==

--------------------------------------------------------------------------
set {
	reference rhf
	basis 6-31G*
}

set_num_threads( 4 )
memory 2 gb

molecule MOL {
0 1

O	 -2.880515	 1.190380	 0.494368
C	 -2.668563	 0.129746	 -0.000350
C	 -3.718725	 -0.696877	 -0.696857
O	 -1.481751	 -0.454642	 0.000584
H	 -4.134524	 -0.116368	 -1.511708
H	 -3.315749	 -1.624744	 -1.075159
H	 -4.520695	 -0.901453	 0.002336
C	 -0.334255	 0.388708	 0.000906
C	 0.891947	 -0.504646	 0.000751
H	 -0.365390	 1.025305	 -0.873475
H	 -0.365484	 1.024911	 0.875569
C	 2.191998	 0.301789	 0.000897
H	 0.855148	 -1.151283	 -0.871571
H	 0.855132	 -1.151660	 0.872805
C	 3.441114	 -0.581407	 0.000108
H	 2.215074	 0.954890	 -0.869742
H	 2.215465	 0.953923	 0.872248
C	 4.739576	 0.224112	 -0.001102
H	 3.419457	 -1.233487	 -0.870178
H	 3.420834	 -1.233096	 0.870717
H	 4.804918	 0.861552	 -0.878265
H	 5.606527	 -0.429058	 -0.001824
H	 4.806469	 0.861674	 0.875853

	symmetry c1
}
set optking {
	frozen_dihedral = ("
		1 2 4 8
	")
}

ee = optimize('scf')
oeprop('DIPOLE', 'QUADRUPOLE', 'MULLIKEN_CHARGES')
f=open( 'psi4out.xyz', 'w' )
f.write( "23  " )
f.write( str(ee) + "\n" )
f.write( MOL.save_string_xyz() )
f.close()
--------------------------------------------------------------------------

    Molecular point group: c1
  Charge       = 0
  Multiplicity = 1
  Basis Set: 6-31G*
  Basis Set:
  @DF-RHF Final Energy:  -422.97391738442747
    Total Energy =                       -422.9739173844272955
    Molecular point group: c1
  Basis Set: 6-31G*
  Basis Set:
  Basis Set: 6-31G*
  Basis Set:
  @DF-RHF Final Energy:  -422.97076074267721
    Total Energy =                       -422.9707607426771574
  Basis Set: 6-31G*
  Basis Set:
  Basis Set: 6-31G*
  Basis Set:
  @DF-RHF Final Energy:  -422.97439949165812
    Total Energy =                       -422.9743994916572092
  Basis Set: 6-31G*
  Basis Set:
  Basis Set: 6-31G*
  Basis Set:
  @DF-RHF Final Energy:  -422.97446261320050
    Total Energy =                       -422.9744626131998757
  Basis Set: 6-31G*
  Basis Set:
  @DF-RHF Final Energy:  -422.97448041170065
    Total Energy =                       -422.9744804117000285
  @DF-RHF Final Energy:  -422.97452283617395
    Total Energy =                       -422.9745228361741738
  @DF-RHF Final Energy:  -422.97464755184154
    Total Energy =                       -422.9746475518413718
  @DF-RHF Final Energy:  -422.97483480833853
    Total Energy =                       -422.9748348083392102
  @DF-RHF Final Energy:  -422.97479350143232
    Total Energy =                       -422.9747935014322593
  @DF-RHF Final Energy:  -422.97537565450017
    Total Energy =                       -422.9753756545001124
  @DF-RHF Final Energy:  -422.97548468119817
    Total Energy =                       -422.9754846811980542
  @DF-RHF Final Energy:  -422.97562000753544
    Total Energy =                       -422.9756200075356674
  @DF-RHF Final Energy:  -422.97563453207539
    Total Energy =                       -422.9756345320757873
  @DF-RHF Final Energy:  -422.97564210731912
    Total Energy =                       -422.9756421073191177
  @DF-RHF Final Energy:  -422.97564485507598
    Total Energy =                       -422.9756448550754158
  @DF-RHF Final Energy:  -422.97565066422004
    Total Energy =                       -422.9756506642204386
  @DF-RHF Final Energy:  -422.97565591096452
    Total Energy =                       -422.9756559109642922
  @DF-RHF Final Energy:  -422.97559386490985
    Total Energy =                       -422.9755938649102518
  @DF-RHF Final Energy:  -422.97532850599902
    Total Energy =                       -422.9753285059985046
  @DF-RHF Final Energy:  -422.97560351462806
    Total Energy =                       -422.9756035146282329
  @DF-RHF Final Energy:  -422.97565764630320
    Total Energy =                       -422.9756576463028068
  @DF-RHF Final Energy:  -422.97565926245858
    Total Energy =                       -422.9756592624582936
  @DF-RHF Final Energy:  -422.97566206090517
    Total Energy =                       -422.9756620609047104
  @DF-RHF Final Energy:  -422.97566501161964
    Total Energy =                       -422.9756650116198671
  @DF-RHF Final Energy:  -422.97566936717323
    Total Energy =                       -422.9756693671739640
  @DF-RHF Final Energy:  -422.97567323459646
    Total Energy =                       -422.9756732345971386
  @DF-RHF Final Energy:  -422.97567755695809
    Total Energy =                       -422.9756775569579759
  @DF-RHF Final Energy:  -422.97567984854629
    Total Energy =                       -422.9756798485466334
  Basis Set: 6-31G*
  Basis Set:
  @DF-RHF Final Energy:  -422.97568072083442
    Total Energy =                       -422.9756807208343616
  Basis Set: 6-31G*
  Basis Set:
  Basis Set: 6-31G*
  Basis Set:
  @DF-RHF Final Energy:  -422.97567748130848
    Total Energy =                       -422.9756774813080256
  Basis Set: 6-31G*
  Basis Set:
  Basis Set: 6-31G*
  Basis Set:
  @DF-RHF Final Energy:  -422.97568126492183
    Total Energy =                       -422.9756812649220592
  Basis Set: 6-31G*
  Basis Set:
  Charge       = 0
  Multiplicity = 1
  Basis Set: 6-31G*
  Basis Set:

    Orbital Energies (a.u.)
    -----------------------

    Doubly Occupied:

       1A    -20.596483     2A    -20.545745     3A    -11.374367
       4A    -11.283630     5A    -11.232979     6A    -11.224982
       7A    -11.224386     8A    -11.222160     9A    -11.213368
      10A     -1.464293    11A     -1.362270    12A     -1.094494
      13A     -1.042040    14A     -1.004407    15A     -0.930805
      16A     -0.841371    17A     -0.803137    18A     -0.773944
      19A     -0.693153    20A     -0.684850    21A     -0.665275
      22A     -0.647213    23A     -0.607819    24A     -0.588931
      25A     -0.583456    26A     -0.566598    27A     -0.559252
      28A     -0.540947    29A     -0.520429    30A     -0.504704
      31A     -0.493278    32A     -0.478520    33A     -0.471799
      34A     -0.468090    35A     -0.449577    36A     -0.435241

  @DF-RHF Final Energy:  -422.97568168997458

   => Energetics <=

    Nuclear Repulsion Energy =            449.3610162861671711
    One-Electron Energy =               -1466.2854075558316254
    Two-Electron Energy =                 593.9487095796898757
    DFT Exchange-Correlation Energy =       0.0000000000000000
    Empirical Dispersion Energy =           0.0000000000000000
    PCM Polarization Energy =               0.0000000000000000
    EFP Energy =                            0.0000000000000000
    Total Energy =                       -422.9756816899746354
    Molecular point group: c1
  Basis Set: 6-31G*
  Basis Set:

  -Total Gradient:
     Atom            X                  Y                   Z
    ------   -----------------  -----------------  -----------------
       1       -0.002318324784    -0.004225137504     0.007290631691
       2        0.003556685955     0.006379645947    -0.014359955223
       3        0.000020686349    -0.000060499526     0.000110076398
       4       -0.001492366426    -0.002278311994     0.013832610409
       5       -0.000033678021     0.000044988986    -0.000021415327
       6       -0.000000811603     0.000018213613     0.000005645388
       7       -0.000003531099    -0.000001290716    -0.000036578228
       8        0.000212645415     0.000118791358    -0.006931591443
       9        0.000032160940    -0.000018436251     0.000024724221
      10        0.000026137307     0.000000440168     0.000051181900
      11        0.000002820394     0.000029338749     0.000042180582
      12       -0.000000894379     0.000003518146    -0.000005917811
      13       -0.000008134494     0.000003650906    -0.000001600809
      14        0.000012286311    -0.000014663599    -0.000000025501
      15       -0.000000836359    -0.000006805662     0.000013945448
      16       -0.000002666813    -0.000000854548    -0.000006143310
      17        0.000004080079     0.000005253203    -0.000006173145
      18       -0.000003603353     0.000004984120    -0.000002962646
      19        0.000006100157     0.000002964347    -0.000001062697
      20       -0.000007052988    -0.000004729141    -0.000000865318
      21       -0.000001060004     0.000002879415     0.000003367944
      22       -0.000002528414    -0.000001176045    -0.000002990003
      23        0.000001885833    -0.000002763974     0.000002917478

  **** Optimization is complete! (in 32 steps) ****
    Final optimized geometry and variables:
    Molecular point group: c1

    Geometry (in Angstrom), charge = 0, multiplicity = 1:

    O           -2.906262360133     1.186523658136     0.514081964743
    C           -2.676904131724     0.136337811701     0.010558151590
    C           -3.698748809062    -0.730889307221    -0.672875380783
    O           -1.485572741835    -0.455306125923     0.056776608754
    H           -3.437099112579    -0.843310618103    -1.719416022880
    H           -3.697459784502    -1.718829397976    -0.227717896186
    H           -4.677084419049    -0.282355757917    -0.585001122678
    C           -0.335897425440     0.382649343950     0.126490942596
    C            0.888640015165    -0.502996172827    -0.005407224755
    H           -0.385858941862     1.111167186744    -0.674064676127
    H           -0.338951830726     0.918865919982     1.065764726979
    C            2.190262680171     0.298474800133     0.056018462814
    H            0.829241358902    -1.047172133939    -0.943860280072
    H            0.869506891882    -1.243960479723     0.788850204540
    C            3.436730385609    -0.579086771978    -0.072556927771
    H            2.195896983465     1.045584589737    -0.735949050008
    H            2.234892661741     0.848164485270     0.994475938412
    C            4.736937776538     0.221108296009    -0.009235731779
    H            3.394937515413    -1.127335357361    -1.011062149901
    H            3.432972754508    -1.326036528471     0.718029022237
    H            4.785160859964     0.955332327337    -0.808396050304
    H            5.601894651439    -0.427789531470    -0.103955855532
    H            4.824407517287     0.753394377259     0.933627030797

  Mulliken Charges: (a.u.)
   Center  Symbol    Alpha    Beta     Spin     Total
       1     O     4.27744  4.27744  0.00000 -0.55488
       2     C     2.61929  2.61929  0.00000  0.76142
       3     C     3.28257  3.28257  0.00000 -0.56514
       4     O     4.31415  4.31415  0.00000 -0.62831
       5     H     0.40296  0.40296  0.00000  0.19409
       6     H     0.39907  0.39907  0.00000  0.20186
       7     H     0.39746  0.39746  0.00000  0.20507
       8     C     2.99478  2.99478  0.00000  0.01043
       9     C     3.16437  3.16437  0.00000 -0.32875
      10     H     0.41702  0.41702  0.00000  0.16596
      11     H     0.40758  0.40758  0.00000  0.18484
      12     C     3.16024  3.16024  0.00000 -0.32049
      13     H     0.41521  0.41521  0.00000  0.16958
      14     H     0.41264  0.41264  0.00000  0.17472
      15     C     3.15145  3.15145  0.00000 -0.30289
      16     H     0.42154  0.42154  0.00000  0.15692
      17     H     0.42020  0.42020  0.00000  0.15961
      18     C     3.23989  3.23989  0.00000 -0.47978
      19     H     0.42156  0.42156  0.00000  0.15687
      20     H     0.42099  0.42099  0.00000  0.15801
      21     H     0.42105  0.42105  0.00000  0.15790
      22     H     0.41789  0.41789  0.00000  0.16422
      23     H     0.42064  0.42064  0.00000  0.15873

   Total alpha = 36.00000, Total beta = 36.00000, Total charge = -0.00000
