  ==> Input File <==

--------------------------------------------------------------------------
set {
	reference rhf
	basis 6-31G*
}

set_num_threads( 1 )
memory 2 gb

molecule MOL {
0 1

H	 -4.328886	 0.638087	 -1.020442
O	 -3.452007	 0.283848	 -0.965577
C	 -3.181085	 -0.079926	 0.364119
C	 -1.765924	 0.277073	 0.805136
H	 -3.327791	 -1.152017	 0.410903
H	 -3.905698	 0.375695	 1.036898
C	 -0.677594	 -0.417312	 -0.014550
H	 -1.637766	 1.358238	 0.744969
H	 -1.659588	 0.017670	 1.857098
C	 0.738335	 -0.034840	 0.421385
H	 -0.814977	 -0.178223	 -1.064632
H	 -0.802730	 -1.495410	 0.071702
C	 1.822265	 -0.738362	 -0.399735
H	 0.853533	 1.043532	 0.342250
H	 0.871597	 -0.279636	 1.474438
C	 3.258060	 -0.455774	 0.057203
H	 1.718003	 -0.459167	 -1.447053
H	 1.651028	 -1.811884	 -0.354513
C	 3.709143	 0.994797	 -0.123830
H	 3.930637	 -1.101717	 -0.501982
H	 3.365259	 -0.739518	 1.102287
H	 3.601178	 1.310569	 -1.158127
H	 4.753787	 1.110486	 0.148516
H	 3.135362	 1.678896	 0.492569

	symmetry c1
}
set optking {
	frozen_dihedral = ("
		20 16 13 17,
		17 13 10 7,
		13 10 7 11,
		11 7 4 3,
		7 4 3 2
	")
}

ee = energy('scf')
oeprop('DIPOLE', 'QUADRUPOLE', 'MULLIKEN_CHARGES')
f=open( 'psi4out.xyz', 'w' )
f.write( "24  " )
f.write( str(ee) + "\n" )
f.write( MOL.save_string_xyz() )
f.close()
--------------------------------------------------------------------------

    Molecular point group: c1

    Geometry (in Angstrom), charge = 0, multiplicity = 1:

       Center              X                  Y                   Z               Mass
    ------------   -----------------  -----------------  -----------------  -----------------
           H         -4.321003809007     0.643201814832    -1.020648689760     1.007825032070
           O         -3.444124809007     0.288962814832    -0.965783689760    15.994914619560
           C         -3.173202809007    -0.074811185168     0.363912310240    12.000000000000
           C         -1.758041809007     0.282187814832     0.804929310240    12.000000000000
           H         -3.319908809007    -1.146902185168     0.410696310240     1.007825032070
           H         -3.897815809007     0.380809814832     1.036691310240     1.007825032070
           C         -0.669711809007    -0.412197185168    -0.014756689760    12.000000000000
           H         -1.629883809007     1.363352814832     0.744762310240     1.007825032070
           H         -1.651705809007     0.022784814832     1.856891310240     1.007825032070
           C          0.746217190993    -0.029725185168     0.421178310240    12.000000000000
           H         -0.807094809007    -0.173108185168    -1.064838689760     1.007825032070
           H         -0.794847809007    -1.490295185168     0.071495310240     1.007825032070
           C          1.830147190993    -0.733247185168    -0.399941689760    12.000000000000
           H          0.861415190993     1.048646814832     0.342043310240     1.007825032070
           H          0.879479190993    -0.274521185168     1.474231310240     1.007825032070
           C          3.265942190993    -0.450659185168     0.056996310240    12.000000000000
           H          1.725885190993    -0.454052185168    -1.447259689760     1.007825032070
           H          1.658910190993    -1.806769185168    -0.354719689760     1.007825032070
           C          3.717025190993     0.999911814832    -0.124036689760    12.000000000000
           H          3.938519190993    -1.096602185168    -0.502188689760     1.007825032070
           H          3.373141190993    -0.734403185168     1.102080310240     1.007825032070
           H          3.609060190993     1.315683814832    -1.158333689760     1.007825032070
           H          4.761669190993     1.115600814832     0.148309310240     1.007825032070
           H          3.143244190993     1.684010814832     0.492362310240     1.007825032070

  Charge       = 0
  Multiplicity = 1
  Basis Set: 6-31G*
  Basis Set:

    Orbital Energies (a.u.)
    -----------------------

    Doubly Occupied:

       1A    -20.550660     2A    -11.267271     3A    -11.213735
       4A    -11.211623     5A    -11.209019     6A    -11.208437
       7A    -11.206930     8A    -11.204867     9A     -1.358367
      10A     -1.085241    11A     -1.045673    12A     -0.983342
      13A     -0.911775    14A     -0.844375    15A     -0.791648
      16A     -0.773257    17A     -0.698636    18A     -0.648675
      19A     -0.626560    20A     -0.611257    21A     -0.584493
      22A     -0.577357    23A     -0.557345    24A     -0.531800
      25A     -0.524854    26A     -0.503244    27A     -0.488784
      28A     -0.483247    29A     -0.466599    30A     -0.454254
      31A     -0.450270    32A     -0.432414    33A     -0.424673

  @DF-RHF Final Energy:  -349.24486755231334

   => Energetics <=

    Nuclear Repulsion Energy =            383.7459601667288212
    One-Electron Energy =               -1234.1206219973914813
    Two-Electron Energy =                 501.1297942783490953
    DFT Exchange-Correlation Energy =       0.0000000000000000
    Empirical Dispersion Energy =           0.0000000000000000
    PCM Polarization Energy =               0.0000000000000000
    EFP Energy =                            0.0000000000000000
    Total Energy =                       -349.2448675523136217

  Mulliken Charges: (a.u.)
   Center  Symbol    Alpha    Beta     Spin     Total
       1     H     0.27947  0.27947  0.00000  0.44107
       2     O     4.37232  4.37232  0.00000 -0.74464
       3     C     2.99711  2.99711  0.00000  0.00578
       4     C     3.15900  3.15900  0.00000 -0.31801
       5     H     0.42729  0.42729  0.00000  0.14542
       6     H     0.43083  0.43083  0.00000  0.13835
       7     C     3.15491  3.15491  0.00000 -0.30982
       8     H     0.42007  0.42007  0.00000  0.15986
       9     H     0.42417  0.42417  0.00000  0.15166
      10     C     3.15398  3.15398  0.00000 -0.30795
      11     H     0.40806  0.40806  0.00000  0.18389
      12     H     0.42531  0.42531  0.00000  0.14937
      13     C     3.15222  3.15222  0.00000 -0.30444
      14     H     0.42155  0.42155  0.00000  0.15689
      15     H     0.42640  0.42640  0.00000  0.14720
      16     C     3.15217  3.15217  0.00000 -0.30435
      17     H     0.42325  0.42325  0.00000  0.15351
      18     H     0.42276  0.42276  0.00000  0.15447
      19     C     3.24094  3.24094  0.00000 -0.48188
      20     H     0.42158  0.42158  0.00000  0.15684
      21     H     0.42416  0.42416  0.00000  0.15167
      22     H     0.42208  0.42208  0.00000  0.15584
      23     H     0.42010  0.42010  0.00000  0.15980
      24     H     0.42026  0.42026  0.00000  0.15947

   Total alpha = 33.00000, Total beta = 33.00000, Total charge = -0.00000
