                              Psi4 1.0.54 Driver

  ==> Input File <==

--------------------------------------------------------------------------
set {
	reference rhf
	basis cc-pvtz
}

set_num_threads( 4 )
memory 2 gb

molecule MOL {
0 1

H	 1.193182	 -2.070647	 -0.310385
C	 0.641838	 -1.502638	 0.430253
N	 0.526300	 -0.128137	 0.000000
H	 1.194833	 -1.551234	 1.359702
H	 -0.319956	 -1.998174	 0.578467
C	 -0.247113	 0.037112	 -1.209233
H	 0.136223	 0.425480	 0.731443
H	 -0.996493	 -0.743733	 -1.271440
H	 0.397975	 -0.057351	 -2.073512
H	 -0.763794	 0.997171	 -1.271673

	symmetry c1
}
set optking {
	frozen_dihedral = ("
		2 3 6 8
	")
}

ee,wfn = optimize('scf', return_wfn=True)
oeprop( wfn, 'DIPOLE', 'QUADRUPOLE', 'MULLIKEN_CHARGES')
f=open( 'psi4out.xyz', 'w' )
f.write( "10  " )
f.write( str(ee) + "\n" )
f.write( MOL.save_string_xyz() )
f.close()
--------------------------------------------------------------------------

    Molecular point group: c1
  Charge       = 0
  Multiplicity = 1
  Basis Set: CC-PVTZ
  Basis Set:
  @DF-RHF Final Energy:  -134.29017801538313
    Total Energy =                       -134.2901780153830771
    Molecular point group: c1
  Basis Set: CC-PVTZ
  Basis Set:
  Basis Set: CC-PVTZ
  Basis Set:
  @DF-RHF Final Energy:  -134.29098437020690
    Total Energy =                       -134.2909843702068997
  Basis Set: CC-PVTZ
  Basis Set:
  Basis Set: CC-PVTZ
  Basis Set:
  @DF-RHF Final Energy:  -134.29111407812962
    Total Energy =                       -134.2911140781297092
  Basis Set: CC-PVTZ
  Basis Set:
  Basis Set: CC-PVTZ
  Basis Set:
  @DF-RHF Final Energy:  -134.29111604591310
    Total Energy =                       -134.2911160459130713
  Basis Set: CC-PVTZ
  Basis Set:
  Charge       = 0
  Multiplicity = 1
  Basis Set: CC-PVTZ
  Basis Set:

    Orbital Energies (a.u.)
    -----------------------

    Doubly Occupied:

       1A    -15.532317     2A    -11.234486     3A    -11.234274
       4A     -1.199798     5A     -0.948314     6A     -0.854737
       7A     -0.661466     8A     -0.613844     9A     -0.591723
      10A     -0.540994    11A     -0.509055    12A     -0.506536
      13A     -0.364273

  @DF-RHF Final Energy:  -134.29111624411115

   => Energetics <=

    Nuclear Repulsion Energy =             84.6476775372554471
    One-Electron Energy =                -348.2939514372383201
    Two-Electron Energy =                 129.3551576558716363
    DFT Exchange-Correlation Energy =       0.0000000000000000
    Empirical Dispersion Energy =           0.0000000000000000
    PCM Polarization Energy =               0.0000000000000000
    EFP Energy =                            0.0000000000000000
    Total Energy =                       -134.2911162441112367
    Molecular point group: c1
  Basis Set: CC-PVTZ
  Basis Set:

  -Total Gradient:
     Atom            X                  Y                   Z
    ------   -----------------  -----------------  -----------------
       1       -0.000000659993    -0.000004567943     0.000002200131
       2       -0.002462222545     0.000322306639     0.001598830752
       3        0.004207879703    -0.001108209670    -0.002835706666
       4        0.000001024126    -0.000002802256     0.000002929194
       5       -0.000006532895    -0.000000613463    -0.000006038123
       6       -0.004296112291     0.003055210887     0.003173014736
       7        0.000008812659     0.000006227125     0.000016129597
       8        0.002546543240    -0.002260757778    -0.001942198732
       9       -0.000001029384    -0.000008116618     0.000001797541
      10        0.000002297381     0.000001323078    -0.000010958431

  **** Optimization is complete! (in 5 steps) ****
    Final optimized geometry and variables:
    Molecular point group: c1

    Geometry (in Angstrom), charge = 0, multiplicity = 1:

    H            0.906063148267    -1.534581741843    -0.055295276369
    C            0.350898234963    -0.969549665463     0.685215603907
    N            0.235685165949     0.408785801777     0.264922089672
    H            0.900299407401    -1.024175220164     1.616534377661
    H           -0.612170426890    -1.464008595019     0.824115111049
    C           -0.529242818404     0.589667673372    -0.953466758762
    H           -0.175360174785     0.940783074513     0.999994374950
    H           -1.301285615455    -0.168016416691    -1.088241540354
    H            0.123661778116     0.525947978236    -1.818095234340
    H           -0.992381963690     1.567427606199    -0.965911575255

  Mulliken Charges: (a.u.)
   Center  Symbol    Alpha    Beta     Spin     Total
       1     H     0.45684  0.45684  0.00000  0.08633
       2     C     3.08300  3.08300  0.00000 -0.16601
       3     N     3.62820  3.62820  0.00000 -0.25640
       4     H     0.45269  0.45269  0.00000  0.09462
       5     H     0.47355  0.47355  0.00000  0.05290
       6     C     3.07733  3.07733  0.00000 -0.15466
       7     H     0.44131  0.44131  0.00000  0.11738
       8     H     0.47526  0.47526  0.00000  0.04948
       9     H     0.45609  0.45609  0.00000  0.08782
      10     H     0.45573  0.45573  0.00000  0.08853

   Total alpha = 13.00000, Total beta = 13.00000, Total charge =  0.00000

*** Psi4 exiting successfully. Buy a developer a beer!
