  ==> Input File <==

--------------------------------------------------------------------------
set {
	reference rhf
	basis 6-31G*
}

set_num_threads( 1 )
memory 2 gb

molecule MOL {
0 1

H	 1.767681	 -0.445260	 2.358350
O	 1.077370	 0.104527	 2.016450
C	 1.135793	 0.118896	 0.612333
C	 0.031547	 1.023609	 0.088541
H	 0.995365	 -0.884804	 0.215147
H	 2.109374	 0.466891	 0.274486
C	 -1.134819	 0.293262	 -0.585751
H	 0.474374	 1.714721	 -0.623187
H	 -0.338529	 1.620940	 0.920081
C	 -1.917817	 -0.639439	 0.339494
H	 -0.758119	 -0.268455	 -1.433105
H	 -1.813832	 1.041889	 -0.986690
H	 -2.777680	 -1.057197	 -0.174994
H	 -1.310268	 -1.471279	 0.680599
H	 -2.283753	 -0.111424	 1.216626

	symmetry c1
}
set optking {
	frozen_dihedral = ("
		8 4 7 11,
		1 2 3 4
	")
}

ee = energy('scf')
oeprop('DIPOLE', 'QUADRUPOLE', 'MULLIKEN_CHARGES')
f=open( 'psi4out.xyz', 'w' )
f.write( "15  " )
f.write( str(ee) + "\n" )
f.write( MOL.save_string_xyz() )
f.close()
--------------------------------------------------------------------------

    Molecular point group: c1

    Geometry (in Angstrom), charge = 0, multiplicity = 1:

       Center              X                  Y                   Z               Mass
    ------------   -----------------  -----------------  -----------------  -----------------
           H          1.894005997364    -0.605083069415     1.815983369389     1.007825032070
           O          1.203694997364    -0.055296069415     1.474083369389    15.994914619560
           C          1.262117997364    -0.040927069415     0.069966369389    12.000000000000
           C          0.157871997364     0.863785930585    -0.453825630611    12.000000000000
           H          1.121689997364    -1.044627069415    -0.327219630611     1.007825032070
           H          2.235698997364     0.307067930585    -0.267880630611     1.007825032070
           C         -1.008494002636     0.133438930585    -1.128117630611    12.000000000000
           H          0.600698997364     1.554897930585    -1.165553630611     1.007825032070
           H         -0.212204002636     1.461116930585     0.377714369389     1.007825032070
           C         -1.791492002636    -0.799262069415    -0.202872630611    12.000000000000
           H         -0.631794002636    -0.428278069415    -1.975471630611     1.007825032070
           H         -1.687507002636     0.882065930585    -1.529056630611     1.007825032070
           H         -2.651355002636    -1.217020069415    -0.717360630611     1.007825032070
           H         -1.183943002636    -1.631102069415     0.138232369389     1.007825032070
           H         -2.157428002636    -0.271247069415     0.674259369389     1.007825032070

  Charge       = 0
  Multiplicity = 1
  Basis Set: 6-31G*
  Basis Set:

    Orbital Energies (a.u.)
    -----------------------

    Doubly Occupied:

       1A    -20.552036     2A    -11.266345     3A    -11.214589
       4A    -11.209974     5A    -11.204057     6A     -1.358635
       7A     -1.066497     8A     -0.969219     9A     -0.866380
      10A     -0.781494    11A     -0.700264    12A     -0.647888
      13A     -0.613160    14A     -0.571579    15A     -0.554498
      16A     -0.540042    17A     -0.503240    18A     -0.476729
      19A     -0.468501    20A     -0.455601    21A     -0.427007

  @DF-RHF Final Energy:  -232.13849419594672

   => Energetics <=

    Nuclear Repulsion Energy =            190.9599215809957116
    One-Electron Energy =                -693.3012255058844175
    Two-Electron Energy =                 270.2028097289428388
    DFT Exchange-Correlation Energy =       0.0000000000000000
    Empirical Dispersion Energy =           0.0000000000000000
    PCM Polarization Energy =               0.0000000000000000
    EFP Energy =                            0.0000000000000000
    Total Energy =                       -232.1384941959458956

  Mulliken Charges: (a.u.)
   Center  Symbol    Alpha    Beta     Spin     Total
       1     H     0.28212  0.28212  0.00000  0.43575
       2     O     4.37055  4.37055  0.00000 -0.74109
       3     C     2.99733  2.99733  0.00000  0.00535
       4     C     3.16444  3.16444  0.00000 -0.32889
       5     H     0.43060  0.43060  0.00000  0.13880
       6     H     0.42912  0.42912  0.00000  0.14176
       7     C     3.15809  3.15809  0.00000 -0.31618
       8     H     0.42071  0.42071  0.00000  0.15858
       9     H     0.40512  0.40512  0.00000  0.18977
      10     C     3.23809  3.23809  0.00000 -0.47618
      11     H     0.42465  0.42465  0.00000  0.15069
      12     H     0.42080  0.42080  0.00000  0.15840
      13     H     0.42156  0.42156  0.00000  0.15688
      14     H     0.41940  0.41940  0.00000  0.16120
      15     H     0.41742  0.41742  0.00000  0.16516

   Total alpha = 21.00000, Total beta = 21.00000, Total charge = -0.00000
