  ==> Input File <==

--------------------------------------------------------------------------
set {
	reference rhf
	basis 6-31G*
}

set_num_threads( 4 )
memory 2 gb

molecule MOL {
0 1

H	 -2.438741	 -0.006418	 0.905076
O	 -2.315789	 -0.143634	 -0.024262
C	 -0.945151	 -0.064130	 -0.333158
H	 -0.813375	 -0.223047	 -1.403232
C	 -0.232801	 -1.184051	 0.407206
C	 -0.355424	 1.302939	 0.054523
H	 -0.318824	 -0.992899	 1.473524
H	 -0.742411	 -2.122033	 0.217954
C	 1.248522	 -1.270719	 -0.013048
H	 -0.546144	 2.018388	 -0.742941
H	 -0.890929	 1.656788	 0.930149
C	 1.156425	 1.235120	 0.355905
H	 1.825384	 -1.683246	 0.809111
H	 1.357782	 -1.965923	 -0.840362
C	 1.828244	 0.099899	 -0.419275
H	 1.626109	 2.185622	 0.123525
H	 1.309438	 1.071213	 1.419539
H	 2.901447	 0.112642	 -0.255830
H	 1.681817	 0.263413	 -1.484607

	symmetry c1
}
set optking {
	frozen_dihedral = ("
		1 2 3 4
	")
}

ee = optimize('scf')
oeprop('DIPOLE', 'QUADRUPOLE', 'MULLIKEN_CHARGES')
f=open( 'psi4out.xyz', 'w' )
f.write( "19  " )
f.write( str(ee) + "\n" )
f.write( MOL.save_string_xyz() )
f.close()
--------------------------------------------------------------------------

    Molecular point group: c1
  Charge       = 0
  Multiplicity = 1
  Basis Set: 6-31G*
  Basis Set:
  @DF-RHF Final Energy:  -309.04636987723518
    Total Energy =                       -309.0463698772352927
    Molecular point group: c1
  Basis Set: 6-31G*
  Basis Set:
  Basis Set: 6-31G*
  Basis Set:
  @DF-RHF Final Energy:  -309.04810048031783
    Total Energy =                       -309.0481004803179985
  Basis Set: 6-31G*
  Basis Set:
  Basis Set: 6-31G*
  Basis Set:
  @DF-RHF Final Energy:  -309.04843930087202
    Total Energy =                       -309.0484393008720190
  Basis Set: 6-31G*
  Basis Set:
  Basis Set: 6-31G*
  Basis Set:
  @DF-RHF Final Energy:  -309.04844506591854
    Total Energy =                       -309.0484450659187132
  Basis Set: 6-31G*
  Basis Set:
  Charge       = 0
  Multiplicity = 1
  Basis Set: 6-31G*
  Basis Set:

    Orbital Energies (a.u.)
    -----------------------

    Doubly Occupied:

       1A    -20.550185     2A    -11.269008     3A    -11.218901
       4A    -11.218687     5A    -11.217614     6A    -11.215067
       7A    -11.213868     8A     -1.359601     9A     -1.110251
      10A     -1.004534    11A     -0.988629    12A     -0.847727
      13A     -0.839901    14A     -0.752573    15A     -0.673115
      16A     -0.663420    17A     -0.617362    18A     -0.597281
      19A     -0.579791    20A     -0.561875    21A     -0.531539
      22A     -0.521475    23A     -0.502224    24A     -0.492605
      25A     -0.464710    26A     -0.450318    27A     -0.432444
      28A     -0.407150

  @DF-RHF Final Energy:  -309.04844576782472

   => Energetics <=

    Nuclear Repulsion Energy =            331.1929523107982618
    One-Electron Energy =               -1075.8790828383073404
    Two-Electron Energy =                 435.6376847596842481
    DFT Exchange-Correlation Energy =       0.0000000000000000
    Empirical Dispersion Energy =           0.0000000000000000
    PCM Polarization Energy =               0.0000000000000000
    EFP Energy =                            0.0000000000000000
    Total Energy =                       -309.0484457678247736
    Molecular point group: c1
  Basis Set: 6-31G*
  Basis Set:

  -Total Gradient:
     Atom            X                  Y                   Z
    ------   -----------------  -----------------  -----------------
       1        0.000015332940     0.000092136460    -0.000027170642
       2       -0.000009850340    -0.000112784772     0.000033803755
       3       -0.000003972595    -0.000094350209     0.000048731681
       4        0.000019185082     0.000083705070    -0.000016382604
       5       -0.000032604787     0.000016175547    -0.000024996641
       6        0.000041762969    -0.000016175555     0.000011361891
       7        0.000007722204    -0.000009594824    -0.000017608453
       8        0.000007779508    -0.000010729435     0.000007051087
       9       -0.000013194652    -0.000007593563     0.000057136516
      10        0.000016980643     0.000024476533    -0.000016533606
      11        0.000003274092    -0.000004254691    -0.000015024437
      12       -0.000024501255     0.000027562894    -0.000015573097
      13        0.000017507455    -0.000026667051    -0.000003028090
      14       -0.000016794449     0.000006605194    -0.000002555817
      15       -0.000013000967     0.000023848163    -0.000032284403
      16       -0.000004509866     0.000010639745     0.000015345875
      17       -0.000006033267     0.000000521739     0.000003559532
      18       -0.000013368962    -0.000009941878     0.000002292554
      19        0.000008286250     0.000006420632    -0.000008125101

  **** Optimization is complete! (in 5 steps) ****
    Final optimized geometry and variables:
    Molecular point group: c1

    Geometry (in Angstrom), charge = 0, multiplicity = 1:

    H           -2.520579530389     0.025689505601     0.815400180014
    O           -2.339759697953    -0.103051019542    -0.106141116855
    C           -0.949938689277    -0.066403166457    -0.315302368130
    H           -0.837443295034    -0.220175847904    -1.382119202693
    C           -0.222413645550    -1.192104444235     0.412721666297
    C           -0.357023275649     1.300453021761     0.065891102776
    H           -0.291497124208    -1.014147590948     1.485717123786
    H           -0.728916117462    -2.131733869259     0.220857372194
    C            1.257711851465    -1.270240631446    -0.016960132882
    H           -0.571689303931     2.011232309241    -0.726009782448
    H           -0.874881815032     1.665735398825     0.950410039083
    C            1.158712117757     1.235491145702     0.346553480328
    H            1.846057609875    -1.671472441545     0.802673331526
    H            1.364204570438    -1.970591796966    -0.839956041923
    C            1.821113806621     0.102070355596    -0.439088659929
    H            1.622903106721     2.187095436389     0.107866326457
    H            1.330492140185     1.071224737437     1.407733319676
    H            2.897248188447     0.119998685452    -0.297310493538
    H            1.652162947993     0.261625048261    -1.501492661828

  Mulliken Charges: (a.u.)
   Center  Symbol    Alpha    Beta     Spin     Total
       1     H     0.28545  0.28545  0.00000  0.42909
       2     O     4.37738  4.37738  0.00000 -0.75476
       3     C     2.90747  2.90747  0.00000  0.18505
       4     H     0.41594  0.41594  0.00000  0.16812
       5     C     3.17537  3.17537  0.00000 -0.35075
       6     C     3.16554  3.16554  0.00000 -0.33109
       7     H     0.42819  0.42819  0.00000  0.14362
       8     H     0.40900  0.40900  0.00000  0.18201
       9     C     3.15952  3.15952  0.00000 -0.31904
      10     H     0.41327  0.41327  0.00000  0.17346
      11     H     0.42612  0.42612  0.00000  0.14776
      12     C     3.16420  3.16420  0.00000 -0.32841
      13     H     0.41811  0.41811  0.00000  0.16377
      14     H     0.41687  0.41687  0.00000  0.16626
      15     C     3.16466  3.16466  0.00000 -0.32932
      16     H     0.41560  0.41560  0.00000  0.16880
      17     H     0.42103  0.42103  0.00000  0.15795
      18     H     0.41613  0.41613  0.00000  0.16773
      19     H     0.42014  0.42014  0.00000  0.15973

   Total alpha = 28.00000, Total beta = 28.00000, Total charge = -0.00000
