  ==> Input File <==

--------------------------------------------------------------------------
set {
	reference rhf
	basis 6-31G*
}

set_num_threads( 4 )
memory 2 gb

molecule MOL {
0 1

H	 1.928526	 4.860429	 0.072753
C	 2.459543	 4.559528	 0.984402
C	 1.632259	 3.782773	 1.976805
O	 3.602290	 4.848995	 1.133024
C	 0.929563	 2.575586	 1.340273
H	 2.274139	 3.483374	 2.797207
H	 0.881933	 4.466373	 2.372226
C	 1.895373	 1.483963	 0.872439
H	 0.237751	 2.158372	 2.065954
H	 0.321853	 2.912130	 0.501712
C	 1.180775	 0.282413	 0.250794
H	 2.494550	 1.152624	 1.718044
H	 2.597056	 1.896794	 0.150116
C	 2.148627	 -0.814315	 -0.201312
H	 0.474161	 -0.119141	 0.972724
H	 0.591383	 0.615365	 -0.602520
C	 3.580890	 -0.659131	 0.322722
H	 2.166869	 -0.852443	 -1.289387
H	 1.762857	 -1.776509	 0.128956
C	 4.324889	 0.564933	 -0.213704
H	 4.142010	 -1.551473	 0.056605
H	 3.564836	 -0.624694	 1.410140
H	 4.342616	 0.565491	 -1.300421
H	 3.866655	 1.493402	 0.110242
H	 5.353900	 0.572371	 0.132816

	symmetry c1
}
set optking {
	frozen_dihedral = ("
		8 11 14 18
	")
}

ee = optimize('scf')
oeprop('DIPOLE', 'QUADRUPOLE', 'MULLIKEN_CHARGES')
f=open( 'psi4out.xyz', 'w' )
f.write( "25  " )
f.write( str(ee) + "\n" )
f.write( MOL.save_string_xyz() )
f.close()
--------------------------------------------------------------------------

    Molecular point group: c1
  Charge       = 0
  Multiplicity = 1
  Basis Set: 6-31G*
  Basis Set:
  @DF-RHF Final Energy:  -387.08220573650681
    Total Energy =                       -387.0822057365070350
    Molecular point group: c1
  Basis Set: 6-31G*
  Basis Set:
  Basis Set: 6-31G*
  Basis Set:
  @DF-RHF Final Energy:  -387.10342192888731
    Total Energy =                       -387.1034219288877694
  Basis Set: 6-31G*
  Basis Set:
  Basis Set: 6-31G*
  Basis Set:
  @DF-RHF Final Energy:  -387.10830528649336
    Total Energy =                       -387.1083052864931915
  Basis Set: 6-31G*
  Basis Set:
  Basis Set: 6-31G*
  Basis Set:
  @DF-RHF Final Energy:  -387.10957753554237
    Total Energy =                       -387.1095775355425985
  Basis Set: 6-31G*
  Basis Set:
  @DF-RHF Final Energy:  -387.10579467505892
    Total Energy =                       -387.1057946750587462
  @DF-RHF Final Energy:  -387.11019631290299
    Total Energy =                       -387.1101963129034402
  @DF-RHF Final Energy:  -387.11030421596922
    Total Energy =                       -387.1103042159699044
  @DF-RHF Final Energy:  -387.11032867357699
    Total Energy =                       -387.1103286735777829
  @DF-RHF Final Energy:  -387.11037739831096
    Total Energy =                       -387.1103773983113570
  Basis Set: 6-31G*
  Basis Set:
  @DF-RHF Final Energy:  -387.11037939485453
    Total Energy =                       -387.1103793948549310
  Basis Set: 6-31G*
  Basis Set:
  Basis Set: 6-31G*
  Basis Set:
  @DF-RHF Final Energy:  -387.11036822253811
    Total Energy =                       -387.1103682225375451
  Basis Set: 6-31G*
  Basis Set:
  Basis Set: 6-31G*
  Basis Set:
  @DF-RHF Final Energy:  -387.11038165477913
    Total Energy =                       -387.1103816547791894
  Basis Set: 6-31G*
  Basis Set:
  Charge       = 0
  Multiplicity = 1
  Basis Set: 6-31G*
  Basis Set:

    Orbital Energies (a.u.)
    -----------------------

    Doubly Occupied:

       1A    -20.562255     2A    -11.326369     3A    -11.235421
       4A    -11.234785     5A    -11.223516     6A    -11.221161
       7A    -11.217825     8A    -11.217207     9A    -11.206906
      10A     -1.402183    11A     -1.102149    12A     -1.065047
      13A     -1.009798    14A     -0.946294    15A     -0.874019
      16A     -0.828070    17A     -0.788935    18A     -0.769946
      19A     -0.665543    20A     -0.660370    21A     -0.627693
      22A     -0.623044    23A     -0.608880    24A     -0.593719
      25A     -0.565807    26A     -0.556748    27A     -0.531884
      28A     -0.521673    29A     -0.514644    30A     -0.497102
      31A     -0.490270    32A     -0.483485    33A     -0.452136
      34A     -0.448529    35A     -0.443325    36A     -0.409747

  @DF-RHF Final Energy:  -387.11038169998255

   => Energetics <=

    Nuclear Repulsion Energy =            450.6312552795933470
    One-Electron Energy =               -1417.6303037535758449
    Two-Electron Energy =                 579.8886667739997165
    DFT Exchange-Correlation Energy =       0.0000000000000000
    Empirical Dispersion Energy =           0.0000000000000000
    PCM Polarization Energy =               0.0000000000000000
    EFP Energy =                            0.0000000000000000
    Total Energy =                       -387.1103816999827814
    Molecular point group: c1
  Basis Set: 6-31G*
  Basis Set:

  -Total Gradient:
     Atom            X                  Y                   Z
    ------   -----------------  -----------------  -----------------
       1        0.000000868673    -0.000001366376    -0.000001717383
       2       -0.000009200954     0.000006031882     0.000007640490
       3        0.000001408680     0.000006862031    -0.000007889621
       4        0.000007676243     0.000002479426    -0.000003429781
       5       -0.000001409458     0.000005689907    -0.000013436001
       6        0.000000670047    -0.000002810253    -0.000007654030
       7       -0.000003946986    -0.000004834887     0.000003494578
       8       -0.000301885360    -0.001326247779     0.002776691027
       9        0.000004325632     0.000002440176     0.000007632634
      10        0.000004805696    -0.000004594599     0.000002266750
      11       -0.000315535620     0.001368944173    -0.004071651339
      12        0.000009292443    -0.000014782631    -0.000005815252
      13        0.000013619127    -0.000002777553     0.000011387185
      14        0.003732633207     0.002472790985     0.001282243200
      15        0.000004555111     0.000001737217    -0.000001768298
      16       -0.000002198829    -0.000000557532    -0.000005682794
      17        0.000007465517     0.000002319153     0.000008426301
      18       -0.003149082656    -0.002511486251     0.000019518516
      19       -0.000008861648     0.000000757575    -0.000004722680
      20        0.000023432805    -0.000015588096     0.000006245605
      21        0.000009574564    -0.000002979592     0.000004733203
      22        0.000007194779     0.000006051291    -0.000012777632
      23       -0.000013696687    -0.000000982726     0.000006479694
      24       -0.000018394121     0.000006108104     0.000002840537
      25       -0.000003310210     0.000006796356    -0.000003054909

  **** Optimization is complete! (in 13 steps) ****
    Final optimized geometry and variables:
    Molecular point group: c1

    Geometry (in Angstrom), charge = 0, multiplicity = 1:

    H           -0.835514078466     3.153478590203    -0.519571323591
    C           -0.245798411761     2.867603713345     0.360369000978
    C           -0.960969492381     1.977840987163     1.344926239412
    O            0.868526149878     3.260768583845     0.485545561935
    C           -1.552630869741     0.725112283303     0.683326542712
    H           -0.268870488594     1.720022168067     2.138259635719
    H           -1.766627200978     2.566117084672     1.782267198928
    C           -0.490476409179    -0.249173027040     0.164315160043
    H           -2.184457424038     0.219236771850     1.407555034798
    H           -2.208053274344     1.023777973417    -0.133149604523
    C           -1.125104559668    -1.481870197401    -0.488395917182
    H            0.146050260676    -0.544141564377     0.992943236189
    H            0.150059195051     0.264613123903    -0.546812572023
    C           -0.197784096327    -2.641250906964    -0.950788976103
    H           -1.834258989520    -1.888682384987     0.228994090546
    H           -1.724037995081    -1.155990960741    -1.334541648506
    C            1.241753914809    -2.717988965118    -0.417176648139
    H           -0.176425819564    -2.674640597314    -2.037361584201
    H           -0.694065472871    -3.564986539175    -0.665613908745
    C            2.256671587640    -1.822884293854    -1.132045838619
    H            1.572628301462    -3.747438043783    -0.528946448852
    H            1.259380878900    -2.519664382140     0.651019933136
    H            2.271789550941    -2.036370306011    -2.197315065643
    H            2.043085142794    -0.768163253434    -1.010590758985
    H            3.257139663495    -1.998041919899    -0.748024744928

  Mulliken Charges: (a.u.)
   Center  Symbol    Alpha    Beta     Spin     Total
       1     H     0.43250  0.43250  0.00000  0.13499
       2     C     2.83111  2.83111  0.00000  0.33779
       3     C     3.20774  3.20774  0.00000 -0.41547
       4     O     4.23780  4.23780  0.00000 -0.47561
       5     C     3.16672  3.16672  0.00000 -0.33344
       6     H     0.39989  0.39989  0.00000  0.20023
       7     H     0.40669  0.40669  0.00000  0.18661
       8     C     3.15823  3.15823  0.00000 -0.31646
       9     H     0.41290  0.41290  0.00000  0.17420
      10     H     0.41966  0.41966  0.00000  0.16067
      11     C     3.15555  3.15555  0.00000 -0.31110
      12     H     0.41634  0.41634  0.00000  0.16732
      13     H     0.41715  0.41715  0.00000  0.16570
      14     C     3.15734  3.15734  0.00000 -0.31468
      15     H     0.42244  0.42244  0.00000  0.15512
      16     H     0.42036  0.42036  0.00000  0.15927
      17     C     3.15655  3.15655  0.00000 -0.31311
      18     H     0.42094  0.42094  0.00000  0.15811
      19     H     0.41954  0.41954  0.00000  0.16092
      20     C     3.24121  3.24121  0.00000 -0.48241
      21     H     0.42002  0.42002  0.00000  0.15996
      22     H     0.42158  0.42158  0.00000  0.15684
      23     H     0.42239  0.42239  0.00000  0.15521
      24     H     0.41628  0.41628  0.00000  0.16744
      25     H     0.41905  0.41905  0.00000  0.16191

   Total alpha = 36.00000, Total beta = 36.00000, Total charge =  0.00000
