                              Psi4 1.0.54 Driver

  ==> Input File <==

--------------------------------------------------------------------------
set {
	reference rhf
	basis cc-pvtz
}

set_num_threads( 4 )
memory 2 gb

molecule MOL {
0 1

O	 2.868453	 1.353349	 -0.000734
C	 2.841259	 0.166180	 -0.000295
C	 1.542794	 -0.614730	 -0.000853
C	 4.113372	 -0.651103	 0.000743
C	 0.288398	 0.247429	 0.000314
H	 1.557171	 -1.273139	 -0.866508
H	 1.557484	 -1.274998	 0.863344
C	 -0.993089	 -0.581367	 -0.000217
H	 0.305153	 0.900562	 -0.864701
H	 0.305567	 0.898805	 0.866656
C	 -2.258482	 0.271340	 0.000669
H	 -1.002280	 -1.233920	 -0.870484
H	 -1.002061	 -1.235367	 0.868958
C	 -2.703408	 0.696345	 1.397146
H	 -3.062948	 -0.280737	 -0.479080
H	 -2.094155	 1.157116	 -0.608038
C	 -3.968483	 1.548005	 1.389874
H	 -2.869045	 -0.188450	 2.005949
H	 -1.900371	 1.249358	 1.876963
H	 -4.799921	 1.009704	 0.947173
H	 -4.256822	 1.832297	 2.395388
H	 -3.824014	 2.458238	 0.817469
H	 4.145311	 -1.294584	 -0.871587
H	 4.970080	 0.004978	 -0.000091
H	 4.145223	 -1.291980	 0.874988

	symmetry c1
}
set optking {
	frozen_dihedral = ("
		15 11 8 12
	")
}

ee,wfn = optimize('scf', return_wfn=True)
oeprop( wfn, 'DIPOLE', 'QUADRUPOLE', 'MULLIKEN_CHARGES')
f=open( 'psi4out.xyz', 'w' )
f.write( "25  " )
f.write( str(ee) + "\n" )
f.write( MOL.save_string_xyz() )
f.close()
--------------------------------------------------------------------------

    Molecular point group: c1
  Charge       = 0
  Multiplicity = 1
  Basis Set: CC-PVTZ
  Basis Set:
  @DF-RHF Final Energy:  -387.27181462965365
    Total Energy =                       -387.2718146296531359
    Molecular point group: c1
  Basis Set: CC-PVTZ
  Basis Set:
  Basis Set: CC-PVTZ
  Basis Set:
  @DF-RHF Final Energy:  -387.27198736045966
    Total Energy =                       -387.2719873604595477
  Basis Set: CC-PVTZ
  Basis Set:
  Basis Set: CC-PVTZ
  Basis Set:
  @DF-RHF Final Energy:  -387.27202991961735
    Total Energy =                       -387.2720299196174665
  Basis Set: CC-PVTZ
  Basis Set:
  Basis Set: CC-PVTZ
  Basis Set:
  @DF-RHF Final Energy:  -387.27196764896860
    Total Energy =                       -387.2719676489684844
  Basis Set: CC-PVTZ
  Basis Set:
  Basis Set: CC-PVTZ
  Basis Set:
  @DF-RHF Final Energy:  -387.27203158484099
    Total Energy =                       -387.2720315848409882
  Basis Set: CC-PVTZ
  Basis Set:
  Charge       = 0
  Multiplicity = 1
  Basis Set: CC-PVTZ
  Basis Set:

    Orbital Energies (a.u.)
    -----------------------

    Doubly Occupied:

       1A    -20.539016     2A    -11.320649     3A    -11.230172
       4A    -11.226664     5A    -11.215273     6A    -11.214658
       7A    -11.212770     8A    -11.211492     9A    -11.205660
      10A     -1.399039    11A     -1.094739    12A     -1.056456
      13A     -1.014712    14A     -0.969753    15A     -0.890552
      16A     -0.825042    17A     -0.783267    18A     -0.731900
      19A     -0.654892    20A     -0.652769    21A     -0.638189
      22A     -0.620623    23A     -0.605134    24A     -0.581680
      25A     -0.567449    26A     -0.563861    27A     -0.546129
      28A     -0.524931    29A     -0.505271    30A     -0.495969
      31A     -0.490114    32A     -0.480326    33A     -0.462889
      34A     -0.457375    35A     -0.448687    36A     -0.401890

  @DF-RHF Final Energy:  -387.27203179401158

   => Energetics <=

    Nuclear Repulsion Energy =            444.1370028619614914
    One-Electron Energy =               -1405.1380864379011655
    Two-Electron Energy =                 573.7290517819279785
    DFT Exchange-Correlation Energy =       0.0000000000000000
    Empirical Dispersion Energy =           0.0000000000000000
    PCM Polarization Energy =               0.0000000000000000
    EFP Energy =                            0.0000000000000000
    Total Energy =                       -387.2720317940116956
    Molecular point group: c1
  Basis Set: CC-PVTZ
  Basis Set:

  -Total Gradient:
     Atom            X                  Y                   Z
    ------   -----------------  -----------------  -----------------
       1       -0.000011916590     0.000011393203     0.000004385237
       2        0.000005321563    -0.000007017905    -0.000013855081
       3       -0.000009082264     0.000000746769     0.000039064725
       4       -0.000000577965    -0.000005915757    -0.000011281453
       5        0.000007135976     0.000014506733    -0.000017393013
       6        0.000007962356     0.000005411116    -0.000011106856
       7        0.000000276343    -0.000005075955    -0.000011820454
       8        0.001525425913     0.002532311724    -0.002206851805
       9       -0.000006246315    -0.000005341327     0.000003831883
      10       -0.000005712741     0.000000688587     0.000003987971
      11       -0.000982620160    -0.001730433383     0.003109624084
      12       -0.001127570029    -0.001845813851     0.001355250207
      13       -0.000003967829     0.000003448779     0.000003025142
      14       -0.000000735903    -0.000001500364     0.000010061471
      15        0.000588054640     0.001043382703    -0.002256438857
      16        0.000006419160    -0.000000656018     0.000001049621
      17        0.000009339414    -0.000000021998    -0.000006060441
      18        0.000002863418    -0.000004432589    -0.000005921616
      19       -0.000000184768    -0.000002062477    -0.000004359214
      20       -0.000001104205     0.000000774408     0.000000917776
      21       -0.000002233969     0.000003110565     0.000003305645
      22       -0.000003224298    -0.000000107597    -0.000001455752
      23        0.000003947775    -0.000010744415     0.000002647283
      24       -0.000003749567     0.000001886511     0.000000636217
      25        0.000002180041     0.000001462540     0.000008757279

  **** Optimization is complete! (in 6 steps) ****
    Final optimized geometry and variables:
    Molecular point group: c1

    Geometry (in Angstrom), charge = 0, multiplicity = 1:

    O            2.664959624957     1.109032388326    -0.330831524644
    C            2.652267590498    -0.078376203877    -0.331765786786
    C            1.363389888769    -0.875116938992    -0.327362293482
    C            3.934207715590    -0.880232473348    -0.336234219926
    C            0.098952489723    -0.027909717371    -0.331922540585
    H            1.385304310474    -1.539338379234    -1.188422383218
    H            1.386357250156    -1.529031785105     0.541453796371
    C           -1.171627893671    -0.874477141721    -0.336951101912
    H            0.108457440336     0.620008804365    -1.200854212120
    H            0.110805433283     0.628158423947     0.530062199750
    C           -2.466112905401    -0.054153681079    -0.291673992388
    H           -1.181001075852    -1.513127374820    -1.215716635087
    H           -1.155369792918    -1.555121336606     0.512014210768
    C           -2.895722396428     0.363984133254     1.112445982240
    H           -3.266806494680    -0.618580430634    -0.760523827140
    H           -2.343215561902     0.834973576528    -0.905931834269
    C           -4.158315365432     1.219203848104     1.119247539804
    H           -3.061118240336    -0.526536864654     1.712804823489
    H           -2.091376877350     0.911410286581     1.594300132708
    H           -4.992001611148     0.689485726076     0.670052230346
    H           -4.444236320600     1.489631724153     2.129258175720
    H           -4.011889733926     2.137223210270     0.560109618386
    H            3.971311805948    -1.521117490681    -1.210250102198
    H            4.783059476448    -0.213962646903    -0.337920771836
    H            3.976159202881    -1.522751213068     0.536393029176

  Mulliken Charges: (a.u.)
   Center  Symbol    Alpha    Beta     Spin     Total
       1     O     4.17077  4.17077  0.00000 -0.34154
       2     C     2.86194  2.86194  0.00000  0.27611
       3     C     3.11505  3.11505  0.00000 -0.23010
       4     C     3.15111  3.15111  0.00000 -0.30223
       5     C     3.08174  3.08174  0.00000 -0.16347
       6     H     0.44489  0.44489  0.00000  0.11021
       7     H     0.44492  0.44492  0.00000  0.11015
       8     C     3.10099  3.10099  0.00000 -0.20198
       9     H     0.44606  0.44606  0.00000  0.10787
      10     H     0.44512  0.44512  0.00000  0.10977
      11     C     3.09619  3.09619  0.00000 -0.19237
      12     H     0.44782  0.44782  0.00000  0.10437
      13     H     0.45684  0.45684  0.00000  0.08632
      14     C     3.08125  3.08125  0.00000 -0.16251
      15     H     0.44761  0.44761  0.00000  0.10478
      16     H     0.45446  0.45446  0.00000  0.09108
      17     C     3.15057  3.15057  0.00000 -0.30114
      18     H     0.45557  0.45557  0.00000  0.08886
      19     H     0.45339  0.45339  0.00000  0.09323
      20     H     0.45529  0.45529  0.00000  0.08942
      21     H     0.44848  0.44848  0.00000  0.10303
      22     H     0.45382  0.45382  0.00000  0.09236
      23     H     0.45034  0.45034  0.00000  0.09933
      24     H     0.43536  0.43536  0.00000  0.12927
      25     H     0.45042  0.45042  0.00000  0.09916

   Total alpha = 36.00000, Total beta = 36.00000, Total charge = -0.00000

*** Psi4 exiting successfully. Buy a developer a beer!
