  ==> Input File <==

--------------------------------------------------------------------------
set {
	reference rhf
	basis cc-pvtz
}

set_num_threads( 4 )
memory 2 gb

molecule MOL {
0 1

H	 2.650298	 -0.781415	 0.799268
N	 2.433987	 -0.362316	 -0.080024
C	 1.263552	 0.494993	 0.021953
H	 2.276566	 -1.104562	 -0.729351
C	 -0.016533	 -0.325589	 -0.026925
H	 1.280915	 1.180773	 -0.818522
H	 1.263064	 1.106893	 0.925038
C	 -1.280353	 0.525521	 0.047747
H	 -0.016686	 -0.912532	 -0.939714
H	 -0.014099	 -1.037598	 0.796369
C	 -2.560681	 -0.301323	 -0.007747
H	 -1.279957	 1.241025	 -0.770189
H	 -1.270445	 1.110526	 0.963468
H	 -2.617064	 -0.872870	 -0.928010
H	 -3.439525	 0.331102	 0.043462
H	 -2.609427	 -1.002736	 0.818585

	symmetry c1
}
set optking {
	frozen_dihedral = ("
		1 2 3 6
	")
}

ee = optimize('scf')
oeprop('DIPOLE', 'QUADRUPOLE', 'MULLIKEN_CHARGES')
f=open( 'psi4out.xyz', 'w' )
f.write( "16  " )
f.write( str(ee) + "\n" )
f.write( MOL.save_string_xyz() )
f.close()
--------------------------------------------------------------------------

    Molecular point group: c1
  Charge       = 0
  Multiplicity = 1
  Basis Set: CC-PVTZ
  Basis Set:
  @DF-RHF Final Energy:  -212.39748394137644
    Total Energy =                       -212.3974839413762652
    Molecular point group: c1
  Basis Set: CC-PVTZ
  Basis Set:
  Basis Set: CC-PVTZ
  Basis Set:
  @DF-RHF Final Energy:  -212.39939937709923
    Total Energy =                       -212.3993993770990301
  Basis Set: CC-PVTZ
  Basis Set:
  Basis Set: CC-PVTZ
  Basis Set:
  @DF-RHF Final Energy:  -212.39961905039854
    Total Energy =                       -212.3996190503985417
  Basis Set: CC-PVTZ
  Basis Set:
  Basis Set: CC-PVTZ
  Basis Set:
  @DF-RHF Final Energy:  -212.39962624120486
    Total Energy =                       -212.3996262412048850
  Basis Set: CC-PVTZ
  Basis Set:
  Charge       = 0
  Multiplicity = 1
  Basis Set: CC-PVTZ
  Basis Set:

    Orbital Energies (a.u.)
    -----------------------

    Doubly Occupied:

       1A    -15.525274     2A    -11.237972     3A    -11.215351
       4A    -11.211079     5A    -11.208375     6A     -1.177588
       7A     -1.062698     8A     -0.960182     9A     -0.848307
      10A     -0.796835    11A     -0.678806    12A     -0.627603
      13A     -0.598162    14A     -0.588960    15A     -0.555055
      16A     -0.526865    17A     -0.501309    18A     -0.487221
      19A     -0.471492    20A     -0.465545    21A     -0.377183

  @DF-RHF Final Energy:  -212.39962696985009

   => Energetics <=

    Nuclear Repulsion Energy =            186.3580975932295587
    One-Electron Energy =                -655.2717316153369893
    Two-Electron Energy =                 256.5140070522576252
    DFT Exchange-Correlation Energy =       0.0000000000000000
    Empirical Dispersion Energy =           0.0000000000000000
    PCM Polarization Energy =               0.0000000000000000
    EFP Energy =                            0.0000000000000000
    Total Energy =                       -212.3996269698498054
    Molecular point group: c1
  Basis Set: CC-PVTZ
  Basis Set:

  -Total Gradient:
     Atom            X                  Y                   Z
    ------   -----------------  -----------------  -----------------
       1        0.001190169542     0.001812919305     0.000622570739
       2       -0.001256396244    -0.001986443491    -0.000537250417
       3       -0.000925541427    -0.001276516095    -0.001370740508
       4       -0.000024519646     0.000044483761     0.000037543256
       5        0.000162754947     0.000031376777    -0.000003296689
       6        0.000930796993     0.001349607159     0.001207211586
       7       -0.000000998882     0.000016163953     0.000028973027
       8        0.000011804684    -0.000010582390     0.000009086173
       9       -0.000008430636     0.000003549640     0.000035868412
      10        0.000001071238     0.000008122768    -0.000013115961
      11       -0.000062742622     0.000027623269    -0.000020089337
      12       -0.000002550798    -0.000003576509     0.000013054005
      13        0.000005517319    -0.000013304073    -0.000003458449
      14        0.000002027504    -0.000003669261     0.000004145069
      15       -0.000032242608    -0.000015821081    -0.000008515736
      16        0.000009280634     0.000016066267    -0.000001985172

  **** Optimization is complete! (in 5 steps) ****
    Final optimized geometry and variables:
    Molecular point group: c1

    Geometry (in Angstrom), charge = 0, multiplicity = 1:

    H            2.695038501096    -0.747781112499     0.819906192530
    N            2.493799815416    -0.308542293233    -0.052199587191
    C            1.269537698528     0.470373780395     0.013061384932
    H            2.447317909428    -1.016340571818    -0.753714449306
    C           -0.026709483087    -0.333517287589    -0.019980149309
    H            1.277690695271     1.190493093417    -0.799312357429
    H            1.305597898349     1.058839437065     0.924197858548
    C           -1.278346906022     0.536690178526     0.046596728763
    H           -0.050499454101    -0.929986864242    -0.929986372758
    H           -0.028440578896    -1.038926231173     0.808086841243
    C           -2.573015451976    -0.268332186474     0.002587686441
    H           -1.267437868391     1.244805444559    -0.777456397050
    H           -1.255062094408     1.129881239121     0.956821427657
    H           -2.642939222685    -0.846555489463    -0.912735337603
    H           -3.440761397194     0.379409838839     0.051179215616
    H           -2.630863371984    -0.961663540386     0.835042863242

  Mulliken Charges: (a.u.)
   Center  Symbol    Alpha    Beta     Spin     Total
       1     H     0.43025  0.43025  0.00000  0.13949
       2     N     3.69315  3.69315  0.00000 -0.38630
       3     C     3.02751  3.02751  0.00000 -0.05502
       4     H     0.43036  0.43036  0.00000  0.13929
       5     C     3.08474  3.08474  0.00000 -0.16949
       6     H     0.45380  0.45380  0.00000  0.09240
       7     H     0.45539  0.45539  0.00000  0.08922
       8     C     3.08977  3.08977  0.00000 -0.17954
       9     H     0.45980  0.45980  0.00000  0.08040
      10     H     0.45961  0.45961  0.00000  0.08077
      11     C     3.14858  3.14858  0.00000 -0.29715
      12     H     0.45431  0.45431  0.00000  0.09139
      13     H     0.45448  0.45448  0.00000  0.09105
      14     H     0.45492  0.45492  0.00000  0.09016
      15     H     0.44831  0.44831  0.00000  0.10339
      16     H     0.45502  0.45502  0.00000  0.08995

   Total alpha = 21.00000, Total beta = 21.00000, Total charge =  0.00000
