                              Psi4 1.0.54 Driver

  ==> Input File <==

--------------------------------------------------------------------------
set {
	reference rhf
	basis cc-pvtz
}

set_num_threads( 4 )
memory 2 gb

molecule MOL {
0 1

H	 2.614283	 2.028610	 0.296620
O	 3.358864	 1.662087	 -0.142800
C	 3.565468	 0.338079	 0.273842
C	 2.533667	 -0.637565	 -0.272227
H	 4.548038	 0.064914	 -0.086598
H	 3.593945	 0.282242	 1.360360
C	 1.114816	 -0.402372	 0.240993
H	 2.544552	 -0.580764	 -1.356576
H	 2.850574	 -1.642962	 -0.005497
C	 0.967582	 -0.705128	 1.731462
H	 0.422702	 -1.018739	 -0.322987
H	 0.832602	 0.633053	 0.057861
C	 -0.416276	 -0.416216	 2.316031
H	 1.222565	 -1.746758	 1.910960
H	 1.700210	 -0.116820	 2.277007
C	 -1.536613	 -1.318578	 1.801902
H	 -0.358282	 -0.519050	 3.396119
H	 -0.675811	 0.622897	 2.126185
C	 -2.875681	 -1.057535	 2.486857
H	 -1.255452	 -2.358767	 1.951650
H	 -1.659990	 -1.187913	 0.731057
C	 -3.997319	 -1.954209	 1.973244
H	 -2.764094	 -1.199006	 3.558357
H	 -3.153923	 -0.016560	 2.345382
H	 -3.763376	 -3.002079	 2.129696
H	 -4.931722	 -1.745034	 2.481421
H	 -4.159677	 -1.808659	 0.910321

	symmetry c1
}
set optking {
	frozen_dihedral = ("
		10 7 4 8
	")
}

ee,wfn = optimize('scf', return_wfn=True)
oeprop( wfn, 'DIPOLE', 'QUADRUPOLE', 'MULLIKEN_CHARGES')
f=open( 'psi4out.xyz', 'w' )
f.write( "27  " )
f.write( str(ee) + "\n" )
f.write( MOL.save_string_xyz() )
f.close()
--------------------------------------------------------------------------

    Molecular point group: c1
  Charge       = 0
  Multiplicity = 1
  Basis Set: CC-PVTZ
  Basis Set:
  @DF-RHF Final Energy:  -388.42518398064891
    Total Energy =                       -388.4251839806494218
    Molecular point group: c1
  Basis Set: CC-PVTZ
  Basis Set:
  Basis Set: CC-PVTZ
  Basis Set:
  @DF-RHF Final Energy:  -388.41072639626560
    Total Energy =                       -388.4107263962652041
  Basis Set: CC-PVTZ
  Basis Set:
  Basis Set: CC-PVTZ
  Basis Set:
  @DF-RHF Final Energy:  -388.42563225796016
    Total Energy =                       -388.4256322579602738
  Basis Set: CC-PVTZ
  Basis Set:
  Basis Set: CC-PVTZ
  Basis Set:
  @DF-RHF Final Energy:  -388.42579784791064
    Total Energy =                       -388.4257978479104167
  Basis Set: CC-PVTZ
  Basis Set:
  Basis Set: CC-PVTZ
  Basis Set:
  @DF-RHF Final Energy:  -388.42575741662870
    Total Energy =                       -388.4257574166281302
  Basis Set: CC-PVTZ
  Basis Set:
  Basis Set: CC-PVTZ
  Basis Set:
  @DF-RHF Final Energy:  -388.42581652270826
    Total Energy =                       -388.4258165227087147
  Basis Set: CC-PVTZ
  Basis Set:
  Charge       = 0
  Multiplicity = 1
  Basis Set: CC-PVTZ
  Basis Set:

    Orbital Energies (a.u.)
    -----------------------

    Doubly Occupied:

       1A    -20.545166     2A    -11.264103     3A    -11.216832
       4A    -11.216239     5A    -11.214955     6A    -11.214414
       7A    -11.213648     8A    -11.212474     9A    -11.207609
      10A     -1.362924    11A     -1.096785    12A     -1.062143
      13A     -1.011914    14A     -0.948239    15A     -0.893777
      16A     -0.826842    17A     -0.798992    18A     -0.774036
      19A     -0.697080    20A     -0.648169    21A     -0.644937
      22A     -0.610839    23A     -0.604277    24A     -0.586882
      25A     -0.574245    26A     -0.564897    27A     -0.543977
      28A     -0.526222    29A     -0.510847    30A     -0.496809
      31A     -0.488316    32A     -0.472458    33A     -0.468060
      34A     -0.461610    35A     -0.452105    36A     -0.441382
      37A     -0.426252

  @DF-RHF Final Energy:  -388.42581703716644

   => Energetics <=

    Nuclear Repulsion Energy =            462.7060525170251140
    One-Electron Energy =               -1443.6628192373798356
    Two-Electron Energy =                 592.5309496831880551
    DFT Exchange-Correlation Energy =       0.0000000000000000
    Empirical Dispersion Energy =           0.0000000000000000
    PCM Polarization Energy =               0.0000000000000000
    EFP Energy =                            0.0000000000000000
    Total Energy =                       -388.4258170371666665
    Molecular point group: c1
  Basis Set: CC-PVTZ
  Basis Set:

  -Total Gradient:
     Atom            X                  Y                   Z
    ------   -----------------  -----------------  -----------------
       1        0.000010050259     0.000025055529     0.000002561424
       2       -0.000069639088    -0.000034684065     0.000039221797
       3        0.000069400158     0.000022404252    -0.000065299562
       4        0.000046866386     0.000358655664     0.000109896660
       5        0.000021060792    -0.000033544373     0.000010291980
       6       -0.000019012354     0.000019085110    -0.000006863741
       7        0.000075719444     0.000293833677     0.000157400371
       8       -0.000063241788    -0.000392013122    -0.000112212215
       9        0.000002440005     0.000002772055     0.000001698925
      10       -0.000088344738    -0.000249338439    -0.000154844768
      11       -0.000018406534    -0.000009510426     0.000004603507
      12        0.000012916495    -0.000003698192     0.000017308798
      13        0.000002432986     0.000000209091     0.000003524530
      14       -0.000005159483     0.000013429848    -0.000003065469
      15       -0.000000991145    -0.000001679730     0.000004272833
      16        0.000005550026    -0.000026600615    -0.000013358168
      17       -0.000000796197     0.000001224634    -0.000007651051
      18        0.000008960752    -0.000008266880    -0.000001388915
      19        0.000000262507     0.000019942254     0.000014933185
      20        0.000006108974     0.000003617573     0.000001266637
      21        0.000005115307     0.000002353106     0.000006453227
      22        0.000001388559    -0.000005500327    -0.000011135964
      23       -0.000004098551    -0.000004371773    -0.000010406737
      24       -0.000005324035    -0.000005663333     0.000001187055
      25        0.000003025777     0.000005514281     0.000003317971
      26        0.000000836278     0.000005341305     0.000002043205
      27        0.000002879207     0.000001432896     0.000006244481

  **** Optimization is complete! (in 7 steps) ****
    Final optimized geometry and variables:
    Molecular point group: c1

    Geometry (in Angstrom), charge = 0, multiplicity = 1:

    H            2.281148406211     2.668005226639    -0.227673359233
    O            2.977706828603     2.446725526467    -0.817140109462
    C            3.227311519789     1.066118379602    -0.780114161193
    C            2.143200039802     0.239614885796    -1.459502216717
    H            4.162275900796     0.920604870062    -1.304272705973
    H            3.383602922129     0.737090334675     0.243149344644
    C            0.750047395369     0.316988547964    -0.828527177411
    H            2.078256971091     0.560644100888    -2.493844164887
    H            2.471992352053    -0.797003865532    -1.475209903332
    C            0.641023698754    -0.330551273020     0.552527477426
    H            0.053576791642    -0.162660896424    -1.506282003719
    H            0.431600187412     1.355171290558    -0.769970063093
    C           -0.745903891614    -0.238650064306     1.193581383255
    H            0.933393440129    -1.375521270393     0.479809347054
    H            1.353570905872     0.132824442688     1.227896967200
    C           -1.839400753297    -1.040374636396     0.489970032503
    H           -0.670833365036    -0.585508594582     2.220444043282
    H           -1.046301131198     0.805316006481     1.249922062881
    C           -3.177566068732    -0.995150262771     1.223215212649
    H           -1.518743335539    -2.075645010942     0.395626168334
    H           -1.981761970375    -0.671958600454    -0.521070636385
    C           -4.273037200255    -1.791063049156     0.521679747067
    H           -3.046972744334    -1.375340792781     2.232652413337
    H           -3.494790696974     0.039034270929     1.326767251820
    H           -4.000137253841    -2.837334497033     0.431933788019
    H           -5.207696127033    -1.739360557864     1.068245636790
    H           -4.453719563813    -1.411226786053    -0.478431636179

  Mulliken Charges: (a.u.)
   Center  Symbol    Alpha    Beta     Spin     Total
       1     H     0.39238  0.39238  0.00000  0.21524
       2     O     4.20621  4.20621  0.00000 -0.41241
       3     C     2.98155  2.98155  0.00000  0.03689
       4     C     3.09467  3.09467  0.00000 -0.18934
       5     H     0.44662  0.44662  0.00000  0.10676
       6     H     0.46811  0.46811  0.00000  0.06379
       7     C     3.11745  3.11745  0.00000 -0.23491
       8     H     0.44573  0.44573  0.00000  0.10853
       9     H     0.45570  0.45570  0.00000  0.08859
      10     C     3.10385  3.10385  0.00000 -0.20770
      11     H     0.44078  0.44078  0.00000  0.11844
      12     H     0.45295  0.45295  0.00000  0.09409
      13     C     3.09588  3.09588  0.00000 -0.19175
      14     H     0.45195  0.45195  0.00000  0.09610
      15     H     0.44681  0.44681  0.00000  0.10638
      16     C     3.08780  3.08780  0.00000 -0.17559
      17     H     0.44789  0.44789  0.00000  0.10421
      18     H     0.45448  0.45448  0.00000  0.09104
      19     C     3.08428  3.08428  0.00000 -0.16855
      20     H     0.45485  0.45485  0.00000  0.09030
      21     H     0.45316  0.45316  0.00000  0.09368
      22     C     3.14971  3.14971  0.00000 -0.29942
      23     H     0.45402  0.45402  0.00000  0.09196
      24     H     0.45450  0.45450  0.00000  0.09100
      25     H     0.45517  0.45517  0.00000  0.08967
      26     H     0.44824  0.44824  0.00000  0.10353
      27     H     0.45527  0.45527  0.00000  0.08946

   Total alpha = 37.00000, Total beta = 37.00000, Total charge =  0.00000

*** Psi4 exiting successfully. Buy a developer a beer!
