  ==> Input File <==

--------------------------------------------------------------------------
set {
	reference rhf
	basis 6-31G*
}

set_num_threads( 4 )
memory 2 gb

molecule MOL {
0 1

H	 3.463771	 0.168298	 -0.756243
C	 2.752674	 -0.045734	 0.033351
C	 1.322923	 0.120767	 -0.479465
H	 2.934561	 -1.059086	 0.377456
H	 2.958358	 0.631174	 0.856809
C	 0.306652	 -0.176050	 0.621399
H	 1.144658	 -0.551717	 -1.312180
H	 1.166477	 1.131798	 -0.836680
N	 -1.068537	 -0.011044	 0.085269
H	 0.372515	 -1.192590	 0.973735
H	 0.391664	 0.520566	 1.441230
O	 -1.330562	 -0.562877	 -0.938545
O	 -1.809253	 0.691747	 0.702885

	symmetry c1
}
set optking {
	frozen_dihedral = ("
		12 9 6 3
	")
}

ee = optimize('scf')
oeprop('DIPOLE', 'QUADRUPOLE', 'MULLIKEN_CHARGES')
f=open( 'psi4out.xyz', 'w' )
f.write( "13  " )
f.write( str(ee) + "\n" )
f.write( MOL.save_string_xyz() )
f.close()
--------------------------------------------------------------------------

    Molecular point group: c1
  Charge       = 0
  Multiplicity = 1
  Basis Set: 6-31G*
  Basis Set:
  @DF-RHF Final Energy:  -321.73489395490753
    Total Energy =                       -321.7348939549073066
    Molecular point group: c1
  Basis Set: 6-31G*
  Basis Set:
  Basis Set: 6-31G*
  Basis Set:
  @DF-RHF Final Energy:  -321.73099963167181
    Total Energy =                       -321.7309996316719776
  Basis Set: 6-31G*
  Basis Set:
  Basis Set: 6-31G*
  Basis Set:
  @DF-RHF Final Energy:  -321.73291686349700
    Total Energy =                       -321.7329168634969392
  Basis Set: 6-31G*
  Basis Set:
  Basis Set: 6-31G*
  Basis Set:
  @DF-RHF Final Energy:  -321.73530759568416
    Total Energy =                       -321.7353075956842758
  Basis Set: 6-31G*
  Basis Set:
  Basis Set: 6-31G*
  Basis Set:
  @DF-RHF Final Energy:  -321.73532373889327
    Total Energy =                       -321.7353237388932712
  Basis Set: 6-31G*
  Basis Set:
  Basis Set: 6-31G*
  Basis Set:
  @DF-RHF Final Energy:  -321.73540596792429
    Total Energy =                       -321.7354059679241232
  Basis Set: 6-31G*
  Basis Set:
  Charge       = 0
  Multiplicity = 1
  Basis Set: 6-31G*
  Basis Set:

    Orbital Energies (a.u.)
    -----------------------

    Doubly Occupied:

       1A    -20.602885     2A    -20.599690     3A    -15.847838
       4A    -11.300025     5A    -11.253386     6A    -11.238677
       7A     -1.631368     8A     -1.416671     9A     -1.133992
      10A     -1.027959    11A     -0.884454    12A     -0.829860
      13A     -0.760060    14A     -0.739763    15A     -0.724589
      16A     -0.666112    17A     -0.605381    18A     -0.584071
      19A     -0.550824    20A     -0.522651    21A     -0.511462
      22A     -0.484385    23A     -0.473289    24A     -0.449057

  @DF-RHF Final Energy:  -321.73540619537869

   => Energetics <=

    Nuclear Repulsion Energy =            247.1664515087762766
    One-Electron Energy =                -928.1268229200268252
    Two-Electron Energy =                 359.2249652158718618
    DFT Exchange-Correlation Energy =       0.0000000000000000
    Empirical Dispersion Energy =           0.0000000000000000
    PCM Polarization Energy =               0.0000000000000000
    EFP Energy =                            0.0000000000000000
    Total Energy =                       -321.7354061953786868
    Molecular point group: c1
  Basis Set: 6-31G*
  Basis Set:

  -Total Gradient:
     Atom            X                  Y                   Z
    ------   -----------------  -----------------  -----------------
       1       -0.000001150509    -0.000012326079    -0.000001680282
       2       -0.000009018251    -0.000029395010    -0.000011742746
       3       -0.000004893528    -0.000272393812    -0.000077291088
       4       -0.000007776426     0.000006077769     0.000014162736
       5        0.000009435146     0.000015508710    -0.000008489075
       6        0.000036252862     0.000527004763     0.000035230922
       7        0.000008688305     0.000030805534    -0.000006100475
       8        0.000001488503     0.000009743251    -0.000000530999
       9       -0.000143049598    -0.000609266869     0.000188687522
      10       -0.000013029303    -0.000005675372     0.000013476805
      11        0.000004286317    -0.000013882822    -0.000000004420
      12        0.000136458724     0.000310384726    -0.000189662117
      13       -0.000017692243     0.000043415209     0.000043943219

  **** Optimization is complete! (in 7 steps) ****
    Final optimized geometry and variables:
    Molecular point group: c1

    Geometry (in Angstrom), charge = 0, multiplicity = 1:

    H            3.489633797410     0.151451876210    -0.750974912256
    C            2.766350804686    -0.047081406698     0.031552624769
    C            1.344441614956     0.112680016204    -0.506314277920
    H            2.940851700146    -1.055534386841     0.394461975190
    H            2.964061784253     0.641410374862     0.847345821372
    C            0.318475806102    -0.168341531027     0.584512181717
    H            1.175515495490    -0.562094283244    -1.334594045364
    H            1.201195530366     1.122439769075    -0.878360507216
    N           -1.073180051684    -0.001846416754     0.083712476112
    H            0.372911694967    -1.194571392606     0.923721785964
    H            0.407666255175     0.496931983076     1.427383775827
    O           -1.358401238690    -0.558388027791    -0.932624183841
    O           -1.815948547567     0.662287699339     0.737365620237

  Mulliken Charges: (a.u.)
   Center  Symbol    Alpha    Beta     Spin     Total
       1     H     0.40747  0.40747  0.00000  0.18506
       2     C     3.24904  3.24904  0.00000 -0.49808
       3     C     3.17098  3.17098  0.00000 -0.34196
       4     H     0.41559  0.41559  0.00000  0.16882
       5     H     0.41544  0.41544  0.00000  0.16912
       6     C     3.08749  3.08749  0.00000 -0.17498
       7     H     0.39366  0.39366  0.00000  0.21269
       8     H     0.40566  0.40566  0.00000  0.18867
       9     N     3.22204  3.22204  0.00000  0.55592
      10     H     0.38772  0.38772  0.00000  0.22457
      11     H     0.38585  0.38585  0.00000  0.22830
      12     O     4.23066  4.23066  0.00000 -0.46132
      13     O     4.22841  4.22841  0.00000 -0.45681

   Total alpha = 24.00000, Total beta = 24.00000, Total charge = -0.00000
