  ==> Input File <==

--------------------------------------------------------------------------
set {
	reference rhf
	basis 6-31G*
}

set_num_threads( 4 )
memory 2 gb

molecule MOL {
0 1

H	 -2.646374	 -0.642757	 1.268656
C	 -2.083525	 -0.384536	 0.393091
O	 -0.807605	 -0.127164	 0.768327
F	 -2.118945	 -1.383102	 -0.486752
F	 -2.621877	 0.670592	 -0.209486
C	 0.084052	 0.273579	 -0.209957
C	 1.353033	 -0.546803	 -0.018071
Cl	 0.433844	 2.004619	 -0.074457
H	 -0.288836	 0.092657	 -1.202930
F	 1.140840	 -1.529629	 0.831143
F	 2.290257	 0.232443	 0.483751
F	 1.791773	 -1.050514	 -1.145792

	symmetry c1
}
set optking {
	frozen_dihedral = ("
		10 7 6 9
	")
}

ee = optimize('scf')
oeprop('DIPOLE', 'QUADRUPOLE', 'MULLIKEN_CHARGES')
f=open( 'psi4out.xyz', 'w' )
f.write( "12  " )
f.write( str(ee) + "\n" )
f.write( MOL.save_string_xyz() )
f.close()
--------------------------------------------------------------------------

    Molecular point group: c1
  Charge       = 0
  Multiplicity = 1
  Basis Set: 6-31G*
  Basis Set:
  @DF-RHF Final Energy: -1146.30175924578816
    Total Energy =                      -1146.3017592457881619
    Molecular point group: c1
  Basis Set: 6-31G*
  Basis Set:
  Basis Set: 6-31G*
  Basis Set:
  @DF-RHF Final Energy: -1146.30266078824525
    Total Energy =                      -1146.3026607882457029
  Basis Set: 6-31G*
  Basis Set:
  Basis Set: 6-31G*
  Basis Set:
  @DF-RHF Final Energy: -1146.30543574916328
    Total Energy =                      -1146.3054357491637347
  Basis Set: 6-31G*
  Basis Set:
  Basis Set: 6-31G*
  Basis Set:
  @DF-RHF Final Energy: -1146.30561949766366
    Total Energy =                      -1146.3056194976634288
  Basis Set: 6-31G*
  Basis Set:
  @DF-RHF Final Energy: -1146.30564045631650
    Total Energy =                      -1146.3056404563162687
  @DF-RHF Final Energy: -1146.30564879343683
    Total Energy =                      -1146.3056487934361485
  @DF-RHF Final Energy: -1146.30565599904412
    Total Energy =                      -1146.3056559990441201
  @DF-RHF Final Energy: -1146.30566262645493
    Total Energy =                      -1146.3056626264540228
  @DF-RHF Final Energy: -1146.30566844795271
    Total Energy =                      -1146.3056684479524847
  @DF-RHF Final Energy: -1146.30567363116188
    Total Energy =                      -1146.3056736311614259
  @DF-RHF Final Energy: -1146.30567058343149
    Total Energy =                      -1146.3056705834310378
  @DF-RHF Final Energy: -1146.30565153963380
    Total Energy =                      -1146.3056515396331179
  @DF-RHF Final Energy: -1146.30568031852135
    Total Energy =                      -1146.3056803185199897
  @DF-RHF Final Energy: -1146.30568453368437
    Total Energy =                      -1146.3056845336848255
  @DF-RHF Final Energy: -1146.30568807137843
    Total Energy =                      -1146.3056880713779719
  @DF-RHF Final Energy: -1146.30569174340462
    Total Energy =                      -1146.3056917434034858
  @DF-RHF Final Energy: -1146.30569253979093
    Total Energy =                      -1146.3056925397913801
  @DF-RHF Final Energy: -1146.30569526790214
    Total Energy =                      -1146.3056952679021379
  Basis Set: 6-31G*
  Basis Set:
  @DF-RHF Final Energy: -1146.30569702743469
    Total Energy =                      -1146.3056970274346895
  Basis Set: 6-31G*
  Basis Set:
  Basis Set: 6-31G*
  Basis Set:
  @DF-RHF Final Energy: -1146.30569810062138
    Total Energy =                      -1146.3056981006213846
  Basis Set: 6-31G*
  Basis Set:
  Basis Set: 6-31G*
  Basis Set:
  @DF-RHF Final Energy: -1146.30569675394577
    Total Energy =                      -1146.3056967539453126
  Basis Set: 6-31G*
  Basis Set:
  Charge       = 0
  Multiplicity = 1
  Basis Set: 6-31G*
  Basis Set:

    Orbital Energies (a.u.)
    -----------------------

    Doubly Occupied:

       1A   -104.843372     2A    -26.358619     3A    -26.357529
       4A    -26.356585     5A    -26.346706     6A    -26.346508
       7A    -20.647979     8A    -11.529205     9A    -11.489688
      10A    -11.401791    11A    -10.577936    12A     -8.047282
      13A     -8.043759    14A     -8.043643    15A     -1.761211
      16A     -1.717923    17A     -1.656373    18A     -1.654965
      19A     -1.638682    20A     -1.485838    21A     -1.177122
      22A     -1.046338    23A     -0.987436    24A     -0.919252
      25A     -0.857268    26A     -0.852603    27A     -0.843839
      28A     -0.826204    29A     -0.813351    30A     -0.790912
      31A     -0.727482    32A     -0.725359    33A     -0.703832
      34A     -0.701916    35A     -0.676852    36A     -0.674143
      37A     -0.657796    38A     -0.655869    39A     -0.646431
      40A     -0.630250    41A     -0.597052    42A     -0.577257
      43A     -0.523146    44A     -0.475738    45A     -0.467576

  @DF-RHF Final Energy: -1146.30569825163957

   => Energetics <=

    Nuclear Repulsion Energy =            736.1647467769397508
    One-Electron Energy =               -3055.2196580998825084
    Two-Electron Energy =                1172.7492130713035294
    DFT Exchange-Correlation Energy =       0.0000000000000000
    Empirical Dispersion Energy =           0.0000000000000000
    PCM Polarization Energy =               0.0000000000000000
    EFP Energy =                            0.0000000000000000
    Total Energy =                      -1146.3056982516391145
    Molecular point group: c1
  Basis Set: 6-31G*
  Basis Set:

  -Total Gradient:
     Atom            X                  Y                   Z
    ------   -----------------  -----------------  -----------------
       1        0.000045079804     0.000022825280     0.000029732030
       2       -0.000063262204     0.000127808083    -0.000027211181
       3        0.000104193827    -0.000150227702     0.000098986831
       4        0.000040032550    -0.000009633806     0.000002504335
       5       -0.000023351474     0.000022551412    -0.000004650904
       6       -0.002917465890    -0.003077038034     0.002128297980
       7       -0.000879714334    -0.001397186558    -0.003569952483
       8       -0.000004847746    -0.000014298387     0.000087645775
       9        0.002530474455     0.002956806337    -0.001344567890
      10        0.001073487345     0.001717737080     0.002432926887
      11        0.000160028086    -0.000040985449    -0.000044792621
      12       -0.000064654441    -0.000158358259     0.000211081242

  **** Optimization is complete! (in 22 steps) ****
    Final optimized geometry and variables:
    Molecular point group: c1

    Geometry (in Angstrom), charge = 0, multiplicity = 1:

    H           -2.683155609867    -0.609746248790     1.238801356990
    C           -2.082258598313    -0.395409284998     0.376969211272
    O           -0.861151155569     0.007815489258     0.798341747559
    F           -1.975542003027    -1.478248628390    -0.391510624124
    F           -2.660129521463     0.542186499125    -0.368167475661
    C            0.066091004998     0.345096829091    -0.168004577488
    C            1.326840150109    -0.544916720415    -0.015125168821
    CL           0.457331717358     2.069641553353    -0.040200097982
    H           -0.303607217059     0.205356129403    -1.167338487993
    F            1.095297470988    -1.553419205803     0.791859479781
    F            2.372552157695     0.099108578259     0.445945803650
    F            1.644900801345    -1.028214231818    -1.202490819412

  Mulliken Charges: (a.u.)
   Center  Symbol    Alpha    Beta     Spin     Total
       1     H     0.40076  0.40076  0.00000  0.19847
       2     C     2.56651  2.56651  0.00000  0.86697
       3     O     4.29147  4.29147  0.00000 -0.58294
       4     F     4.68744  4.68744  0.00000 -0.37488
       5     F     4.68536  4.68536  0.00000 -0.37072
       6     C     3.07251  3.07251  0.00000 -0.14503
       7     C     2.42462  2.42462  0.00000  1.15076
       8    CL     8.49480  8.49480  0.00000  0.01041
       9     H     0.36149  0.36149  0.00000  0.27702
      10     F     4.66923  4.66923  0.00000 -0.33845
      11     F     4.66677  4.66677  0.00000 -0.33353
      12     F     4.67904  4.67904  0.00000 -0.35807

   Total alpha = 45.00000, Total beta = 45.00000, Total charge =  0.00000
