  ==> Input File <==

--------------------------------------------------------------------------
set {
	reference rhf
	basis cc-pvtz
}

set_num_threads( 4 )
memory 2 gb

molecule MOL {
0 1

H	 1.128311	 0.207724	 1.465118
C	 1.134565	 0.093781	 0.372499
C	 0.062554	 0.862911	 -0.350953
O	 1.948932	 -0.587720	 -0.146651
C	 -0.272958	 2.191881	 0.333068
H	 -0.811833	 0.231699	 -0.443216
H	 0.440988	 1.060960	 -1.351272
C	 -0.938594	 2.022185	 1.695706
H	 -0.926309	 2.758138	 -0.320430
H	 0.633663	 2.781207	 0.438810
H	 -1.866604	 1.468405	 1.608070
H	 -1.165282	 2.985685	 2.136071
H	 -0.301760	 1.484259	 2.389329

	symmetry c1
}
set optking {
	frozen_dihedral = ("
		6 3 2 4
	")
}

ee = optimize('scf')
oeprop('DIPOLE', 'QUADRUPOLE', 'MULLIKEN_CHARGES')
f=open( 'psi4out.xyz', 'w' )
f.write( "13  " )
f.write( str(ee) + "\n" )
f.write( MOL.save_string_xyz() )
f.close()
--------------------------------------------------------------------------

    Molecular point group: c1
  Charge       = 0
  Multiplicity = 1
  Basis Set: CC-PVTZ
  Basis Set:
  @DF-RHF Final Energy:  -231.06749763624344
    Total Energy =                       -231.0674976362434734
    Molecular point group: c1
  Basis Set: CC-PVTZ
  Basis Set:
  Basis Set: CC-PVTZ
  Basis Set:
  @DF-RHF Final Energy:  -231.06837258403596
    Total Energy =                       -231.0683725840356999
  Basis Set: CC-PVTZ
  Basis Set:
  Basis Set: CC-PVTZ
  Basis Set:
  @DF-RHF Final Energy:  -231.06837923072843
    Total Energy =                       -231.0683792307283397
  Basis Set: CC-PVTZ
  Basis Set:
  Basis Set: CC-PVTZ
  Basis Set:
  @DF-RHF Final Energy:  -231.06864780180948
    Total Energy =                       -231.0686478018094761
  Basis Set: CC-PVTZ
  Basis Set:
  Basis Set: CC-PVTZ
  Basis Set:
  @DF-RHF Final Energy:  -231.06868210204541
    Total Energy =                       -231.0686821020452726
  Basis Set: CC-PVTZ
  Basis Set:
  Basis Set: CC-PVTZ
  Basis Set:
  @DF-RHF Final Energy:  -231.06868310175290
    Total Energy =                       -231.0686831017527822
  Basis Set: CC-PVTZ
  Basis Set:
  Charge       = 0
  Multiplicity = 1
  Basis Set: CC-PVTZ
  Basis Set:

    Orbital Energies (a.u.)
    -----------------------

    Doubly Occupied:

       1A    -20.551334     2A    -11.321754     3A    -11.236489
       4A    -11.234777     5A    -11.223862     6A     -1.406597
       7A     -1.087712     8A     -0.974596     9A     -0.851737
      10A     -0.790091    11A     -0.673371    12A     -0.652774
      13A     -0.612201    14A     -0.597243    15A     -0.583201
      16A     -0.528671    17A     -0.508424    18A     -0.494940
      19A     -0.486377    20A     -0.411475

  @DF-RHF Final Energy:  -231.06868581430942

   => Energetics <=

    Nuclear Repulsion Energy =            172.2711163176751654
    One-Electron Energy =                -654.2243522572534857
    Two-Electron Energy =                 250.8845501252690156
    DFT Exchange-Correlation Energy =       0.0000000000000000
    Empirical Dispersion Energy =           0.0000000000000000
    PCM Polarization Energy =               0.0000000000000000
    EFP Energy =                            0.0000000000000000
    Total Energy =                       -231.0686858143093332
    Molecular point group: c1
  Basis Set: CC-PVTZ
  Basis Set:

  -Total Gradient:
     Atom            X                  Y                   Z
    ------   -----------------  -----------------  -----------------
       1        0.000007934841    -0.000006881260    -0.000002877592
       2        0.000390257974     0.000395934127    -0.000119278723
       3       -0.000212955804     0.000024001190     0.000385791852
       4       -0.000267845037    -0.000279925202     0.000058354634
       5        0.000007626448     0.000001138309     0.000013147021
       6        0.000097754857    -0.000120929402    -0.000335073152
       7       -0.000012408936     0.000000485683    -0.000009233528
       8       -0.000003486675     0.000001198939     0.000018635837
       9        0.000003433404    -0.000013642965    -0.000009131917
      10        0.000005058975    -0.000004246796    -0.000012526849
      11        0.000004429848     0.000001754296     0.000004348678
      12       -0.000004464366    -0.000007394591     0.000004029333
      13       -0.000015335525     0.000008507673     0.000003814406

  **** Optimization is complete! (in 7 steps) ****
    Final optimized geometry and variables:
    Molecular point group: c1

    Geometry (in Angstrom), charge = 0, multiplicity = 1:

    H            0.900095155001    -0.718598532642     1.047192146354
    C            0.803712674027    -0.821313990358    -0.039738759911
    C           -0.318239824198    -0.050744973972    -0.689199745645
    O            1.554004850468    -1.517824388404    -0.631760807791
    C           -0.648672598026     1.279190417751    -0.005594372713
    H           -1.192641727771    -0.698183901645    -0.682793224733
    H           -0.045494902137     0.095831741361    -1.726143481251
    C           -1.395809090132     1.137001744648     1.318563159642
    H           -1.252550939980     1.867627502623    -0.686541825597
    H            0.266647164354     1.844002769998     0.147727473938
    H           -2.340267483634     0.623095279058     1.175525320853
    H           -1.609701850043     2.109881177804     1.744387447312
    H           -0.826418951895     0.579589011217     2.053200113899

  Mulliken Charges: (a.u.)
   Center  Symbol    Alpha    Beta     Spin     Total
       1     H     0.46289  0.46289  0.00000  0.07421
       2     C     2.90526  2.90526  0.00000  0.18948
       3     C     3.08812  3.08812  0.00000 -0.17623
       4     O     4.16582  4.16582  0.00000 -0.33163
       5     C     3.10212  3.10212  0.00000 -0.20424
       6     H     0.44775  0.44775  0.00000  0.10449
       7     H     0.43532  0.43532  0.00000  0.12937
       8     C     3.14853  3.14853  0.00000 -0.29706
       9     H     0.44390  0.44390  0.00000  0.11220
      10     H     0.44824  0.44824  0.00000  0.10352
      11     H     0.45281  0.45281  0.00000  0.09438
      12     H     0.44457  0.44457  0.00000  0.11085
      13     H     0.45468  0.45468  0.00000  0.09065

   Total alpha = 20.00000, Total beta = 20.00000, Total charge = -0.00000
