  ==> Input File <==

--------------------------------------------------------------------------
set {
	reference rhf
	basis cc-pvtz
}

set_num_threads( 4 )
memory 2 gb

molecule MOL {
0 1

H	 0.041373	 -2.586798	 -0.008286
C	 -0.846745	 -1.952220	 -0.010289
N	 -0.537714	 -0.645117	 0.000000
O	 -1.944980	 -2.411016	 -0.020573
C	 -1.522613	 0.412524	 0.000000
H	 0.422548	 -0.404664	 0.007983
H	 -2.150256	 0.356137	 -0.880771
H	 -1.005621	 1.357208	 0.000000
H	 -2.150256	 0.356137	 0.880771

	symmetry c1
}
set optking {
	frozen_dihedral = ("
		6 3 5 7
	")
}

ee = optimize('scf')
oeprop('DIPOLE', 'QUADRUPOLE', 'MULLIKEN_CHARGES')
f=open( 'psi4out.xyz', 'w' )
f.write( "9  " )
f.write( str(ee) + "\n" )
f.write( MOL.save_string_xyz() )
f.close()
--------------------------------------------------------------------------

    Molecular point group: c1
  Charge       = 0
  Multiplicity = 1
  Basis Set: CC-PVTZ
  Basis Set:
  @DF-RHF Final Energy:  -208.04347859993567
    Total Energy =                       -208.0434785999356961
    Molecular point group: c1
  Basis Set: CC-PVTZ
  Basis Set:
  Basis Set: CC-PVTZ
  Basis Set:
  @DF-RHF Final Energy:  -208.04364763770673
    Total Energy =                       -208.0436476377066128
  Basis Set: CC-PVTZ
  Basis Set:
  Basis Set: CC-PVTZ
  Basis Set:
  @DF-RHF Final Energy:  -208.04366221997310
    Total Energy =                       -208.0436622199731005
  Basis Set: CC-PVTZ
  Basis Set:
  Basis Set: CC-PVTZ
  Basis Set:
  @DF-RHF Final Energy:  -208.04366137754127
    Total Energy =                       -208.0436613775411843
  Basis Set: CC-PVTZ
  Basis Set:
  Charge       = 0
  Multiplicity = 1
  Basis Set: CC-PVTZ
  Basis Set:

    Orbital Energies (a.u.)
    -----------------------

    Doubly Occupied:

       1A    -20.516570     2A    -15.584351     3A    -11.335891
       4A    -11.260613     5A     -1.393911     6A     -1.239262
       7A     -0.969763     8A     -0.809341     9A     -0.749200
      10A     -0.645743    11A     -0.629926    12A     -0.596178
      13A     -0.559752    14A     -0.536705    15A     -0.428164
      16A     -0.396731

  @DF-RHF Final Energy:  -208.04366285007325

   => Energetics <=

    Nuclear Repulsion Energy =            122.9450788974213680
    One-Electron Energy =                -526.6732788550557416
    Two-Electron Energy =                 195.6845371075610558
    DFT Exchange-Correlation Energy =       0.0000000000000000
    Empirical Dispersion Energy =           0.0000000000000000
    PCM Polarization Energy =               0.0000000000000000
    EFP Energy =                            0.0000000000000000
    Total Energy =                       -208.0436628500733320
    Molecular point group: c1
  Basis Set: CC-PVTZ
  Basis Set:

  -Total Gradient:
     Atom            X                  Y                   Z
    ------   -----------------  -----------------  -----------------
       1       -0.000030975034    -0.000043555701     0.000016971451
       2        0.000056652550    -0.000036146975    -0.000049890166
       3        0.000054848668     0.000046660301     0.000032202907
       4       -0.000010478281    -0.000019233544     0.000014146745
       5        0.000062849982     0.000098379766    -0.000008325646
       6       -0.000031675542    -0.000014978239    -0.000006615976
       7       -0.000023849540     0.000007862745    -0.000051893094
       8       -0.000063395603    -0.000048232838     0.000003371013
       9       -0.000013977201     0.000009244486     0.000050032763

  **** Optimization is complete! (in 5 steps) ****
    Final optimized geometry and variables:
    Molecular point group: c1

    Geometry (in Angstrom), charge = 0, multiplicity = 1:

    H            1.244849458992    -1.475875364880    -0.001675234842
    C            0.372555481910    -0.819592284297    -0.002567160404
    N            0.697400307407     0.481810688147     0.006018717851
    O           -0.739568876371    -1.244275492613    -0.010175538584
    C           -0.303699252086     1.525501470698     0.006561494879
    H            1.655830169662     0.725345579839     0.011912880293
    H           -0.931631178280     1.459595663837    -0.871487207836
    H            0.194602942513     2.483902366396     0.010357896873
    H           -0.935940113636     1.455000558176     0.881198816765

  Mulliken Charges: (a.u.)
   Center  Symbol    Alpha    Beta     Spin     Total
       1     H     0.46447  0.46447  0.00000  0.07107
       2     C     2.87935  2.87935  0.00000  0.24129
       3     N     3.60565  3.60565  0.00000 -0.21130
       4     O     4.21445  4.21445  0.00000 -0.42890
       5     C     3.07475  3.07475  0.00000 -0.14950
       6     H     0.40992  0.40992  0.00000  0.18016
       7     H     0.44832  0.44832  0.00000  0.10335
       8     H     0.45463  0.45463  0.00000  0.09074
       9     H     0.44845  0.44845  0.00000  0.10309

   Total alpha = 16.00000, Total beta = 16.00000, Total charge = -0.00000
