  ==> Input File <==

--------------------------------------------------------------------------
set {
	reference rhf
	basis cc-pvtz
}

set_num_threads( 4 )
memory 2 gb

molecule MOL {
0 1

H	 -3.034039	 -0.667848	 0.004703
O	 -2.240597	 -1.171748	 0.000934
C	 -1.159675	 -0.364500	 0.000370
C	 -1.016610	 0.680334	 -0.889725
C	 -0.174388	 -0.622342	 0.940998
H	 -1.778253	 0.880768	 -1.621015
C	 0.123446	 1.463163	 -0.829072
H	 -0.315306	 -1.443484	 1.616871
C	 0.960715	 0.160757	 1.001610
H	 0.239728	 2.275118	 -1.521878
C	 1.105664	 1.212398	 0.102149
C	 2.021294	 -0.104869	 2.040002
H	 1.984873	 1.827577	 0.133875
H	 3.012660	 -0.035733	 1.609611
H	 1.909223	 -1.088633	 2.475197
H	 1.961278	 0.622901	 2.842120

	symmetry c1
}
set optking {
	frozen_dihedral = ("
		5 3 2 1
	")
}

ee = optimize('scf')
oeprop('DIPOLE', 'QUADRUPOLE', 'MULLIKEN_CHARGES')
f=open( 'psi4out.xyz', 'w' )
f.write( "16  " )
f.write( str(ee) + "\n" )
f.write( MOL.save_string_xyz() )
f.close()
--------------------------------------------------------------------------

    Molecular point group: c1
  Charge       = 0
  Multiplicity = 1
  Basis Set: CC-PVTZ
  Basis Set:
  @DF-RHF Final Energy:  -344.71768664199647
    Total Energy =                       -344.7176866419960106
    Molecular point group: c1
  Basis Set: CC-PVTZ
  Basis Set:
  Basis Set: CC-PVTZ
  Basis Set:
  @DF-RHF Final Energy:  -344.71789504769748
    Total Energy =                       -344.7178950476974251
  Basis Set: CC-PVTZ
  Basis Set:
  Basis Set: CC-PVTZ
  Basis Set:
  @DF-RHF Final Energy:  -344.71792219074251
    Total Energy =                       -344.7179221907422288
  Basis Set: CC-PVTZ
  Basis Set:
  Basis Set: CC-PVTZ
  Basis Set:
  @DF-RHF Final Energy:  -344.71792511324264
    Total Energy =                       -344.7179251132421314
  Basis Set: CC-PVTZ
  Basis Set:
  Charge       = 0
  Multiplicity = 1
  Basis Set: CC-PVTZ
  Basis Set:

    Orbital Energies (a.u.)
    -----------------------

    Doubly Occupied:

       1A    -20.574240     2A    -11.289908     3A    -11.240318
       4A    -11.232025     5A    -11.219938     6A    -11.219785
       7A    -11.216536     8A    -11.216196     9A     -1.402547
      10A     -1.154633    11A     -1.046506    12A     -1.008025
      13A     -0.938760    14A     -0.827982    15A     -0.819671
      16A     -0.718361    17A     -0.681725    18A     -0.658661
      19A     -0.620916    20A     -0.593950    21A     -0.577059
      22A     -0.570724    23A     -0.554672    24A     -0.522308
      25A     -0.507035    26A     -0.485286    27A     -0.469894
      28A     -0.333319    29A     -0.317767

  @DF-RHF Final Energy:  -344.71792578609166

   => Energetics <=

    Nuclear Repulsion Energy =            346.0465859752614506
    One-Electron Energy =               -1153.4915266781295031
    Two-Electron Energy =                 462.7270149167763975
    DFT Exchange-Correlation Energy =       0.0000000000000000
    Empirical Dispersion Energy =           0.0000000000000000
    PCM Polarization Energy =               0.0000000000000000
    EFP Energy =                            0.0000000000000000
    Total Energy =                       -344.7179257860916550
    Molecular point group: c1
  Basis Set: CC-PVTZ
  Basis Set:

  -Total Gradient:
     Atom            X                  Y                   Z
    ------   -----------------  -----------------  -----------------
       1       -0.000031697873    -0.000030578551     0.002705795240
       2       -0.000465425385     0.000527015864    -0.002731020657
       3        0.001423473066    -0.001560465371    -0.001325170432
       4       -0.000089937483    -0.000127838138     0.000025844757
       5       -0.000857225370     0.001165490514     0.001313128808
       6       -0.000007919316     0.000000272772    -0.000010589653
       7        0.000121895487     0.000061681271     0.000080446328
       8        0.000000869963    -0.000002730802    -0.000009284741
       9       -0.000068744764    -0.000103334139     0.000054377987
      10       -0.000001250201    -0.000015888382     0.000002102615
      11       -0.000052524483     0.000068544996    -0.000106635282
      12        0.000003200153     0.000021827845    -0.000005736448
      13        0.000014957492    -0.000004239631     0.000012964208
      14        0.000005864765    -0.000005003798     0.000000291648
      15       -0.000003855436     0.000005759499    -0.000000797564
      16        0.000008319380    -0.000000513950    -0.000005716812

  **** Optimization is complete! (in 5 steps) ****
    Final optimized geometry and variables:
    Molecular point group: c1

    Geometry (in Angstrom), charge = 0, multiplicity = 1:

    H           -2.951965560462    -0.787128707564    -0.333076990155
    O           -2.160241819790    -1.294535927827    -0.332911741759
    C           -1.070039098190    -0.480188668505    -0.307060634802
    C           -0.929243819870     0.562471523396    -1.199676782000
    C           -0.088948913820    -0.734342898689     0.634340405022
    H           -1.688343501968     0.745725297345    -1.936447373206
    C            0.207481882814     1.348118107753    -1.139314962181
    H           -0.232803226162    -1.551548558917     1.314466248448
    C            1.054133299467     0.042503266352     0.688779982076
    H            0.325356148402     2.159825425039    -1.832023940826
    C            1.193141715752     1.092528109157    -0.209928018020
    C            2.117903080041    -0.224086210018     1.724044974276
    H            2.073667834814     1.706568536423    -0.182193985666
    H            3.107895880611    -0.160150744583     1.289611228234
    H            2.004165441673    -1.206971576007     2.160934721852
    H            2.064971998337     0.504592777292     2.525874403474

  Mulliken Charges: (a.u.)
   Center  Symbol    Alpha    Beta     Spin     Total
       1     H     0.38578  0.38578  0.00000  0.22844
       2     O     4.18676  4.18676  0.00000 -0.37352
       3     C     2.85295  2.85295  0.00000  0.29411
       4     C     3.13648  3.13648  0.00000 -0.27296
       5     C     3.13913  3.13913  0.00000 -0.27826
       6     H     0.42438  0.42438  0.00000  0.15125
       7     C     3.05952  3.05952  0.00000 -0.11903
       8     H     0.41976  0.41976  0.00000  0.16048
       9     C     2.94110  2.94110  0.00000  0.11779
      10     H     0.42270  0.42270  0.00000  0.15460
      11     C     3.11223  3.11223  0.00000 -0.22445
      12     C     3.14657  3.14657  0.00000 -0.29314
      13     H     0.42733  0.42733  0.00000  0.14535
      14     H     0.44796  0.44796  0.00000  0.10409
      15     H     0.45011  0.45011  0.00000  0.09978
      16     H     0.44726  0.44726  0.00000  0.10548

   Total alpha = 29.00000, Total beta = 29.00000, Total charge =  0.00000
