  ==> Input File <==

--------------------------------------------------------------------------
set {
	reference rhf
	basis 6-31G*
}

set_num_threads( 1 )
memory 2 gb

molecule MOL {
0 1

H	 0.995736	 -0.112377	 -4.266171
O	 1.937824	 -0.081919	 -4.184840
C	 2.322248	 1.127608	 -3.582083
C	 2.004025	 1.184476	 -2.092040
H	 3.391761	 1.203550	 -3.730570
H	 1.863955	 1.971914	 -4.095791
C	 0.507979	 1.132090	 -1.772710
H	 2.511496	 0.359215	 -1.599309
H	 2.427749	 2.103133	 -1.689680
C	 0.219067	 1.245684	 -0.273228
H	 0.094141	 0.202116	 -2.152514
H	 -0.002682	 1.939966	 -2.297021
C	 -1.268691	 1.284465	 0.094756
H	 0.696998	 0.417660	 0.247161
H	 0.690278	 2.151556	 0.102347
C	 -2.037799	 -0.007733	 -0.193645
H	 -1.352420	 1.508119	 1.156257
H	 -1.746401	 2.112617	 -0.426583
C	 -3.489788	 0.042957	 0.286558
H	 -1.530268	 -0.842596	 0.287528
H	 -2.027980	 -0.219032	 -1.260209
C	 -4.216917	 1.317354	 -0.141063
H	 -4.025645	 -0.823308	 -0.095450
H	 -3.513059	 -0.038752	 1.371301
H	 -4.239342	 1.411634	 -1.223113
H	 -5.243387	 1.322503	 0.212445
H	 -3.726170	 2.201406	 0.256408

	symmetry c1
}
set optking {
	frozen_dihedral = ("
		14 10 7 4,
		14 10 13 16,
		10 7 4 8,
		8 4 3 2,
		10 13 16 20,
		4 3 2 1
	")
}

ee = energy('scf')
oeprop('DIPOLE', 'QUADRUPOLE', 'MULLIKEN_CHARGES')
f=open( 'psi4out.xyz', 'w' )
f.write( "27  " )
f.write( str(ee) + "\n" )
f.write( MOL.save_string_xyz() )
f.close()
--------------------------------------------------------------------------

    Molecular point group: c1

    Geometry (in Angstrom), charge = 0, multiplicity = 1:

       Center              X                  Y                   Z               Mass
    ------------   -----------------  -----------------  -----------------  -----------------
           H          1.421243363130    -0.908575119970    -2.895519004095     1.007825032070
           O          2.363331363130    -0.878117119970    -2.814188004095    15.994914619560
           C          2.747755363130     0.331409880030    -2.211431004095    12.000000000000
           C          2.429532363130     0.388277880030    -0.721388004095    12.000000000000
           H          3.817268363130     0.407351880030    -2.359918004095     1.007825032070
           H          2.289462363130     1.175715880030    -2.725139004095     1.007825032070
           C          0.933486363130     0.335891880030    -0.402058004095    12.000000000000
           H          2.937003363130    -0.436983119970    -0.228657004095     1.007825032070
           H          2.853256363130     1.306934880030    -0.319028004095     1.007825032070
           C          0.644574363130     0.449485880030     1.097423995905    12.000000000000
           H          0.519648363130    -0.594082119970    -0.781862004095     1.007825032070
           H          0.422825363130     1.143767880030    -0.926369004095     1.007825032070
           C         -0.843183636870     0.488266880030     1.465407995905    12.000000000000
           H          1.122505363130    -0.378538119970     1.617812995905     1.007825032070
           H          1.115785363130     1.355357880030     1.472998995905     1.007825032070
           C         -1.612291636870    -0.803931119970     1.177006995905    12.000000000000
           H         -0.926912636870     0.711920880030     2.526908995905     1.007825032070
           H         -1.320893636870     1.316418880030     0.944068995905     1.007825032070
           C         -3.064280636870    -0.753241119970     1.657209995905    12.000000000000
           H         -1.104760636870    -1.638794119970     1.658179995905     1.007825032070
           H         -1.602472636870    -1.015230119970     0.110442995905     1.007825032070
           C         -3.791409636870     0.521155880030     1.229588995905    12.000000000000
           H         -3.600137636870    -1.619506119970     1.275201995905     1.007825032070
           H         -3.087551636870    -0.834950119970     2.741952995905     1.007825032070
           H         -3.813834636870     0.615435880030     0.147538995905     1.007825032070
           H         -4.817879636870     0.526304880030     1.583096995905     1.007825032070
           H         -3.300662636870     1.405207880030     1.627059995905     1.007825032070

  Charge       = 0
  Multiplicity = 1
  Basis Set: 6-31G*
  Basis Set:

    Orbital Energies (a.u.)
    -----------------------

    Doubly Occupied:

       1A    -20.552236     2A    -11.266995     3A    -11.219683
       4A    -11.216993     5A    -11.216064     6A    -11.215118
       7A    -11.214925     8A    -11.214149     9A    -11.208759
      10A     -1.358981    11A     -1.096430    12A     -1.062382
      13A     -1.008459    14A     -0.945284    15A     -0.894380
      16A     -0.830059    17A     -0.799201    18A     -0.766188
      19A     -0.693563    20A     -0.650987    21A     -0.632879
      22A     -0.614383    23A     -0.610097    24A     -0.590182
      25A     -0.579079    26A     -0.556547    27A     -0.535250
      28A     -0.524762    29A     -0.513531    30A     -0.495889
      31A     -0.482310    32A     -0.476273    33A     -0.469478
      34A     -0.455660    35A     -0.448672    36A     -0.442431
      37A     -0.423091

  @DF-RHF Final Energy:  -388.27772519173203

   => Energetics <=

    Nuclear Repulsion Energy =            465.0125523344382259
    One-Electron Energy =               -1448.0180736932413765
    Two-Electron Energy =                 594.7277961670707782
    DFT Exchange-Correlation Energy =       0.0000000000000000
    Empirical Dispersion Energy =           0.0000000000000000
    PCM Polarization Energy =               0.0000000000000000
    EFP Energy =                            0.0000000000000000
    Total Energy =                       -388.2777251917324293

  Mulliken Charges: (a.u.)
   Center  Symbol    Alpha    Beta     Spin     Total
       1     H     0.27992  0.27992  0.00000  0.44017
       2     O     4.37095  4.37095  0.00000 -0.74189
       3     C     2.99736  2.99736  0.00000  0.00527
       4     C     3.16094  3.16094  0.00000 -0.32187
       5     H     0.41445  0.41445  0.00000  0.17109
       6     H     0.43207  0.43207  0.00000  0.13586
       7     C     3.16328  3.16328  0.00000 -0.32656
       8     H     0.41496  0.41496  0.00000  0.17009
       9     H     0.42436  0.42436  0.00000  0.15128
      10     C     3.15080  3.15080  0.00000 -0.30160
      11     H     0.42288  0.42288  0.00000  0.15423
      12     H     0.42553  0.42553  0.00000  0.14894
      13     C     3.15898  3.15898  0.00000 -0.31797
      14     H     0.42195  0.42195  0.00000  0.15610
      15     H     0.42175  0.42175  0.00000  0.15649
      16     C     3.15318  3.15318  0.00000 -0.30636
      17     H     0.42162  0.42162  0.00000  0.15675
      18     H     0.42046  0.42046  0.00000  0.15908
      19     C     3.15171  3.15171  0.00000 -0.30341
      20     H     0.42141  0.42141  0.00000  0.15718
      21     H     0.42394  0.42394  0.00000  0.15211
      22     C     3.24434  3.24434  0.00000 -0.48869
      23     H     0.42058  0.42058  0.00000  0.15883
      24     H     0.42272  0.42272  0.00000  0.15456
      25     H     0.42301  0.42301  0.00000  0.15398
      26     H     0.41868  0.41868  0.00000  0.16264
      27     H     0.41815  0.41815  0.00000  0.16370

   Total alpha = 37.00000, Total beta = 37.00000, Total charge = -0.00000
