  ==> Input File <==

--------------------------------------------------------------------------
set {
	reference rhf
	basis cc-pvtz
}

set_num_threads( 4 )
memory 2 gb

molecule MOL {
0 1

H	 3.297339	 -0.408876	 0.006941
C	 2.238583	 -0.232815	 0.005294
C	 1.364846	 -1.289127	 -0.204760
C	 1.754674	 1.043326	 0.212206
H	 1.748535	 -2.278041	 -0.364837
C	 0.005908	 -1.067581	 -0.207644
H	 2.432854	 1.858335	 0.374398
C	 0.389628	 1.264256	 0.209029
H	 -0.685194	 -1.870861	 -0.368193
C	 -0.486398	 0.214248	 0.000000
H	 0.006138	 2.254906	 0.369413
C	 -1.946525	 0.470130	 0.000000
O	 -2.779618	 -0.371226	 0.000000
H	 -2.227127	 1.528393	 0.000000

	symmetry c1
}
set optking {
	frozen_dihedral = ("
		8 10 12 14
	")
}

ee = optimize('scf')
oeprop('DIPOLE', 'QUADRUPOLE', 'MULLIKEN_CHARGES')
f=open( 'psi4out.xyz', 'w' )
f.write( "14  " )
f.write( str(ee) + "\n" )
f.write( MOL.save_string_xyz() )
f.close()
--------------------------------------------------------------------------

    Molecular point group: c1
  Charge       = 0
  Multiplicity = 1
  Basis Set: CC-PVTZ
  Basis Set:
  @DF-RHF Final Energy:  -343.54975110787518
    Total Energy =                       -343.5497511078748403
    Molecular point group: c1
  Basis Set: CC-PVTZ
  Basis Set:
  Basis Set: CC-PVTZ
  Basis Set:
  @DF-RHF Final Energy:  -343.54907384820376
    Total Energy =                       -343.5490738482037614
  Basis Set: CC-PVTZ
  Basis Set:
  Basis Set: CC-PVTZ
  Basis Set:
  @DF-RHF Final Energy:  -343.54980260726086
    Total Energy =                       -343.5498026072606308
  Basis Set: CC-PVTZ
  Basis Set:
  Basis Set: CC-PVTZ
  Basis Set:
  @DF-RHF Final Energy:  -343.54981119274095
    Total Energy =                       -343.5498111927408900
  Basis Set: CC-PVTZ
  Basis Set:
  Charge       = 0
  Multiplicity = 1
  Basis Set: CC-PVTZ
  Basis Set:

    Orbital Energies (a.u.)
    -----------------------

    Doubly Occupied:

       1A    -20.552840     2A    -11.327026     3A    -11.252667
       4A    -11.250143     5A    -11.246657     6A    -11.245377
       7A    -11.243904     8A    -11.242311     9A     -1.408705
      10A     -1.177101    11A     -1.051784    12A     -1.036191
      13A     -0.892707    14A     -0.848436    15A     -0.794570
      16A     -0.725555    17A     -0.682329    18A     -0.656565
      19A     -0.623759    20A     -0.621323    21A     -0.606095
      22A     -0.561687    23A     -0.530243    24A     -0.510169
      25A     -0.508366    26A     -0.425579    27A     -0.355811
      28A     -0.352556

  @DF-RHF Final Energy:  -343.54981138001483

   => Energetics <=

    Nuclear Repulsion Energy =            323.9705329253710033
    One-Electron Energy =               -1107.5797793026076761
    Two-Electron Energy =                 440.0594349972218424
    DFT Exchange-Correlation Energy =       0.0000000000000000
    Empirical Dispersion Energy =           0.0000000000000000
    PCM Polarization Energy =               0.0000000000000000
    EFP Energy =                            0.0000000000000000
    Total Energy =                       -343.5498113800148303
    Molecular point group: c1
  Basis Set: CC-PVTZ
  Basis Set:

  -Total Gradient:
     Atom            X                  Y                   Z
    ------   -----------------  -----------------  -----------------
       1       -0.000000399402     0.000001708567     0.000011499780
       2       -0.000005352464    -0.000031457743    -0.000039090527
       3        0.000035816871     0.000018019329    -0.000024860749
       4       -0.000032109435     0.000018326588     0.000037267249
       5       -0.000003284959    -0.000000653684     0.000003418604
       6       -0.000029473971     0.000013884581     0.000063357411
       7        0.000002707942    -0.000001070816    -0.000006489384
       8        0.000008868823    -0.000261705849     0.001477837303
       9        0.000002012738     0.000004230779    -0.000022302418
      10        0.000016452809     0.000371570882    -0.002746459734
      11       -0.000001737974    -0.000002903034     0.000000780108
      12        0.000025814666    -0.000137754107     0.003088726327
      13       -0.000002557312    -0.000012241186     0.000002274814
      14       -0.000016758331     0.000020045692    -0.001845958785

  **** Optimization is complete! (in 5 steps) ****
    Final optimized geometry and variables:
    Molecular point group: c1

    Geometry (in Angstrom), charge = 0, multiplicity = 1:

    H            3.296929633757    -0.410244386519     0.013374467589
    C            2.238317637898    -0.233091734063     0.008225891536
    C            1.364254749005    -1.288954567454    -0.204230352874
    C            1.754664335804     1.043161347251     0.213840646477
    H            1.747823537925    -2.278240194539    -0.362629027290
    C            0.005489161785    -1.066968771131    -0.207820057845
    H            2.432609020084     1.857433973016     0.380981316657
    C            0.389681577610     1.266078308182     0.201745727348
    H           -0.685832169924    -1.871300737127    -0.362537890817
    C           -0.486185341133     0.216877868661    -0.010402339892
    H            0.006747499082     2.257738630819     0.357780254917
    C           -1.947204743984     0.469742083438     0.008715739486
    O           -2.777905937907    -0.373464849684    -0.010811638053
    H           -2.229865715618     1.527542717848     0.024655094519

  Mulliken Charges: (a.u.)
   Center  Symbol    Alpha    Beta     Spin     Total
       1     H     0.41951  0.41951  0.00000  0.16099
       2     C     3.06980  3.06980  0.00000 -0.13959
       3     C     3.07232  3.07232  0.00000 -0.14463
       4     C     3.07384  3.07384  0.00000 -0.14768
       5     H     0.41953  0.41953  0.00000  0.16093
       6     C     3.07990  3.07990  0.00000 -0.15979
       7     H     0.42058  0.42058  0.00000  0.15883
       8     C     3.08711  3.08711  0.00000 -0.17422
       9     H     0.40883  0.40883  0.00000  0.18234
      10     C     2.98476  2.98476  0.00000  0.03049
      11     H     0.42293  0.42293  0.00000  0.15413
      12     C     2.91023  2.91023  0.00000  0.17955
      13     O     4.17235  4.17235  0.00000 -0.34470
      14     H     0.45832  0.45832  0.00000  0.08336

   Total alpha = 28.00000, Total beta = 28.00000, Total charge =  0.00000
