                              Psi4 1.0.54 Driver

  ==> Input File <==

--------------------------------------------------------------------------
set {
	reference rhf
	basis cc-pvtz
}

set_num_threads( 4 )
memory 2 gb

molecule MOL {
0 1

H	 2.444575	 -0.671278	 0.178978
C	 1.726754	 0.130709	 0.216157
O	 0.462329	 -0.453336	 -0.000137
H	 1.959941	 0.852781	 -0.556148
H	 1.775348	 0.606740	 1.187379
C	 -0.590565	 0.341382	 0.000062
O	 -1.693898	 -0.053880	 0.000252
H	 -0.340426	 1.403822	 0.000200

	symmetry c1
}
set optking {
	frozen_dihedral = ("
		2 3 6 7
	")
}

ee,wfn = optimize('scf', return_wfn=True)
oeprop( wfn, 'DIPOLE', 'QUADRUPOLE', 'MULLIKEN_CHARGES')
f=open( 'psi4out.xyz', 'w' )
f.write( "8  " )
f.write( str(ee) + "\n" )
f.write( MOL.save_string_xyz() )
f.close()
--------------------------------------------------------------------------

    Molecular point group: c1
  Charge       = 0
  Multiplicity = 1
  Basis Set: CC-PVTZ
  Basis Set:
  @DF-RHF Final Energy:  -227.86982926589599
    Total Energy =                       -227.8698292658959303
    Molecular point group: c1
  Basis Set: CC-PVTZ
  Basis Set:
  Basis Set: CC-PVTZ
  Basis Set:
  @DF-RHF Final Energy:  -227.86984554209991
    Total Energy =                       -227.8698455420999665
  Basis Set: CC-PVTZ
  Basis Set:
  Basis Set: CC-PVTZ
  Basis Set:
  @DF-RHF Final Energy:  -227.86975249596341
    Total Energy =                       -227.8697524959633540
  Basis Set: CC-PVTZ
  Basis Set:
  Basis Set: CC-PVTZ
  Basis Set:
  @DF-RHF Final Energy:  -227.86990102091880
    Total Energy =                       -227.8699010209188316
  Basis Set: CC-PVTZ
  Basis Set:
  Basis Set: CC-PVTZ
  Basis Set:
  @DF-RHF Final Energy:  -227.86990917651303
    Total Energy =                       -227.8699091765130333
  Basis Set: CC-PVTZ
  Basis Set:
  Basis Set: CC-PVTZ
  Basis Set:
  @DF-RHF Final Energy:  -227.86991028251617
    Total Energy =                       -227.8699102825162583
  Basis Set: CC-PVTZ
  Basis Set:
  Charge       = 0
  Multiplicity = 1
  Basis Set: CC-PVTZ
  Basis Set:

    Orbital Energies (a.u.)
    -----------------------

    Doubly Occupied:

       1A    -20.610045     2A    -20.546998     3A    -11.374400
       4A    -11.302205     5A     -1.480103     6A     -1.386219
       7A     -0.994359     8A     -0.849845     9A     -0.740711
      10A     -0.689197    11A     -0.685323    12A     -0.607838
      13A     -0.574130    14A     -0.542651    15A     -0.465802
      16A     -0.457367

  @DF-RHF Final Energy:  -227.86991037439344

   => Energetics <=

    Nuclear Repulsion Energy =            121.5080475606663981
    One-Electron Energy =                -552.1415284569590085
    Two-Electron Energy =                 202.7635705218990267
    DFT Exchange-Correlation Energy =       0.0000000000000000
    Empirical Dispersion Energy =           0.0000000000000000
    PCM Polarization Energy =               0.0000000000000000
    EFP Energy =                            0.0000000000000000
    Total Energy =                       -227.8699103743935837
    Molecular point group: c1
  Basis Set: CC-PVTZ
  Basis Set:

  -Total Gradient:
     Atom            X                  Y                   Z
    ------   -----------------  -----------------  -----------------
       1        0.000002077451     0.000000971515     0.000000028092
       2       -0.000128954940     0.000001152992     0.001123360980
       3        0.000217830435     0.000105691924    -0.000990548083
       4        0.000003070712     0.000002588086     0.000002330052
       5       -0.000010581066    -0.000003061260    -0.000002931538
       6       -0.000084495070    -0.000325592885    -0.001575086120
       7       -0.000010048900     0.000223887244     0.001435759621
       8        0.000011101376    -0.000005637616     0.000007086995

  **** Optimization is complete! (in 7 steps) ****
    Final optimized geometry and variables:
    Molecular point group: c1

    Geometry (in Angstrom), charge = 0, multiplicity = 1:

    H            2.458478748335    -0.635591493982     0.003649576398
    C            1.730056938136     0.140947720515     0.167100665071
    O            0.462089883684    -0.453779586806     0.015915301503
    H            1.884440815990     0.929624927575    -0.559103093837
    H            1.848902332872     0.538876471557     1.166495928978
    C           -0.584733086301     0.338677862560    -0.115338313814
    O           -1.691002734699    -0.045986905931    -0.076509408161
    H           -0.325258042660     1.387927356183    -0.265695415497

  Mulliken Charges: (a.u.)
   Center  Symbol    Alpha    Beta     Spin     Total
       1     H     0.44022  0.44022  0.00000  0.11956
       2     C     3.03107  3.03107  0.00000 -0.06214
       3     O     4.12118  4.12118  0.00000 -0.24236
       4     H     0.46334  0.46334  0.00000  0.07332
       5     H     0.45615  0.45615  0.00000  0.08770
       6     C     2.83603  2.83603  0.00000  0.32794
       7     O     4.17432  4.17432  0.00000 -0.34865
       8     H     0.47769  0.47769  0.00000  0.04463

   Total alpha = 16.00000, Total beta = 16.00000, Total charge = -0.00000

*** Psi4 exiting successfully. Buy a developer a beer!
