  ==> Input File <==

--------------------------------------------------------------------------
set {
	reference rhf
	basis cc-pvtz
}

set_num_threads( 4 )
memory 2 gb

molecule MOL {
0 1

O	 1.935651	 1.509804	 -1.292641
C	 0.861016	 1.271388	 -0.820374
C	 -0.278841	 2.253216	 -0.998055
N	 0.622280	 0.144970	 -0.099307
H	 -0.650804	 2.602906	 -0.043222
H	 0.101181	 3.089750	 -1.560449
H	 -1.104475	 1.805817	 -1.537626
C	 1.664396	 -0.854993	 0.000772
C	 -0.693906	 -0.293367	 0.299777
H	 2.462727	 -0.615153	 -0.690869
H	 1.261798	 -1.821849	 -0.240651
H	 2.081615	 -0.891605	 1.003877
H	 -0.624452	 -0.809676	 1.248585
H	 -1.367855	 0.536024	 0.429383
H	 -1.129141	 -0.980762	 -0.422097

	symmetry c1
}
set optking {
	frozen_dihedral = ("
		2 4 8 10
	")
}

ee = optimize('scf')
oeprop('DIPOLE', 'QUADRUPOLE', 'MULLIKEN_CHARGES')
f=open( 'psi4out.xyz', 'w' )
f.write( "15  " )
f.write( str(ee) + "\n" )
f.write( MOL.save_string_xyz() )
f.close()
--------------------------------------------------------------------------

    Molecular point group: c1
  Charge       = 0
  Multiplicity = 1
  Basis Set: CC-PVTZ
  Basis Set:
  @DF-RHF Final Energy:  -286.13463352786096
    Total Energy =                       -286.1346335278610127
    Molecular point group: c1
  Basis Set: CC-PVTZ
  Basis Set:
  Basis Set: CC-PVTZ
  Basis Set:
  @DF-RHF Final Energy:  -286.13508156330374
    Total Energy =                       -286.1350815633033449
  Basis Set: CC-PVTZ
  Basis Set:
  Basis Set: CC-PVTZ
  Basis Set:
  @DF-RHF Final Energy:  -286.13474143766229
    Total Energy =                       -286.1347414376622282
  Basis Set: CC-PVTZ
  Basis Set:
  Basis Set: CC-PVTZ
  Basis Set:
  @DF-RHF Final Energy:  -286.13535726599457
    Total Energy =                       -286.1353572659947986
  Basis Set: CC-PVTZ
  Basis Set:
  @DF-RHF Final Energy:  -286.13540989766460
    Total Energy =                       -286.1354098976644309
  @DF-RHF Final Energy:  -286.13543671530931
    Total Energy =                       -286.1354367153091971
  @DF-RHF Final Energy:  -286.13546248759127
    Total Energy =                       -286.1354624875910417
  @DF-RHF Final Energy:  -286.13550063215337
    Total Energy =                       -286.1355006321532528
  @DF-RHF Final Energy:  -286.13554632072334
    Total Energy =                       -286.1355463207235061
  Basis Set: CC-PVTZ
  Basis Set:
  @DF-RHF Final Energy:  -286.13559080062635
    Total Energy =                       -286.1355908006264599
  Basis Set: CC-PVTZ
  Basis Set:
  Basis Set: CC-PVTZ
  Basis Set:
  @DF-RHF Final Energy:  -286.13560619484446
    Total Energy =                       -286.1356061948446268
  Basis Set: CC-PVTZ
  Basis Set:
  Basis Set: CC-PVTZ
  Basis Set:
  @DF-RHF Final Energy:  -286.13560963317025
    Total Energy =                       -286.1356096331699632
  Basis Set: CC-PVTZ
  Basis Set:
  Charge       = 0
  Multiplicity = 1
  Basis Set: CC-PVTZ
  Basis Set:

    Orbital Energies (a.u.)
    -----------------------

    Doubly Occupied:

       1A    -20.502317     2A    -15.578940     3A    -11.335405
       4A    -11.264116     5A    -11.246395     6A    -11.226467
       7A     -1.386503     8A     -1.246680     9A     -1.015086
      10A     -0.973520    11A     -0.921677    12A     -0.739569
      13A     -0.683435    14A     -0.662204    15A     -0.653940
      16A     -0.591043    17A     -0.577992    18A     -0.566628
      19A     -0.561086    20A     -0.548843    21A     -0.530515
      22A     -0.507652    23A     -0.412932    24A     -0.369739

  @DF-RHF Final Energy:  -286.13561035463431

   => Energetics <=

    Nuclear Repulsion Energy =            252.7934913557369043
    One-Electron Energy =                -889.6528285045027360
    Two-Electron Energy =                 350.7237267941313235
    DFT Exchange-Correlation Energy =       0.0000000000000000
    Empirical Dispersion Energy =           0.0000000000000000
    PCM Polarization Energy =               0.0000000000000000
    EFP Energy =                            0.0000000000000000
    Total Energy =                       -286.1356103546344798
    Molecular point group: c1
  Basis Set: CC-PVTZ
  Basis Set:

  -Total Gradient:
     Atom            X                  Y                   Z
    ------   -----------------  -----------------  -----------------
       1        0.000004226742    -0.000028999178    -0.000003489622
       2       -0.000045338278    -0.000019326099    -0.000093354173
       3       -0.000009714317    -0.000002974972     0.000007990709
       4        0.000073484871     0.000045218235     0.000139881869
       5       -0.000006386338    -0.000005888536     0.000002103939
       6        0.000005980778    -0.000006257037     0.000006803603
       7       -0.000001588927     0.000008772392    -0.000011529265
       8       -0.000074840638    -0.000089808353    -0.000083247276
       9       -0.000019276538     0.000004003107    -0.000010508222
      10        0.000042797818     0.000041349391     0.000046402985
      11        0.000005088895     0.000042197151     0.000009661528
      12        0.000015728511     0.000015381475     0.000005334847
      13        0.000011704739    -0.000027326367    -0.000005402929
      14        0.000010739986     0.000018350547     0.000016261013
      15       -0.000012607304     0.000005308242    -0.000026909009

  **** Optimization is complete! (in 13 steps) ****
    Final optimized geometry and variables:
    Molecular point group: c1

    Geometry (in Angstrom), charge = 0, multiplicity = 1:

    O            1.273508363307     0.890335269069    -0.738249523622
    C            0.180160734767     0.615030528798    -0.332343390840
    C           -0.944633848152     1.623007607984    -0.455691633166
    N           -0.099056168454    -0.586463781742     0.232368189609
    H           -1.341858680969     1.894269127074     0.514464441773
    H           -0.537622768639     2.500032307223    -0.930601747904
    H           -1.757537147265     1.236327834770    -1.057479590638
    C            0.962835154284    -1.551477455178     0.417750677759
    C           -1.358640420971    -0.942920993186     0.837640361988
    H            1.844773995288    -1.221167275000    -0.099617357111
    H            0.657674050638    -2.516208688385     0.027934761135
    H            1.195557076176    -1.670270236132     1.472255931484
    H           -1.283654257031    -0.961190616592     1.921742054933
    H           -2.142261430262    -0.258457592300     0.565081873341
    H           -1.655015728218    -1.932630166649     0.509442275991

  Mulliken Charges: (a.u.)
   Center  Symbol    Alpha    Beta     Spin     Total
       1     O     4.22241  4.22241  0.00000 -0.44482
       2     C     2.84702  2.84702  0.00000  0.30596
       3     C     3.16024  3.16024  0.00000 -0.32048
       4     N     3.55856  3.55856  0.00000 -0.11711
       5     H     0.44960  0.44960  0.00000  0.10080
       6     H     0.42842  0.42842  0.00000  0.14316
       7     H     0.44958  0.44958  0.00000  0.10085
       8     C     3.10043  3.10043  0.00000 -0.20086
       9     C     3.09396  3.09396  0.00000 -0.18792
      10     H     0.42507  0.42507  0.00000  0.14987
      11     H     0.45676  0.45676  0.00000  0.08649
      12     H     0.45761  0.45761  0.00000  0.08479
      13     H     0.45409  0.45409  0.00000  0.09182
      14     H     0.44489  0.44489  0.00000  0.11021
      15     H     0.45138  0.45138  0.00000  0.09725

   Total alpha = 24.00000, Total beta = 24.00000, Total charge = -0.00000
