  ==> Input File <==

--------------------------------------------------------------------------
set {
	reference rhf
	basis 6-31G*
}

set_num_threads( 1 )
memory 2 gb

molecule MOL {
0 1

O	 -2.604751	 1.003080	 -0.297781
C	 -1.921153	 0.064240	 -0.045697
C	 -2.394009	 -1.363964	 -0.014247
O	 -0.632575	 0.154573	 0.251549
H	 -2.227390	 -1.783293	 0.971323
H	 -3.444588	 -1.403541	 -0.260324
H	 -1.824062	 -1.953991	 -0.722615
C	 0.160891	 -1.019931	 0.106212
C	 1.589627	 -0.672828	 0.480843
H	 0.089836	 -1.367806	 -0.916050
H	 -0.238459	 -1.792301	 0.749618
C	 2.246377	 0.346236	 -0.452210
H	 2.163194	 -1.597435	 0.473358
H	 1.604769	 -0.303424	 1.502885
C	 3.691736	 0.652107	 -0.061850
H	 2.219579	 -0.032311	 -1.472055
H	 1.666466	 1.263317	 -0.447249
H	 4.134505	 1.377213	 -0.737283
H	 4.305508	 -0.243868	 -0.089969
H	 3.748266	 1.059562	 0.943567

	symmetry c1
}
set optking {
	frozen_dihedral = ("
		16 12 9 8,
		2 4 8 10,
		12 9 8 10
	")
}

ee = energy('scf')
oeprop('DIPOLE', 'QUADRUPOLE', 'MULLIKEN_CHARGES')
f=open( 'psi4out.xyz', 'w' )
f.write( "20  " )
f.write( str(ee) + "\n" )
f.write( MOL.save_string_xyz() )
f.close()
--------------------------------------------------------------------------

    Molecular point group: c1

    Geometry (in Angstrom), charge = 0, multiplicity = 1:

       Center              X                  Y                   Z               Mass
    ------------   -----------------  -----------------  -----------------  -----------------
           O         -2.613313318221     1.108555885883    -0.292718305962    15.994914619560
           C         -1.929715318221     0.169715885883    -0.040634305962    12.000000000000
           C         -2.402571318221    -1.258488114117    -0.009184305962    12.000000000000
           O         -0.641137318221     0.260048885883     0.256611694038    15.994914619560
           H         -2.235952318221    -1.677817114117     0.976385694038     1.007825032070
           H         -3.453150318221    -1.298065114117    -0.255261305962     1.007825032070
           H         -1.832624318221    -1.848515114117    -0.717552305962     1.007825032070
           C          0.152328681779    -0.914455114117     0.111274694038    12.000000000000
           C          1.581064681779    -0.567352114117     0.485905694038    12.000000000000
           H          0.081273681779    -1.262330114117    -0.910987305962     1.007825032070
           H         -0.247021318221    -1.686825114117     0.754680694038     1.007825032070
           C          2.237814681779     0.451711885883    -0.447147305962    12.000000000000
           H          2.154631681779    -1.491959114117     0.478420694038     1.007825032070
           H          1.596206681779    -0.197948114117     1.507947694038     1.007825032070
           C          3.683173681779     0.757582885883    -0.056787305962    12.000000000000
           H          2.211016681779     0.073164885883    -1.466992305962     1.007825032070
           H          1.657903681779     1.368792885883    -0.442186305962     1.007825032070
           H          4.125942681779     1.482688885883    -0.732220305962     1.007825032070
           H          4.296945681779    -0.138392114117    -0.084906305962     1.007825032070
           H          3.739703681779     1.165037885883     0.948629694038     1.007825032070

  Charge       = 0
  Multiplicity = 1
  Basis Set: 6-31G*
  Basis Set:

    Orbital Energies (a.u.)
    -----------------------

    Doubly Occupied:

       1A    -20.603389     2A    -20.543368     3A    -11.376503
       4A    -11.299184     5A    -11.238475     6A    -11.232932
       7A    -11.222750     8A    -11.214892     9A     -1.466522
      10A     -1.368260    11A     -1.088661    12A     -1.022690
      13A     -1.004222    14A     -0.891876    15A     -0.815115
      16A     -0.783708    17A     -0.700920    18A     -0.696070
      19A     -0.664509    20A     -0.637478    21A     -0.605860
      22A     -0.596265    23A     -0.574141    24A     -0.561396
      25A     -0.547911    26A     -0.533109    27A     -0.524463
      28A     -0.489300    29A     -0.479151    30A     -0.476518
      31A     -0.445929    32A     -0.431980

  @DF-RHF Final Energy:  -383.92154049165003

   => Energetics <=

    Nuclear Repulsion Energy =            387.3248011971126061
    One-Electron Energy =               -1290.2173524149834520
    Two-Electron Energy =                 518.9710107262199017
    DFT Exchange-Correlation Energy =       0.0000000000000000
    Empirical Dispersion Energy =           0.0000000000000000
    PCM Polarization Energy =               0.0000000000000000
    EFP Energy =                            0.0000000000000000
    Total Energy =                       -383.9215404916509442

  Mulliken Charges: (a.u.)
   Center  Symbol    Alpha    Beta     Spin     Total
       1     O     4.26994  4.26994  0.00000 -0.53987
       2     C     2.60680  2.60680  0.00000  0.78640
       3     C     3.31830  3.31830  0.00000 -0.63660
       4     O     4.30052  4.30052  0.00000 -0.60105
       5     H     0.39899  0.39899  0.00000  0.20202
       6     H     0.38925  0.38925  0.00000  0.22151
       7     H     0.40254  0.40254  0.00000  0.19491
       8     C     3.01426  3.01426  0.00000 -0.02851
       9     C     3.15932  3.15932  0.00000 -0.31864
      10     H     0.41423  0.41423  0.00000  0.17154
      11     H     0.41280  0.41280  0.00000  0.17440
      12     C     3.15688  3.15688  0.00000 -0.31376
      13     H     0.41931  0.41931  0.00000  0.16138
      14     H     0.41042  0.41042  0.00000  0.17915
      15     C     3.24112  3.24112  0.00000 -0.48224
      16     H     0.42408  0.42408  0.00000  0.15183
      17     H     0.40323  0.40323  0.00000  0.19354
      18     H     0.41580  0.41580  0.00000  0.16840
      19     H     0.42285  0.42285  0.00000  0.15430
      20     H     0.41936  0.41936  0.00000  0.16128

   Total alpha = 32.00000, Total beta = 32.00000, Total charge = -0.00000
