  ==> Input File <==

--------------------------------------------------------------------------
set {
	reference rhf
	basis 6-31G*
}

set_num_threads( 1 )
memory 2 gb

molecule MOL {
0 1

H	 3.729471	 -0.928294	 -0.070608
O	 2.826016	 -1.159218	 0.122261
C	 2.077727	 -0.067559	 -0.035091
C	 0.624473	 -0.343591	 0.253101
O	 2.542965	 0.974826	 -0.363729
C	 -0.265902	 0.883932	 0.072916
H	 0.324016	 -1.163849	 -0.390541
H	 0.565024	 -0.726111	 1.268924
C	 -1.728698	 0.646073	 0.462102
H	 -0.209144	 1.219470	 -0.958188
H	 0.135059	 1.692851	 0.673903
C	 -2.049560	 0.877225	 1.941485
H	 -1.982156	 -0.380824	 0.209112
H	 -2.374321	 1.275045	 -0.149226
C	 -3.495457	 0.525153	 2.290633
H	 -1.375183	 0.279832	 2.551716
H	 -1.865691	 1.914803	 2.207953
H	 -3.699267	 0.698564	 3.342633
H	 -3.706207	 -0.519411	 2.080161
H	 -4.194739	 1.125100	 1.715043

	symmetry c1
}
set optking {
	frozen_dihedral = ("
		16 12 9 6,
		7 4 6 10,
		5 3 4 7,
		1 2 3 5
	")
}

ee = energy('scf')
oeprop('DIPOLE', 'QUADRUPOLE', 'MULLIKEN_CHARGES')
f=open( 'psi4out.xyz', 'w' )
f.write( "20  " )
f.write( str(ee) + "\n" )
f.write( MOL.save_string_xyz() )
f.close()
--------------------------------------------------------------------------

    Molecular point group: c1

    Geometry (in Angstrom), charge = 0, multiplicity = 1:

       Center              X                  Y                   Z               Mass
    ------------   -----------------  -----------------  -----------------  -----------------
           H          3.616969536991    -1.202473250638    -0.661026980167     1.007825032070
           O          2.713514536991    -1.433397250638    -0.468157980167    15.994914619560
           C          1.965225536991    -0.341738250638    -0.625509980167    12.000000000000
           C          0.511971536991    -0.617770250638    -0.337317980167    12.000000000000
           O          2.430463536991     0.700646749362    -0.954147980167    15.994914619560
           C         -0.378403463009     0.609752749362    -0.517502980167    12.000000000000
           H          0.211514536991    -1.438028250638    -0.980959980167     1.007825032070
           H          0.452522536991    -1.000290250638     0.678505019833     1.007825032070
           C         -1.841199463009     0.371893749362    -0.128316980167    12.000000000000
           H         -0.321645463009     0.945290749362    -1.548606980167     1.007825032070
           H          0.022557536991     1.418671749362     0.083484019833     1.007825032070
           C         -2.162061463009     0.603045749362     1.351066019833    12.000000000000
           H         -2.094657463009    -0.655003250638    -0.381306980167     1.007825032070
           H         -2.486822463009     1.000865749362    -0.739644980167     1.007825032070
           C         -3.607958463009     0.250973749362     1.700214019833    12.000000000000
           H         -1.487684463009     0.005652749362     1.961297019833     1.007825032070
           H         -1.978192463009     1.640623749362     1.617534019833     1.007825032070
           H         -3.811768463009     0.424384749362     2.752214019833     1.007825032070
           H         -3.818708463009    -0.793590250638     1.489742019833     1.007825032070
           H         -4.307240463009     0.850920749362     1.124624019833     1.007825032070

  Charge       = 0
  Multiplicity = 1
  Basis Set: 6-31G*
  Basis Set:

    Orbital Energies (a.u.)
    -----------------------

    Doubly Occupied:

       1A    -20.612686     2A    -20.551811     3A    -11.381344
       4A    -11.241086     5A    -11.222218     6A    -11.220397
       7A    -11.219596     8A    -11.211981     9A     -1.474770
      10A     -1.365809    11A     -1.095730    12A     -1.041770
      13A     -0.960679    14A     -0.868480    15A     -0.812085
      16A     -0.782310    17A     -0.699655    18A     -0.689804
      19A     -0.663472    20A     -0.634658    21A     -0.604968
      22A     -0.593076    23A     -0.573493    24A     -0.557412
      25A     -0.540717    26A     -0.507287    27A     -0.498646
      28A     -0.479400    29A     -0.470751    30A     -0.468065
      31A     -0.456083    32A     -0.443322

  @DF-RHF Final Energy:  -383.94696518462638

   => Energetics <=

    Nuclear Repulsion Energy =            374.9722808297699430
    One-Electron Energy =               -1265.9513860730710348
    Two-Electron Energy =                 507.0321400586752247
    DFT Exchange-Correlation Energy =       0.0000000000000000
    Empirical Dispersion Energy =           0.0000000000000000
    PCM Polarization Energy =               0.0000000000000000
    EFP Energy =                            0.0000000000000000
    Total Energy =                       -383.9469651846258671

  Mulliken Charges: (a.u.)
   Center  Symbol    Alpha    Beta     Spin     Total
       1     H     0.26783  0.26783  0.00000  0.46433
       2     O     4.35163  4.35163  0.00000 -0.70325
       3     C     2.62272  2.62272  0.00000  0.75456
       4     C     3.21242  3.21242  0.00000 -0.42484
       5     O     4.27906  4.27906  0.00000 -0.55812
       6     C     3.15533  3.15533  0.00000 -0.31066
       7     H     0.39797  0.39797  0.00000  0.20407
       8     H     0.39827  0.39827  0.00000  0.20345
       9     C     3.15660  3.15660  0.00000 -0.31320
      10     H     0.40963  0.40963  0.00000  0.18074
      11     H     0.40928  0.40928  0.00000  0.18143
      12     C     3.15307  3.15307  0.00000 -0.30613
      13     H     0.42432  0.42432  0.00000  0.15136
      14     H     0.41743  0.41743  0.00000  0.16515
      15     C     3.23985  3.23985  0.00000 -0.47969
      16     H     0.42437  0.42437  0.00000  0.15125
      17     H     0.41972  0.41972  0.00000  0.16056
      18     H     0.41826  0.41826  0.00000  0.16349
      19     H     0.42155  0.42155  0.00000  0.15689
      20     H     0.42069  0.42069  0.00000  0.15862

   Total alpha = 32.00000, Total beta = 32.00000, Total charge =  0.00000
