                              Psi4 1.0.54 Driver

  ==> Input File <==

--------------------------------------------------------------------------
set {
	reference rhf
	basis cc-pvtz
}

set_num_threads( 4 )
memory 2 gb

molecule MOL {
0 1

H	 3.328943	 1.165041	 -1.248137
N	 2.562043	 0.526775	 -1.258089
C	 1.860978	 0.530248	 0.016256
H	 2.934595	 -0.378128	 -1.457349
C	 0.644130	 -0.381765	 -0.031064
H	 1.538449	 1.546959	 0.214197
H	 2.497763	 0.235802	 0.851577
C	 -0.678115	 0.376691	 0.025731
H	 0.693998	 -0.977147	 -0.936845
H	 0.693309	 -1.082142	 0.800523
C	 -1.900706	 -0.535531	 -0.022488
H	 -0.725296	 1.079516	 -0.802982
H	 -0.715474	 0.974884	 0.933278
C	 -3.220513	 0.226854	 0.028039
H	 -1.865036	 -1.134397	 -0.928236
H	 -1.857948	 -1.236381	 0.806820
H	 -3.309098	 0.911849	 -0.808725
H	 -4.066838	 -0.449485	 -0.008086
H	 -3.301685	 0.809374	 0.939860

	symmetry c1
}
set optking {
	frozen_dihedral = ("
		6 3 5 9
	")
}

ee,wfn = optimize('scf', return_wfn=True)
oeprop( wfn, 'DIPOLE', 'QUADRUPOLE', 'MULLIKEN_CHARGES')
f=open( 'psi4out.xyz', 'w' )
f.write( "19  " )
f.write( str(ee) + "\n" )
f.write( MOL.save_string_xyz() )
f.close()
--------------------------------------------------------------------------

    Molecular point group: c1
  Charge       = 0
  Multiplicity = 1
  Basis Set: CC-PVTZ
  Basis Set:
  @DF-RHF Final Energy:  -251.44231279658985
    Total Energy =                       -251.4423127965898175
    Molecular point group: c1
  Basis Set: CC-PVTZ
  Basis Set:
  Basis Set: CC-PVTZ
  Basis Set:
  @DF-RHF Final Energy:  -251.44270118601128
    Total Energy =                       -251.4427011860112771
  Basis Set: CC-PVTZ
  Basis Set:
  Basis Set: CC-PVTZ
  Basis Set:
  @DF-RHF Final Energy:  -251.44280406794826
    Total Energy =                       -251.4428040679482592
  Basis Set: CC-PVTZ
  Basis Set:
  Basis Set: CC-PVTZ
  Basis Set:
  @DF-RHF Final Energy:  -251.44280677956198
    Total Energy =                       -251.4428067795619768
  Basis Set: CC-PVTZ
  Basis Set:
  Charge       = 0
  Multiplicity = 1
  Basis Set: CC-PVTZ
  Basis Set:

    Orbital Energies (a.u.)
    -----------------------

    Doubly Occupied:

       1A    -15.526906     2A    -11.238170     3A    -11.209432
       4A    -11.207748     5A    -11.207061     6A    -11.203524
       7A     -1.177196     8A     -1.071276     9A     -0.996392
      10A     -0.899755    11A     -0.813799    12A     -0.787701
      13A     -0.659837    14A     -0.647919    15A     -0.614474
      16A     -0.589925    17A     -0.554442    18A     -0.548049
      19A     -0.538957    20A     -0.487549    21A     -0.485490
      22A     -0.460508    23A     -0.459068    24A     -0.453361
      25A     -0.381545

  @DF-RHF Final Energy:  -251.44280697546685

   => Energetics <=

    Nuclear Repulsion Energy =            247.1034684505561927
    One-Electron Energy =                -828.6523780831887507
    Two-Electron Energy =                 330.1061026571657067
    DFT Exchange-Correlation Energy =       0.0000000000000000
    Empirical Dispersion Energy =           0.0000000000000000
    PCM Polarization Energy =               0.0000000000000000
    EFP Energy =                            0.0000000000000000
    Total Energy =                       -251.4428069754668513
    Molecular point group: c1
  Basis Set: CC-PVTZ
  Basis Set:

  -Total Gradient:
     Atom            X                  Y                   Z
    ------   -----------------  -----------------  -----------------
       1        0.000009853108    -0.000000729513    -0.000016165130
       2        0.000002722464     0.000005477190     0.000037966133
       3       -0.000000497100    -0.000092222597     0.002743067128
       4        0.000000781084     0.000001930239     0.000001196606
       5        0.001494585706    -0.002075326887     0.000916038153
       6       -0.000238640043     0.000401549739    -0.002453646356
       7       -0.000005792235    -0.000015093167    -0.000017058712
       8        0.000016087643     0.000006470895     0.000000089433
       9       -0.001279086565     0.001758272324    -0.001204097557
      10        0.000011706873     0.000014721631     0.000005092569
      11        0.000002448891     0.000003352394    -0.000020916713
      12        0.000005316014     0.000001259165     0.000002292549
      13       -0.000003205450    -0.000002697810    -0.000002596159
      14       -0.000010413830    -0.000006323152     0.000013088187
      15       -0.000001514568    -0.000004028910    -0.000004395946
      16       -0.000001481816     0.000000421226    -0.000003951403
      17        0.000002794138    -0.000004924399    -0.000002696310
      18       -0.000003905201     0.000002448425     0.000005314526
      19       -0.000001759116     0.000005443207     0.000001379003

  **** Optimization is complete! (in 5 steps) ****
    Final optimized geometry and variables:
    Molecular point group: c1

    Geometry (in Angstrom), charge = 0, multiplicity = 1:

    H            3.388223158673     1.074705874366    -1.018160409853
    N            2.637745983364     0.416473276516    -1.014805808604
    C            1.965927344510     0.396740285192     0.279116189508
    H            3.030701981634    -0.477353677384    -1.224905311942
    C            0.735404806532    -0.524405546725     0.245094991574
    H            1.651069970943     1.414327729098     0.478091990696
    H            2.629808922038     0.103074172650     1.090175018158
    C           -0.589152281687     0.236287023740     0.250446091153
    H            0.778178661486    -1.120104157578    -0.660642643960
    H            0.757367383865    -1.212801205416     1.083850855371
    C           -1.811215960716    -0.671524311716     0.154455979022
    H           -0.593814500866     0.937501476882    -0.580003803089
    H           -0.657400449595     0.833504742172     1.157100336406
    C           -3.129897310191     0.094659718848     0.166238188291
    H           -1.747015428707    -1.263077457798    -0.754734101290
    H           -1.799172408146    -1.379409497991     0.979181623337
    H           -3.186925797299     0.786907560095    -0.667176832139
    H           -3.976793862479    -0.578362682006     0.095416051476
    H           -3.240368873431     0.669748708657     1.079712646783

  Mulliken Charges: (a.u.)
   Center  Symbol    Alpha    Beta     Spin     Total
       1     H     0.42926  0.42926  0.00000  0.14149
       2     N     3.69108  3.69108  0.00000 -0.38215
       3     C     3.03559  3.03559  0.00000 -0.07119
       4     H     0.43065  0.43065  0.00000  0.13869
       5     C     3.08493  3.08493  0.00000 -0.16986
       6     H     0.45845  0.45845  0.00000  0.08309
       7     H     0.46082  0.46082  0.00000  0.07837
       8     C     3.08838  3.08838  0.00000 -0.17677
       9     H     0.45685  0.45685  0.00000  0.08630
      10     H     0.45178  0.45178  0.00000  0.09645
      11     C     3.08559  3.08559  0.00000 -0.17118
      12     H     0.45022  0.45022  0.00000  0.09955
      13     H     0.45656  0.45656  0.00000  0.08688
      14     C     3.15001  3.15001  0.00000 -0.30001
      15     H     0.45402  0.45402  0.00000  0.09195
      16     H     0.45612  0.45612  0.00000  0.08777
      17     H     0.45468  0.45468  0.00000  0.09064
      18     H     0.44913  0.44913  0.00000  0.10175
      19     H     0.45588  0.45588  0.00000  0.08823

   Total alpha = 25.00000, Total beta = 25.00000, Total charge = -0.00000

*** Psi4 exiting successfully. Buy a developer a beer!
