  ==> Input File <==

--------------------------------------------------------------------------
set {
	reference rhf
	basis cc-pvtz
}

set_num_threads( 4 )
memory 2 gb

molecule MOL {
0 1

H	 -2.266619	 1.169943	 0.000098
O	 -1.438073	 1.611259	 0.000041
C	 -0.408657	 0.734701	 0.000005
C	 0.854367	 1.254643	 0.214106
C	 -0.595673	 -0.627450	 -0.204159
H	 0.957116	 2.310962	 0.367614
C	 1.950362	 0.418226	 0.227083
C	 0.523308	 -1.444198	 -0.185915
C	 -1.974625	 -1.193290	 -0.437651
H	 2.927823	 0.828988	 0.393895
C	 1.790529	 -0.939236	 0.026636
H	 0.395507	 -2.499298	 -0.342118
H	 -2.438169	 -0.772102	 -1.325371
H	 -1.929401	 -2.263904	 -0.576150
H	 -2.635707	 -1.004096	 0.403480
H	 2.638496	 -1.595928	 0.035389

	symmetry c1
}
set optking {
	frozen_dihedral = ("
		4 3 2 1
	")
}

ee = optimize('scf')
oeprop('DIPOLE', 'QUADRUPOLE', 'MULLIKEN_CHARGES')
f=open( 'psi4out.xyz', 'w' )
f.write( "16  " )
f.write( str(ee) + "\n" )
f.write( MOL.save_string_xyz() )
f.close()
--------------------------------------------------------------------------

    Molecular point group: c1
  Charge       = 0
  Multiplicity = 1
  Basis Set: CC-PVTZ
  Basis Set:
  @DF-RHF Final Energy:  -344.71921353398460
    Total Energy =                       -344.7192135339844867
    Molecular point group: c1
  Basis Set: CC-PVTZ
  Basis Set:
  Basis Set: CC-PVTZ
  Basis Set:
  @DF-RHF Final Energy:  -344.71922338607351
    Total Energy =                       -344.7192233860735087
  Basis Set: CC-PVTZ
  Basis Set:
  Basis Set: CC-PVTZ
  Basis Set:
  @DF-RHF Final Energy:  -344.71922567783309
    Total Energy =                       -344.7192256778327533
  Basis Set: CC-PVTZ
  Basis Set:
  Charge       = 0
  Multiplicity = 1
  Basis Set: CC-PVTZ
  Basis Set:

    Orbital Energies (a.u.)
    -----------------------

    Doubly Occupied:

       1A    -20.581518     2A    -11.291016     3A    -11.233565
       4A    -11.232392     5A    -11.228543     6A    -11.227294
       7A    -11.217558     8A    -11.216741     9A     -1.411990
      10A     -1.153425    11A     -1.051981    12A     -1.007887
      13A     -0.944060    14A     -0.828810    15A     -0.823793
      16A     -0.734644    17A     -0.680637    18A     -0.647503
      19A     -0.611792    20A     -0.604523    21A     -0.577538
      22A     -0.569743    23A     -0.561830    24A     -0.554219
      25A     -0.505465    26A     -0.485713    27A     -0.478490
      28A     -0.333829    29A     -0.309298

  @DF-RHF Final Energy:  -344.71922585632490

   => Energetics <=

    Nuclear Repulsion Energy =            351.0457662901090998
    One-Electron Energy =               -1163.3183862253574716
    Two-Electron Energy =                 467.5533940789231337
    DFT Exchange-Correlation Energy =       0.0000000000000000
    Empirical Dispersion Energy =           0.0000000000000000
    PCM Polarization Energy =               0.0000000000000000
    EFP Energy =                            0.0000000000000000
    Total Energy =                       -344.7192258563252381
    Molecular point group: c1
  Basis Set: CC-PVTZ
  Basis Set:

  -Total Gradient:
     Atom            X                  Y                   Z
    ------   -----------------  -----------------  -----------------
       1       -0.000000090699     0.000000097911     0.000643179236
       2       -0.000014303564    -0.000018378151    -0.000606159824
       3        0.000047725785     0.000050585713    -0.000465278370
       4       -0.000014627236    -0.000061194588     0.000426046141
       5       -0.000011340547     0.000034673890    -0.000008037011
       6       -0.000003358695     0.000001838875     0.000009527665
       7       -0.000016196764     0.000039919558     0.000000597078
       8        0.000044471090    -0.000007129749    -0.000024639318
       9        0.000010956116    -0.000000678478    -0.000041308504
      10       -0.000000614794    -0.000001714789    -0.000001765753
      11       -0.000032442093    -0.000035019006     0.000018768770
      12       -0.000002895465    -0.000000548441     0.000008071113
      13        0.000011451970     0.000007883827     0.000014877301
      14       -0.000003451516    -0.000002875575     0.000023779023
      15       -0.000017828070    -0.000009629955     0.000008762634
      16        0.000002544479     0.000002168955    -0.000006420181

  **** Optimization is complete! (in 4 steps) ****
    Final optimized geometry and variables:
    Molecular point group: c1

    Geometry (in Angstrom), charge = 0, multiplicity = 1:

    H           -2.269579402076     1.166152470370     0.043349469199
    O           -1.441186018056     1.608069526164     0.042169049759
    C           -0.411250056365     0.731307172599     0.050745284673
    C            0.851537336809     1.251367738665     0.264049992104
    C           -0.598520405996    -0.631283194843    -0.151172542635
    H            0.954240469044     2.307638771089     0.417950674340
    C            1.948114173831     0.415239064576     0.274656951752
    C            0.520016591168    -1.448241085427    -0.130983616178
    C           -1.977350645128    -1.196007765913    -0.387474029734
    H            2.925781019827     0.826302301812     0.439482955859
    C            1.787743223263    -0.942489720193     0.078132315706
    H            0.392181229008    -2.503643788750    -0.285029995193
    H           -2.444997032973    -0.757969536226    -1.264002902348
    H           -1.930803425254    -2.264178365839    -0.543579855235
    H           -2.635813862685    -1.024626216802     0.460234704950
    H            2.635726574126    -1.599194315411     0.086698663795

  Mulliken Charges: (a.u.)
   Center  Symbol    Alpha    Beta     Spin     Total
       1     H     0.38707  0.38707  0.00000  0.22586
       2     O     4.17214  4.17214  0.00000 -0.34428
       3     C     2.87348  2.87348  0.00000  0.25305
       4     C     3.11185  3.11185  0.00000 -0.22370
       5     C     3.01153  3.01153  0.00000 -0.02306
       6     H     0.42009  0.42009  0.00000  0.15982
       7     C     3.06539  3.06539  0.00000 -0.13077
       8     C     3.08342  3.08342  0.00000 -0.16683
       9     C     3.16479  3.16479  0.00000 -0.32957
      10     H     0.42250  0.42250  0.00000  0.15501
      11     C     3.09209  3.09209  0.00000 -0.18418
      12     H     0.42566  0.42566  0.00000  0.14868
      13     H     0.44674  0.44674  0.00000  0.10653
      14     H     0.44535  0.44535  0.00000  0.10930
      15     H     0.45286  0.45286  0.00000  0.09428
      16     H     0.42507  0.42507  0.00000  0.14987

   Total alpha = 29.00000, Total beta = 29.00000, Total charge =  0.00000
