                              Psi4 1.0.54 Driver

  ==> Input File <==

--------------------------------------------------------------------------
set {
	reference rhf
	basis cc-pvtz
}

set_num_threads( 4 )
memory 2 gb

molecule MOL {
0 1

H	 -2.644180	 -0.653737	 1.272255
C	 -2.092774	 -0.380414	 0.391915
O	 -0.808934	 -0.154049	 0.752536
F	 -2.163230	 -1.351640	 -0.507133
F	 -2.627232	 0.691260	 -0.169301
C	 0.085006	 0.250800	 -0.215074
C	 1.370439	 -0.548013	 -0.012993
Cl	 0.421658	 1.987697	 -0.091007
H	 -0.272219	 0.063284	 -1.212508
F	 1.959099	 -0.194596	 1.101278
F	 2.192340	 -0.292098	 -1.003094
F	 1.154174	 -1.834312	 0.017287

	symmetry c1
}
set optking {
	frozen_dihedral = ("
		10 7 6 9
	")
}

ee,wfn = optimize('scf', return_wfn=True)
oeprop( wfn, 'DIPOLE', 'QUADRUPOLE', 'MULLIKEN_CHARGES')
f=open( 'psi4out.xyz', 'w' )
f.write( "12  " )
f.write( str(ee) + "\n" )
f.write( MOL.save_string_xyz() )
f.close()
--------------------------------------------------------------------------

    Molecular point group: c1
  Charge       = 0
  Multiplicity = 1
  Basis Set: CC-PVTZ
  Basis Set:
  @DF-RHF Final Energy: -1146.61931759860272
    Total Energy =                      -1146.6193175986034021
    Molecular point group: c1
  Basis Set: CC-PVTZ
  Basis Set:
  Basis Set: CC-PVTZ
  Basis Set:
  @DF-RHF Final Energy: -1146.61983723509684
    Total Energy =                      -1146.6198372350963837
  Basis Set: CC-PVTZ
  Basis Set:
  Basis Set: CC-PVTZ
  Basis Set:
  @DF-RHF Final Energy: -1146.61998943061599
    Total Energy =                      -1146.6199894306164424
  Basis Set: CC-PVTZ
  Basis Set:
  Basis Set: CC-PVTZ
  Basis Set:
  @DF-RHF Final Energy: -1146.62000040429984
    Total Energy =                      -1146.6200004043005265
  Basis Set: CC-PVTZ
  Basis Set:
  Basis Set: CC-PVTZ
  Basis Set:
  @DF-RHF Final Energy: -1146.62000169398470
    Total Energy =                      -1146.6200016939844772
  Basis Set: CC-PVTZ
  Basis Set:
  Charge       = 0
  Multiplicity = 1
  Basis Set: CC-PVTZ
  Basis Set:

    Orbital Energies (a.u.)
    -----------------------

    Doubly Occupied:

       1A   -104.855753     2A    -26.354724     3A    -26.354049
       4A    -26.353298     5A    -26.343736     6A    -26.343715
       7A    -20.641863     8A    -11.520364     9A    -11.484574
      10A    -11.401236    11A    -10.581287    12A     -8.048078
      13A     -8.046101    14A     -8.046016    15A     -1.767981
      16A     -1.725372    17A     -1.662429    18A     -1.661778
      19A     -1.645361    20A     -1.488321    21A     -1.177768
      22A     -1.052542    23A     -0.991553    24A     -0.924849
      25A     -0.864751    26A     -0.859130    27A     -0.852448
      28A     -0.830098    29A     -0.818990    30A     -0.794157
      31A     -0.734452    32A     -0.733451    33A     -0.712716
      34A     -0.708549    35A     -0.685559    36A     -0.680936
      37A     -0.665652    38A     -0.664122    39A     -0.649881
      40A     -0.638774    41A     -0.599179    42A     -0.581809
      43A     -0.525028    44A     -0.478018    45A     -0.469160

  @DF-RHF Final Energy: -1146.62000196486633

   => Energetics <=

    Nuclear Repulsion Energy =            738.0213131959603743
    One-Electron Energy =               -3059.2434208696672613
    Two-Electron Energy =                1174.6021057088400994
    DFT Exchange-Correlation Energy =       0.0000000000000000
    Empirical Dispersion Energy =           0.0000000000000000
    PCM Polarization Energy =               0.0000000000000000
    EFP Energy =                            0.0000000000000000
    Total Energy =                      -1146.6200019648667876
    Molecular point group: c1
  Basis Set: CC-PVTZ
  Basis Set:

  -Total Gradient:
     Atom            X                  Y                   Z
    ------   -----------------  -----------------  -----------------
       1        0.000001463550     0.000004371863    -0.000002149643
       2        0.000016027687     0.000023903445     0.000018388636
       3       -0.000017036617    -0.000015508555    -0.000004522735
       4       -0.000004869268    -0.000019297610    -0.000014704070
       5        0.000029453010     0.000011763194     0.000002224660
       6       -0.001450323646    -0.002113053442     0.000756858340
       7       -0.001283849477    -0.001714271192     0.001427628223
       8       -0.000024029735    -0.000033314228    -0.000011966722
       9        0.001516000302     0.002227620076    -0.000943204892
      10        0.001223707783     0.001695913089    -0.001262260194
      11       -0.000001170902     0.000018666630     0.000028601860
      12       -0.000005372640    -0.000086793187     0.000005106532

  **** Optimization is complete! (in 6 steps) ****
    Final optimized geometry and variables:
    Molecular point group: c1

    Geometry (in Angstrom), charge = 0, multiplicity = 1:

    H           -2.649887091246    -0.624532076735     1.294546638693
    C           -2.097817840347    -0.367545345849     0.409700162252
    O           -0.812932478252    -0.139721367386     0.765763007080
    F           -2.171699320041    -1.352848873358    -0.473544084553
    F           -2.628177297983     0.696962689117    -0.168707522166
    C            0.079652186030     0.246537387605    -0.208306097740
    C            1.366647294086    -0.555504484334    -0.017873374072
    CL           0.433306812591     1.983387103490    -0.101647063072
    H           -0.276810178157     0.071018265482    -1.208043537652
    F            1.990252720103    -0.250953718861     1.086590324351
    F            2.177681090832    -0.334504060714    -1.023977982413
    F            1.085578961458    -1.835016981724     0.001524310103

  Mulliken Charges: (a.u.)
   Center  Symbol    Alpha    Beta     Spin     Total
       1     H     0.45190  0.45190  0.00000  0.09620
       2     C     2.73974  2.73974  0.00000  0.52051
       3     O     4.15628  4.15628  0.00000 -0.31255
       4     F     4.61778  4.61778  0.00000 -0.23557
       5     F     4.61502  4.61502  0.00000 -0.23005
       6     C     2.93726  2.93726  0.00000  0.12548
       7     C     2.66870  2.66870  0.00000  0.66260
       8    CL     8.57463  8.57463  0.00000 -0.14927
       9     H     0.43101  0.43101  0.00000  0.13798
      10     F     4.60004  4.60004  0.00000 -0.20009
      11     F     4.60449  4.60449  0.00000 -0.20898
      12     F     4.60313  4.60313  0.00000 -0.20625

   Total alpha = 45.00000, Total beta = 45.00000, Total charge = -0.00000

*** Psi4 exiting successfully. Buy a developer a beer!
