  ==> Input File <==

--------------------------------------------------------------------------
set {
	reference rhf
	basis cc-pvtz
}

set_num_threads( 4 )
memory 2 gb

molecule MOL {
0 1

H	 -3.941973	 0.934228	 -0.390224
C	 -3.240162	 0.342701	 0.161016
C	 -2.105997	 -0.000418	 -0.398703
H	 -3.485368	 0.047206	 1.162193
O	 -1.189946	 -0.765863	 0.237511
H	 -1.846458	 0.297311	 -1.398265
C	 0.026572	 -0.995256	 -0.379403
C	 1.057223	 0.049888	 -0.004615
H	 -0.054361	 -1.010670	 -1.459674
H	 0.397526	 -1.952058	 -0.044198
F	 1.795863	 -0.399166	 0.990293
F	 1.863245	 0.326372	 -1.007308
F	 0.502350	 1.173151	 0.381199

	symmetry c1
}
set optking {
	frozen_dihedral = ("
		11 8 7 9
	")
}

ee = optimize('scf')
oeprop('DIPOLE', 'QUADRUPOLE', 'MULLIKEN_CHARGES')
f=open( 'psi4out.xyz', 'w' )
f.write( "13  " )
f.write( str(ee) + "\n" )
f.write( MOL.save_string_xyz() )
f.close()
--------------------------------------------------------------------------

    Molecular point group: c1
  Charge       = 0
  Multiplicity = 1
  Basis Set: CC-PVTZ
  Basis Set:
  @DF-RHF Final Energy:  -527.73672395831863
    Total Energy =                       -527.7367239583185210
    Molecular point group: c1
  Basis Set: CC-PVTZ
  Basis Set:
  Basis Set: CC-PVTZ
  Basis Set:
  @DF-RHF Final Energy:  -527.73750747341330
    Total Energy =                       -527.7375074734135296
  Basis Set: CC-PVTZ
  Basis Set:
  Basis Set: CC-PVTZ
  Basis Set:
  @DF-RHF Final Energy:  -527.73769406542920
    Total Energy =                       -527.7376940654291957
  Basis Set: CC-PVTZ
  Basis Set:
  Basis Set: CC-PVTZ
  Basis Set:
  @DF-RHF Final Energy:  -527.73771151056530
    Total Energy =                       -527.7377115105650773
  Basis Set: CC-PVTZ
  Basis Set:
  Basis Set: CC-PVTZ
  Basis Set:
  @DF-RHF Final Energy:  -527.73771446639739
    Total Energy =                       -527.7377144663976196
  Basis Set: CC-PVTZ
  Basis Set:
  Basis Set: CC-PVTZ
  Basis Set:
  @DF-RHF Final Energy:  -527.73771626344671
    Total Energy =                       -527.7377162634467140
  Basis Set: CC-PVTZ
  Basis Set:
  Basis Set: CC-PVTZ
  Basis Set:
  @DF-RHF Final Energy:  -527.73771742924396
    Total Energy =                       -527.7377174292437303
  Basis Set: CC-PVTZ
  Basis Set:
  Charge       = 0
  Multiplicity = 1
  Basis Set: CC-PVTZ
  Basis Set:

    Orbital Energies (a.u.)
    -----------------------

    Doubly Occupied:

       1A    -26.342341     2A    -26.339106     3A    -26.338128
       4A    -20.604269     5A    -11.499218     6A    -11.319705
       7A    -11.298792     8A    -11.214282     9A     -1.750723
      10A     -1.648309    11A     -1.643361    12A     -1.444991
      13A     -1.085925    14A     -1.019820    15A     -0.932757
      16A     -0.843701    17A     -0.839389    18A     -0.827861
      19A     -0.795911    20A     -0.732771    21A     -0.721706
      22A     -0.702750    23A     -0.680449    24A     -0.668144
      25A     -0.661691    26A     -0.650313    27A     -0.636740
      28A     -0.587511    29A     -0.565098    30A     -0.530165
      31A     -0.516579    32A     -0.357099

  @DF-RHF Final Energy:  -527.73771779884692

   => Energetics <=

    Nuclear Repulsion Energy =            412.5791131191024874
    One-Electron Energy =               -1549.0344392295321541
    Two-Electron Energy =                 608.7176083115826941
    DFT Exchange-Correlation Energy =       0.0000000000000000
    Empirical Dispersion Energy =           0.0000000000000000
    PCM Polarization Energy =               0.0000000000000000
    EFP Energy =                            0.0000000000000000
    Total Energy =                       -527.7377177988470294
    Molecular point group: c1
  Basis Set: CC-PVTZ
  Basis Set:

  -Total Gradient:
     Atom            X                  Y                   Z
    ------   -----------------  -----------------  -----------------
       1        0.000004029451     0.000009349244     0.000006523787
       2        0.000003124016     0.000000412871     0.000001773553
       3        0.000002585208    -0.000024348662    -0.000027524616
       4        0.000003365542    -0.000000255785     0.000000256962
       5       -0.000025908597    -0.000006058671     0.000056565370
       6        0.000007933913     0.000007680922     0.000004648268
       7       -0.003353213636     0.003699294175    -0.000815718521
       8       -0.002751774556     0.001594958883     0.003541331300
       9        0.003465275375    -0.003501188475    -0.000047295525
      10       -0.000018299645    -0.000001171006    -0.000011519180
      11        0.002634931503    -0.001771467463    -0.002681282292
      12        0.000054449359    -0.000018732931    -0.000029890371
      13       -0.000026497925     0.000011526905     0.000002131274

  **** Optimization is complete! (in 8 steps) ****
    Final optimized geometry and variables:
    Molecular point group: c1

    Geometry (in Angstrom), charge = 0, multiplicity = 1:

    H           -3.956710700268     0.949093717718    -0.369508150316
    C           -3.278748816658     0.310917105503     0.159075162877
    C           -2.107605810376     0.040446583778    -0.362871774403
    H           -3.576575689254    -0.087721657928     1.108955134937
    O           -1.213250821200    -0.768014993760     0.250532872742
    H           -1.796619412851     0.440618042307    -1.310869553347
    C            0.001372016408    -0.989903474203    -0.367281925294
    C            1.061758837945     0.052525410651    -0.008218904423
    H           -0.069032322328    -1.041851613818    -1.446293838306
    H            0.371080272863    -1.943531933834    -0.022199399241
    F            1.803081486670    -0.335444530136     1.006711255348
    F            1.882149335814     0.222119935850    -1.029817420858
    F            0.545810531396     1.219368746970     0.286296473661

  Mulliken Charges: (a.u.)
   Center  Symbol    Alpha    Beta     Spin     Total
       1     H     0.42532  0.42532  0.00000  0.14935
       2     C     3.19674  3.19674  0.00000 -0.39349
       3     C     2.95603  2.95603  0.00000  0.08794
       4     H     0.42505  0.42505  0.00000  0.14990
       5     O     4.14141  4.14141  0.00000 -0.28281
       6     H     0.43476  0.43476  0.00000  0.13048
       7     C     3.03198  3.03198  0.00000 -0.06396
       8     C     2.67145  2.67145  0.00000  0.65709
       9     H     0.45445  0.45445  0.00000  0.09109
      10     H     0.43645  0.43645  0.00000  0.12710
      11     F     4.60884  4.60884  0.00000 -0.21768
      12     F     4.61381  4.61381  0.00000 -0.22762
      13     F     4.60370  4.60370  0.00000 -0.20740

   Total alpha = 32.00000, Total beta = 32.00000, Total charge = -0.00000
