  ==> Input File <==

--------------------------------------------------------------------------
set {
	reference rhf
	basis 6-31G*
}

set_num_threads( 4 )
memory 2 gb

molecule MOL {
0 1

H	 -3.161837	 0.500524	 -0.000234
C	 -2.367097	 -0.232926	 -0.000000
O	 -1.158440	 0.455814	 -0.000122
H	 -2.468853	 -0.861886	 -0.882833
H	 -2.468942	 -0.861421	 0.883154
C	 -0.029776	 -0.365156	 0.000148
C	 1.212217	 0.508981	 0.000007
H	 -0.036772	 -1.013236	 -0.877259
H	 -0.036869	 -1.012778	 0.877897
C	 2.501538	 -0.307519	 0.076554
H	 1.205779	 1.116048	 -0.900043
H	 1.151350	 1.193805	 0.840252
H	 2.593852	 -0.982968	 -0.769419
H	 3.371186	 0.340984	 0.075295
H	 2.538759	 -0.905302	 0.983017

	symmetry c1
}
set optking {
	frozen_dihedral = ("
		11 7 6 8
	")
}

ee = optimize('scf')
oeprop('DIPOLE', 'QUADRUPOLE', 'MULLIKEN_CHARGES')
f=open( 'psi4out.xyz', 'w' )
f.write( "15  " )
f.write( str(ee) + "\n" )
f.write( MOL.save_string_xyz() )
f.close()
--------------------------------------------------------------------------

    Molecular point group: c1
  Charge       = 0
  Multiplicity = 1
  Basis Set: 6-31G*
  Basis Set:
  @DF-RHF Final Energy:  -232.13941348478343
    Total Energy =                       -232.1394134847834039
    Molecular point group: c1
  Basis Set: 6-31G*
  Basis Set:
  Basis Set: 6-31G*
  Basis Set:
  @DF-RHF Final Energy:  -232.13941811602626
    Total Energy =                       -232.1394181160261496
  Basis Set: 6-31G*
  Basis Set:
  Basis Set: 6-31G*
  Basis Set:
  @DF-RHF Final Energy:  -232.13942065129442
    Total Energy =                       -232.1394206512943015
  Basis Set: 6-31G*
  Basis Set:
  Charge       = 0
  Multiplicity = 1
  Basis Set: 6-31G*
  Basis Set:

    Orbital Energies (a.u.)
    -----------------------

    Doubly Occupied:

       1A    -20.553325     2A    -11.266295     3A    -11.263952
       4A    -11.214325     5A    -11.212923     6A     -1.378180
       7A     -1.057273     8A     -0.955240     9A     -0.877190
      10A     -0.809056    11A     -0.675035    12A     -0.653779
      13A     -0.630198    14A     -0.607685    15A     -0.565492
      16A     -0.541359    17A     -0.502505    18A     -0.488925
      19A     -0.478333    20A     -0.461419    21A     -0.413884

  @DF-RHF Final Energy:  -232.13942072402460

   => Energetics <=

    Nuclear Repulsion Energy =            189.7276116441701674
    One-Electron Energy =                -690.5213183528193213
    Two-Electron Energy =                 268.6542859846243800
    DFT Exchange-Correlation Energy =       0.0000000000000000
    Empirical Dispersion Energy =           0.0000000000000000
    PCM Polarization Energy =               0.0000000000000000
    EFP Energy =                            0.0000000000000000
    Total Energy =                       -232.1394207240247738
    Molecular point group: c1
  Basis Set: 6-31G*
  Basis Set:

  -Total Gradient:
     Atom            X                  Y                   Z
    ------   -----------------  -----------------  -----------------
       1        0.000004934971     0.000000400295     0.000000655904
       2       -0.000006280532    -0.000003765876     0.000003132768
       3        0.000001944767     0.000001946015     0.000012606651
       4        0.000001206695     0.000000722006    -0.000000780637
       5       -0.000002733072     0.000000105414    -0.000000229603
       6        0.000459220109    -0.000671056591     0.000309496506
       7       -0.000484854262     0.000697178994     0.000322132721
       8       -0.000314308015     0.000445248285    -0.000338893348
       9        0.000005785318     0.000012889413     0.000001025775
      10        0.000001193556     0.000002916745     0.000003935565
      11        0.000321434756    -0.000474683577    -0.000318107307
      12        0.000003483594    -0.000005174702     0.000003119187
      13       -0.000003392286    -0.000000920687     0.000002370902
      14        0.000002380837    -0.000002073582    -0.000004350380
      15        0.000009983566    -0.000003732153     0.000003885296

  **** Optimization is complete! (in 4 steps) ****
    Final optimized geometry and variables:
    Molecular point group: c1

    Geometry (in Angstrom), charge = 0, multiplicity = 1:

    H           -3.161917625876     0.499630843894    -0.023305924471
    C           -2.366780447151    -0.233438291068    -0.021159039422
    O           -1.158263060412     0.455368704270    -0.013892799672
    H           -2.464110985189    -0.860320823080    -0.905979812827
    H           -2.472486706567    -0.864183652909     0.859957865895
    C           -0.029219426566    -0.366042576164    -0.009177390778
    C            1.212018701776     0.509318333472    -0.011984626033
    H           -0.036808792846    -1.014290761210    -0.886302151953
    H           -0.037996848769    -1.010383742001     0.870795933132
    C            2.501881008777    -0.307663117788     0.056266627081
    H            1.204292650957     1.116425372945    -0.912040702806
    H            1.154294146107     1.191259975017     0.830550083926
    H            2.585751563028    -0.987277583622    -0.787343504686
    H            3.371952802698     0.340196463859     0.043059056459
    H            2.547497516521    -0.901246003633     0.965050446902

  Mulliken Charges: (a.u.)
   Center  Symbol    Alpha    Beta     Spin     Total
       1     H     0.41218  0.41218  0.00000  0.17564
       2     C     3.07929  3.07929  0.00000 -0.15857
       3     O     4.30594  4.30594  0.00000 -0.61188
       4     H     0.43048  0.43048  0.00000  0.13905
       5     H     0.43048  0.43048  0.00000  0.13904
       6     C     2.98153  2.98153  0.00000  0.03694
       7     C     3.15978  3.15978  0.00000 -0.31957
       8     H     0.43329  0.43329  0.00000  0.13341
       9     H     0.43333  0.43333  0.00000  0.13333
      10     C     3.24795  3.24795  0.00000 -0.49589
      11     H     0.41477  0.41477  0.00000  0.17045
      12     H     0.41376  0.41376  0.00000  0.17248
      13     H     0.42104  0.42104  0.00000  0.15791
      14     H     0.41545  0.41545  0.00000  0.16910
      15     H     0.42072  0.42072  0.00000  0.15856

   Total alpha = 21.00000, Total beta = 21.00000, Total charge =  0.00000
