  ==> Input File <==

--------------------------------------------------------------------------
set {
	reference rhf
	basis 6-31G*
}

set_num_threads( 4 )
memory 2 gb

molecule MOL {
0 1

O	 -0.988096	 -1.408613	 0.050699
C	 -0.676749	 -0.249230	 -0.009274
C	 -1.746085	 0.827156	 -0.009539
N	 0.623947	 0.147590	 -0.102813
H	 -1.701500	 1.431508	 -0.908902
H	 -2.703425	 0.330732	 0.036390
H	 -1.647323	 1.487769	 0.845106
C	 1.099821	 1.184540	 0.791701
C	 1.475476	 -0.128947	 -1.238891
H	 2.113719	 0.956735	 1.101755
H	 0.463174	 1.230598	 1.658016
H	 1.101024	 2.156989	 0.304093
H	 2.499626	 -0.226082	 -0.898713
H	 1.203685	 -1.053390	 -1.723110
H	 1.441510	 0.670932	 -1.976354

	symmetry c1
}
set optking {
	frozen_dihedral = ("
		8 4 2 3
	")
}

ee = optimize('scf')
oeprop('DIPOLE', 'QUADRUPOLE', 'MULLIKEN_CHARGES')
f=open( 'psi4out.xyz', 'w' )
f.write( "15  " )
f.write( str(ee) + "\n" )
f.write( MOL.save_string_xyz() )
f.close()
--------------------------------------------------------------------------

    Molecular point group: c1
  Charge       = 0
  Multiplicity = 1
  Basis Set: 6-31G*
  Basis Set:
  @DF-RHF Final Energy:  -286.00302751370236
    Total Energy =                       -286.0030275137023068
    Molecular point group: c1
  Basis Set: 6-31G*
  Basis Set:
  Basis Set: 6-31G*
  Basis Set:
  @DF-RHF Final Energy:  -286.00801235126278
    Total Energy =                       -286.0080123512625505
  Basis Set: 6-31G*
  Basis Set:
  Basis Set: 6-31G*
  Basis Set:
  @DF-RHF Final Energy:  -286.01132770069160
    Total Energy =                       -286.0113277006915382
  Basis Set: 6-31G*
  Basis Set:
  Basis Set: 6-31G*
  Basis Set:
  @DF-RHF Final Energy:  -286.01499504543733
    Total Energy =                       -286.0149950454375016
  Basis Set: 6-31G*
  Basis Set:
  @DF-RHF Final Energy:  -286.01836048749817
    Total Energy =                       -286.0183604874982848
  @DF-RHF Final Energy:  -286.02014315776921
    Total Energy =                       -286.0201431577692688
  @DF-RHF Final Energy:  -286.02219940718550
    Total Energy =                       -286.0221994071856670
  @DF-RHF Final Energy:  -286.02375406403189
    Total Energy =                       -286.0237540640320049
  @DF-RHF Final Energy:  -286.02489528692286
    Total Energy =                       -286.0248952869227992
  @DF-RHF Final Energy:  -286.02526409533277
    Total Energy =                       -286.0252640953324885
  @DF-RHF Final Energy:  -286.02551331965350
    Total Energy =                       -286.0255133196533848
  @DF-RHF Final Energy:  -286.02557954509587
    Total Energy =                       -286.0255795450958090
  @DF-RHF Final Energy:  -286.02562120967269
    Total Energy =                       -286.0256212096726358
  @DF-RHF Final Energy:  -286.02565554170712
    Total Energy =                       -286.0256555417072377
  @DF-RHF Final Energy:  -286.02556606753956
    Total Energy =                       -286.0255660675395575
  @DF-RHF Final Energy:  -286.02568283164732
    Total Energy =                       -286.0256828316473730
  @DF-RHF Final Energy:  -286.02571329866805
    Total Energy =                       -286.0257132986680517
  @DF-RHF Final Energy:  -286.02573878896601
    Total Energy =                       -286.0257387889661800
  @DF-RHF Final Energy:  -286.02573883138211
    Total Energy =                       -286.0257388313821139
  @DF-RHF Final Energy:  -286.02573860802079
    Total Energy =                       -286.0257386080209017
  @DF-RHF Final Energy:  -286.02573806819180
    Total Energy =                       -286.0257380681920267
  @DF-RHF Final Energy:  -286.02573802905908
    Total Energy =                       -286.0257380290590845
  @DF-RHF Final Energy:  -286.02573277834927
    Total Energy =                       -286.0257327783492656
  @DF-RHF Final Energy:  -286.02573804171595
    Total Energy =                       -286.0257380417158402
  @DF-RHF Final Energy:  -286.02573748808618
    Total Energy =                       -286.0257374880859516
  @DF-RHF Final Energy:  -286.02573799334937
    Total Energy =                       -286.0257379933493667
  @DF-RHF Final Energy:  -286.02573802466475
    Total Energy =                       -286.0257380246647472
  @DF-RHF Final Energy:  -286.02573800303850
    Total Energy =                       -286.0257380030383842
  @DF-RHF Final Energy:  -286.02573777005159
    Total Energy =                       -286.0257377700514780
  @DF-RHF Final Energy:  -286.02573802070748
    Total Energy =                       -286.0257380207075357
  @DF-RHF Final Energy:  -286.02573753890363
    Total Energy =                       -286.0257375389035133
  @DF-RHF Final Energy:  -286.02573800278049
    Total Energy =                       -286.0257380027804288
  @DF-RHF Final Energy:  -286.02573796583465
    Total Energy =                       -286.0257379658347645
  @DF-RHF Final Energy:  -286.02573797464731
    Total Energy =                       -286.0257379746475408
  @DF-RHF Final Energy:  -286.02573795307268
    Total Energy =                       -286.0257379530726780
  @DF-RHF Final Energy:  -286.02573791901830
    Total Energy =                       -286.0257379190184679
  Basis Set: 6-31G*
  Basis Set:
  @DF-RHF Final Energy:  -286.02573798286647
    Total Energy =                       -286.0257379828663602
  Basis Set: 6-31G*
  Basis Set:
  Basis Set: 6-31G*
  Basis Set:
  @DF-RHF Final Energy:  -286.02573794207569
    Total Energy =                       -286.0257379420755228
  Basis Set: 6-31G*
  Basis Set:
  Basis Set: 6-31G*
  Basis Set:
  @DF-RHF Final Energy:  -286.02573790348788
    Total Energy =                       -286.0257379034879932
  Basis Set: 6-31G*
  Basis Set:
  Charge       = 0
  Multiplicity = 1
  Basis Set: 6-31G*
  Basis Set:

    Orbital Energies (a.u.)
    -----------------------

    Doubly Occupied:

       1A    -20.529425     2A    -15.579004     3A    -11.343591
       4A    -11.264716     5A    -11.245170     6A    -11.228477
       7A     -1.395185     8A     -1.241784     9A     -1.013191
      10A     -0.968399    11A     -0.911980    12A     -0.736518
      13A     -0.680256    14A     -0.657958    15A     -0.649913
      16A     -0.595572    17A     -0.579288    18A     -0.569564
      19A     -0.559208    20A     -0.540124    21A     -0.526101
      22A     -0.499180    23A     -0.419078    24A     -0.375959

  @DF-RHF Final Energy:  -286.02573788326680

   => Energetics <=

    Nuclear Repulsion Energy =            252.7965799254444050
    One-Electron Energy =                -889.4253485348685899
    Two-Electron Energy =                 350.6030307261574990
    DFT Exchange-Correlation Energy =       0.0000000000000000
    Empirical Dispersion Energy =           0.0000000000000000
    PCM Polarization Energy =               0.0000000000000000
    EFP Energy =                            0.0000000000000000
    Total Energy =                       -286.0257378832667428
    Molecular point group: c1
  Basis Set: 6-31G*
  Basis Set:

  -Total Gradient:
     Atom            X                  Y                   Z
    ------   -----------------  -----------------  -----------------
       1        0.000088537101     0.000162534609    -0.000773042825
       2        0.004564709148    -0.003567236313     0.010247155501
       3       -0.001832359794     0.000987861999    -0.005368756778
       4       -0.006017179383     0.006540712473    -0.006184544686
       5       -0.000028452855     0.000040745732    -0.000069115129
       6       -0.000036512147     0.000000260454    -0.000020983586
       7       -0.000006021592    -0.000019027976     0.000011220549
       8        0.003102523222    -0.004341538113     0.002162474488
       9        0.000038862150     0.000205161500     0.000081999195
      10       -0.000021145420     0.000023076422     0.000004186604
      11        0.000029370816    -0.000020633489    -0.000016707839
      12        0.000138976350     0.000074042737    -0.000037538356
      13        0.000003170382     0.000059689435    -0.000078433638
      14        0.000011284468    -0.000072564461     0.000048483026
      15       -0.000035762446    -0.000073085004    -0.000006396526

    Molecular point group: c1

    Geometry (in Angstrom), charge = 0, multiplicity = 1:

    O           -0.753568667121    -1.477135002614    -0.215041405462
    C           -0.631247921201    -0.315877903216     0.048796699412
    C           -1.800151400252     0.487147559496     0.587701185283
    N            0.515539667923     0.390336916408    -0.260883372224
    H           -1.848911889149     1.467792510520     0.131241586646
    H           -2.702657549254    -0.066124939404     0.372212384000
    H           -1.730648003139     0.613508763589     1.663878350595
    C            1.051245960624     1.307220159277     0.732073085670
    C            1.550820727437    -0.382062382364    -0.928560399227
    H            1.550190752133     0.781051262202     1.544315192006
    H            0.270478745866     1.926341420406     1.150521182193
    H            1.772261922769     1.961686290133     0.258971719368
    H            2.060998523123    -1.062339139838    -0.250786637778
    H            1.115899656115    -0.962371769966    -1.726241383714
    H            2.276873620595     0.305208573924    -1.345574773625

  Mulliken Charges: (a.u.)
   Center  Symbol    Alpha    Beta     Spin     Total
       1     O     4.28870  4.28870  0.00000 -0.57740
       2     C     2.63932  2.63932  0.00000  0.72136
       3     C     3.29289  3.29289  0.00000 -0.58579
       4     N     3.81177  3.81177  0.00000 -0.62353
       5     H     0.40452  0.40452  0.00000  0.19095
       6     H     0.39219  0.39219  0.00000  0.21561
       7     H     0.40628  0.40628  0.00000  0.18744
       8     C     3.15230  3.15230  0.00000 -0.30461
       9     C     3.14397  3.14397  0.00000 -0.28795
      10     H     0.41757  0.41757  0.00000  0.16486
      11     H     0.40794  0.40794  0.00000  0.18413
      12     H     0.40864  0.40864  0.00000  0.18272
      13     H     0.41911  0.41911  0.00000  0.16178
      14     H     0.39675  0.39675  0.00000  0.20650
      15     H     0.41804  0.41804  0.00000  0.16392

   Total alpha = 24.00000, Total beta = 24.00000, Total charge = -0.00000
