                              Psi4 1.0.54 Driver

  ==> Input File <==

--------------------------------------------------------------------------
set {
	reference rhf
	basis cc-pvtz
}

set_num_threads( 4 )
memory 2 gb

molecule MOL {
0 1

H	 -2.777562	 -1.373990	 0.855948
O	 -1.954374	 -1.051790	 0.538796
C	 -2.021813	 0.336996	 0.342658
C	 -0.669613	 0.837286	 -0.127252
H	 -2.776589	 0.575889	 -0.402303
H	 -2.301381	 0.838069	 1.267402
C	 0.490865	 -0.082543	 0.241244
H	 -0.708709	 0.967192	 -1.204587
H	 -0.507562	 1.822272	 0.303070
C	 1.839800	 0.429565	 -0.255472
H	 0.305636	 -1.070211	 -0.165276
H	 0.527397	 -0.195943	 1.322876
C	 3.001144	 -0.485193	 0.119072
H	 1.804373	 0.541073	 -1.335756
H	 2.020437	 1.423114	 0.146921
H	 2.866892	 -1.477297	 -0.298806
H	 3.943543	 -0.095749	 -0.249061
H	 3.085064	 -0.590459	 1.195790

	symmetry c1
}
set optking {
	frozen_dihedral = ("
		2 3 4 8
	")
}

ee,wfn = optimize('scf', return_wfn=True)
oeprop( wfn, 'DIPOLE', 'QUADRUPOLE', 'MULLIKEN_CHARGES')
f=open( 'psi4out.xyz', 'w' )
f.write( "18  " )
f.write( str(ee) + "\n" )
f.write( MOL.save_string_xyz() )
f.close()
--------------------------------------------------------------------------

    Molecular point group: c1
  Charge       = 0
  Multiplicity = 1
  Basis Set: CC-PVTZ
  Basis Set:
  @DF-RHF Final Energy:  -271.27962645039440
    Total Energy =                       -271.2796264503944030
    Molecular point group: c1
  Basis Set: CC-PVTZ
  Basis Set:
  Basis Set: CC-PVTZ
  Basis Set:
  @DF-RHF Final Energy:  -271.28025411009043
    Total Energy =                       -271.2802541100903682
  Basis Set: CC-PVTZ
  Basis Set:
  Basis Set: CC-PVTZ
  Basis Set:
  @DF-RHF Final Energy:  -271.28088436768070
    Total Energy =                       -271.2808843676803008
  Basis Set: CC-PVTZ
  Basis Set:
  Basis Set: CC-PVTZ
  Basis Set:
  @DF-RHF Final Energy:  -271.28090944142235
    Total Energy =                       -271.2809094414222955
  Basis Set: CC-PVTZ
  Basis Set:
  Basis Set: CC-PVTZ
  Basis Set:
  @DF-RHF Final Energy:  -271.28091163777549
    Total Energy =                       -271.2809116377756027
  Basis Set: CC-PVTZ
  Basis Set:
  Basis Set: CC-PVTZ
  Basis Set:
  @DF-RHF Final Energy:  -271.28091332750074
    Total Energy =                       -271.2809133275005706
  Basis Set: CC-PVTZ
  Basis Set:
  Charge       = 0
  Multiplicity = 1
  Basis Set: CC-PVTZ
  Basis Set:

    Orbital Energies (a.u.)
    -----------------------

    Doubly Occupied:

       1A    -20.545781     2A    -11.266717     3A    -11.211027
       4A    -11.207608     5A    -11.202910     6A    -11.201327
       7A     -1.363811     8A     -1.073816     9A     -1.007013
      10A     -0.914644    11A     -0.818114    12A     -0.783429
      13A     -0.700316    14A     -0.655454    15A     -0.618818
      16A     -0.583222    17A     -0.573947    18A     -0.552731
      19A     -0.519625    20A     -0.502975    21A     -0.492421
      22A     -0.464826    23A     -0.458935    24A     -0.444843
      25A     -0.428124

  @DF-RHF Final Energy:  -271.28091337874753

   => Energetics <=

    Nuclear Repulsion Energy =            249.9416311247046849
    One-Electron Energy =                -863.2602296328298053
    Two-Electron Energy =                 342.0376851293773370
    DFT Exchange-Correlation Energy =       0.0000000000000000
    Empirical Dispersion Energy =           0.0000000000000000
    PCM Polarization Energy =               0.0000000000000000
    EFP Energy =                            0.0000000000000000
    Total Energy =                       -271.2809133787477549
    Molecular point group: c1
  Basis Set: CC-PVTZ
  Basis Set:

  -Total Gradient:
     Atom            X                  Y                   Z
    ------   -----------------  -----------------  -----------------
       1        0.000003183189     0.000007097279     0.000002357297
       2        0.001374961277     0.000540664974     0.004563938282
       3       -0.002222852057     0.000679318574    -0.005802576099
       4        0.002554175567    -0.007104679165     0.000310765550
       5        0.000003905101     0.000001071900    -0.000004657155
       6       -0.000005371641     0.000008650954    -0.000004012073
       7       -0.000001874232     0.000006078964     0.000005112530
       8       -0.001701230165     0.005870014057     0.000932050257
       9       -0.000000331056    -0.000001531922     0.000008115955
      10        0.000001198665    -0.000009446447    -0.000018370764
      11        0.000001958565     0.000002045837    -0.000000408987
      12       -0.000003539080    -0.000003204491     0.000002753168
      13       -0.000003536089     0.000003216821     0.000007929209
      14        0.000001531447     0.000002339026    -0.000004676105
      15       -0.000001698748    -0.000003056605     0.000000017508
      16       -0.000000500940     0.000002524557    -0.000001856115
      17       -0.000001109573     0.000002625518     0.000001944470
      18        0.000001129767    -0.000003729832     0.000001573072

  **** Optimization is complete! (in 7 steps) ****
    Final optimized geometry and variables:
    Molecular point group: c1

    Geometry (in Angstrom), charge = 0, multiplicity = 1:

    H           -2.968692863518    -1.331503531330     0.575930236035
    O           -2.110429184811    -1.049866755090     0.319155996332
    C           -2.099549763032     0.344434110408     0.149011928533
    C           -0.720316838157     0.819779793461    -0.320585370930
    H           -2.857237957412     0.649959451370    -0.566335892224
    H           -2.338237556424     0.819737067956     1.097378168986
    C            0.451017810424    -0.072522109324     0.075777485677
    H           -0.733831299094     0.986834046323    -1.393308529091
    H           -0.564527078484     1.808559530745     0.104034563051
    C            1.796520227519     0.512752511921    -0.344047068607
    H            0.326913102689    -1.053471677426    -0.365332320545
    H            0.442302648504    -0.222734249364     1.151712655820
    C            2.976624795090    -0.374088487158     0.039074791328
    H            1.800699288071     0.670666858988    -1.419425781229
    H            1.923100006934     1.493425031002     0.107289264244
    H            2.898230551203    -1.350948369338    -0.426166326606
    H            3.917318479631     0.066196131654    -0.271871989547
    H            3.020462004140    -0.524208978272     1.112737387622

  Mulliken Charges: (a.u.)
   Center  Symbol    Alpha    Beta     Spin     Total
       1     H     0.39827  0.39827  0.00000  0.20346
       2     O     4.19233  4.19233  0.00000 -0.38467
       3     C     2.96969  2.96969  0.00000  0.06061
       4     C     3.09994  3.09994  0.00000 -0.19988
       5     H     0.46851  0.46851  0.00000  0.06298
       6     H     0.47341  0.47341  0.00000  0.05317
       7     C     3.07992  3.07992  0.00000 -0.15984
       8     H     0.45348  0.45348  0.00000  0.09303
       9     H     0.45725  0.45725  0.00000  0.08549
      10     C     3.08499  3.08499  0.00000 -0.16998
      11     H     0.44487  0.44487  0.00000  0.11027
      12     H     0.45456  0.45456  0.00000  0.09087
      13     C     3.14979  3.14979  0.00000 -0.29958
      14     H     0.45608  0.45608  0.00000  0.08785
      15     H     0.45686  0.45686  0.00000  0.08627
      16     H     0.45469  0.45469  0.00000  0.09061
      17     H     0.44982  0.44982  0.00000  0.10036
      18     H     0.45552  0.45552  0.00000  0.08895

   Total alpha = 25.00000, Total beta = 25.00000, Total charge = -0.00000

*** Psi4 exiting successfully. Buy a developer a beer!
