                              Psi4 1.0.54 Driver

  ==> Input File <==

--------------------------------------------------------------------------
set {
	reference rhf
	basis cc-pvtz
}

set_num_threads( 4 )
memory 2 gb

molecule MOL {
0 1

H	 2.828711	 -0.346904	 0.001083
C	 1.876752	 0.015931	 -0.363450
C	 0.776285	 -0.474665	 0.563092
H	 1.728113	 -0.357244	 -1.367440
H	 1.906171	 1.096574	 -0.386153
N	 -0.540022	 0.017605	 0.071630
H	 0.707111	 -1.548969	 0.573035
H	 0.886169	 -0.084184	 1.560432
O	 -0.755378	 1.178812	 0.168656
O	 -1.294421	 -0.789536	 -0.357090

	symmetry c1
}
set optking {
	frozen_dihedral = ("
		9 6 3 2
	")
}

ee,wfn = optimize('scf', return_wfn=True)
oeprop( wfn, 'DIPOLE', 'QUADRUPOLE', 'MULLIKEN_CHARGES')
f=open( 'psi4out.xyz', 'w' )
f.write( "10  " )
f.write( str(ee) + "\n" )
f.write( MOL.save_string_xyz() )
f.close()
--------------------------------------------------------------------------

    Molecular point group: c1
  Charge       = 0
  Multiplicity = 1
  Basis Set: CC-PVTZ
  Basis Set:
  @DF-RHF Final Energy:  -282.81311373419510
    Total Energy =                       -282.8131137341952126
    Molecular point group: c1
  Basis Set: CC-PVTZ
  Basis Set:
  Basis Set: CC-PVTZ
  Basis Set:
  @DF-RHF Final Energy:  -282.80807342764228
    Total Energy =                       -282.8080734276422845
  Basis Set: CC-PVTZ
  Basis Set:
  Basis Set: CC-PVTZ
  Basis Set:
  @DF-RHF Final Energy:  -282.81265132460635
    Total Energy =                       -282.8126513246062359
  Basis Set: CC-PVTZ
  Basis Set:
  Basis Set: CC-PVTZ
  Basis Set:
  @DF-RHF Final Energy:  -282.81326429510341
    Total Energy =                       -282.8132642951033517
  Basis Set: CC-PVTZ
  Basis Set:
  Basis Set: CC-PVTZ
  Basis Set:
  @DF-RHF Final Energy:  -282.81328907758677
    Total Energy =                       -282.8132890775867736
  Basis Set: CC-PVTZ
  Basis Set:
  Charge       = 0
  Multiplicity = 1
  Basis Set: CC-PVTZ
  Basis Set:

    Orbital Energies (a.u.)
    -----------------------

    Doubly Occupied:

       1A    -20.593651     2A    -20.590346     3A    -15.838527
       4A    -11.301986     5A    -11.249877     6A     -1.637870
       7A     -1.422181     8A     -1.126135     9A     -0.966863
      10A     -0.839226    11A     -0.763960    12A     -0.740623
      13A     -0.730378    14A     -0.658138    15A     -0.590646
      16A     -0.561205    17A     -0.547375    18A     -0.488845
      19A     -0.479392    20A     -0.455071

  @DF-RHF Final Energy:  -282.81329827652155

   => Energetics <=

    Nuclear Repulsion Energy =            186.7303791406621656
    One-Electron Energy =                -755.9227666377182686
    Two-Electron Energy =                 286.3790892205344107
    DFT Exchange-Correlation Energy =       0.0000000000000000
    Empirical Dispersion Energy =           0.0000000000000000
    PCM Polarization Energy =               0.0000000000000000
    EFP Energy =                            0.0000000000000000
    Total Energy =                       -282.8132982765216639
    Molecular point group: c1
  Basis Set: CC-PVTZ
  Basis Set:

  -Total Gradient:
     Atom            X                  Y                   Z
    ------   -----------------  -----------------  -----------------
       1       -0.000009610660     0.000002502391    -0.000000515718
       2        0.000036627089     0.000061173771     0.000029728995
       3       -0.000044177591    -0.000137782174    -0.000068977763
       4        0.000008182022     0.000003974948     0.000003529466
       5       -0.000019571952     0.000003425965     0.000022361425
       6        0.000038591487     0.000081054172     0.000173358800
       7        0.000043597415    -0.000012021569    -0.000006434206
       8        0.000031260828    -0.000011403426    -0.000001033394
       9       -0.000063952806    -0.000148657839    -0.000205833142
      10       -0.000020945830     0.000157733764     0.000053815537

  **** Optimization is complete! (in 6 steps) ****
    Final optimized geometry and variables:
    Molecular point group: c1

    Geometry (in Angstrom), charge = 0, multiplicity = 1:

    H            2.822410826717    -0.435013095094    -0.009409796942
    C            1.884923825303    -0.031548596642    -0.369093233923
    C            0.767763395874    -0.498452411468     0.547851138657
    H            1.727419110991    -0.384982744935    -1.379810382870
    H            1.950547126576     1.046442779660    -0.377002350012
    N           -0.539899327952     0.032526854712     0.070372030738
    H            0.666493206520    -1.569244766911     0.561305091555
    H            0.888765565608    -0.113758572627     1.547968041821
    O           -0.720397631926     1.198499464913     0.186155712375
    O           -1.304662746655    -0.737572331543    -0.403490701609

  Mulliken Charges: (a.u.)
   Center  Symbol    Alpha    Beta     Spin     Total
       1     H     0.44819  0.44819  0.00000  0.10362
       2     C     3.14115  3.14115  0.00000 -0.28230
       3     C     3.03763  3.03763  0.00000 -0.07525
       4     H     0.44370  0.44370  0.00000  0.11261
       5     H     0.43793  0.43793  0.00000  0.12414
       6     N     3.27735  3.27735  0.00000  0.44530
       7     H     0.43315  0.43315  0.00000  0.13369
       8     H     0.43655  0.43655  0.00000  0.12690
       9     O     4.17490  4.17490  0.00000 -0.34980
      10     O     4.16946  4.16946  0.00000 -0.33892

   Total alpha = 20.00000, Total beta = 20.00000, Total charge = -0.00000

*** Psi4 exiting successfully. Buy a developer a beer!
