  ==> Input File <==

--------------------------------------------------------------------------
set {
	reference rhf
	basis 6-31G*
}

set_num_threads( 4 )
memory 2 gb

molecule MOL {
0 1

H	 3.664244	 0.365732	 0.839899
O	 2.757858	 0.199199	 1.079664
C	 2.077727	 -0.067559	 -0.035091
C	 0.624473	 -0.343591	 0.253101
O	 2.595655	 -0.075525	 -1.104064
C	 -0.265902	 0.883932	 0.072916
H	 0.324016	 -1.163849	 -0.390541
H	 0.565024	 -0.726111	 1.268924
C	 -1.728698	 0.646073	 0.462102
H	 -0.209144	 1.219470	 -0.958188
H	 0.135059	 1.692851	 0.673903
C	 -2.482460	 -0.343073	 -0.431425
H	 -2.245265	 1.602650	 0.432430
H	 -1.779332	 0.308348	 1.496285
C	 -3.960546	 -0.461025	 -0.060175
H	 -2.395034	 -0.026811	 -1.468912
H	 -2.024850	 -1.327147	 -0.371646
H	 -4.472726	 -1.168004	 -0.705284
H	 -4.465146	 0.496508	 -0.151489
H	 -4.081218	 -0.800940	 0.964585

	symmetry c1
}
set optking {
	frozen_dihedral = ("
		5 3 4 7
	")
}

ee = optimize('scf')
oeprop('DIPOLE', 'QUADRUPOLE', 'MULLIKEN_CHARGES')
f=open( 'psi4out.xyz', 'w' )
f.write( "20  " )
f.write( str(ee) + "\n" )
f.write( MOL.save_string_xyz() )
f.close()
--------------------------------------------------------------------------

    Molecular point group: c1
  Charge       = 0
  Multiplicity = 1
  Basis Set: 6-31G*
  Basis Set:
  @DF-RHF Final Energy:  -383.94628762978181
    Total Energy =                       -383.9462876297816365
    Molecular point group: c1
  Basis Set: 6-31G*
  Basis Set:
  Basis Set: 6-31G*
  Basis Set:
  @DF-RHF Final Energy:  -383.94612977600406
    Total Energy =                       -383.9461297760041703
  Basis Set: 6-31G*
  Basis Set:
  Basis Set: 6-31G*
  Basis Set:
  @DF-RHF Final Energy:  -383.94680012075673
    Total Energy =                       -383.9468001207564498
  Basis Set: 6-31G*
  Basis Set:
  Basis Set: 6-31G*
  Basis Set:
  @DF-RHF Final Energy:  -383.94708343146215
    Total Energy =                       -383.9470834314618060
  Basis Set: 6-31G*
  Basis Set:
  Basis Set: 6-31G*
  Basis Set:
  @DF-RHF Final Energy:  -383.94706817337669
    Total Energy =                       -383.9470681733767492
  Basis Set: 6-31G*
  Basis Set:
  Basis Set: 6-31G*
  Basis Set:
  @DF-RHF Final Energy:  -383.94708605633878
    Total Energy =                       -383.9470860563386054
  Basis Set: 6-31G*
  Basis Set:
  Charge       = 0
  Multiplicity = 1
  Basis Set: 6-31G*
  Basis Set:

    Orbital Energies (a.u.)
    -----------------------

    Doubly Occupied:

       1A    -20.613563     2A    -20.548025     3A    -11.379479
       4A    -11.238004     5A    -11.233073     6A    -11.224228
       7A    -11.221662     8A    -11.213507     9A     -1.473746
      10A     -1.363645    11A     -1.099229    12A     -1.041927
      13A     -0.960874    14A     -0.865887    15A     -0.821849
      16A     -0.786533    17A     -0.701084    18A     -0.687184
      19A     -0.647957    20A     -0.629717    21A     -0.621298
      22A     -0.592987    23A     -0.577888    24A     -0.555805
      25A     -0.540037    26A     -0.520437    27A     -0.497471
      28A     -0.484212    29A     -0.472600    30A     -0.469479
      31A     -0.458615    32A     -0.436162

  @DF-RHF Final Energy:  -383.94708627002041

   => Energetics <=

    Nuclear Repulsion Energy =            376.4764857967747389
    One-Electron Energy =               -1268.8908133067234303
    Two-Electron Energy =                 508.4672412399281711
    DFT Exchange-Correlation Energy =       0.0000000000000000
    Empirical Dispersion Energy =           0.0000000000000000
    PCM Polarization Energy =               0.0000000000000000
    EFP Energy =                            0.0000000000000000
    Total Energy =                       -383.9470862700204634
    Molecular point group: c1
  Basis Set: 6-31G*
  Basis Set:

  -Total Gradient:
     Atom            X                  Y                   Z
    ------   -----------------  -----------------  -----------------
       1        0.000005155528    -0.000001004760     0.000002563856
       2       -0.000018349121     0.000000659409    -0.000010843441
       3        0.000145186276    -0.000665084761     0.000075236608
       4       -0.000187616968     0.000516404709    -0.000324434455
       5       -0.000092110383     0.000419200810    -0.000016816959
       6        0.000001878908     0.000029659865    -0.000002129846
       7        0.000120726301    -0.000279531125     0.000275013534
       8        0.000002338254    -0.000003855068    -0.000008329548
       9       -0.000009408623    -0.000001780523    -0.000010256938
      10        0.000011167084     0.000001905404     0.000002538023
      11        0.000001795712    -0.000009298714     0.000001053109
      12        0.000015389614    -0.000012028188     0.000016783526
      13       -0.000011484618    -0.000004655239    -0.000000892767
      14        0.000005344458     0.000001998597    -0.000000874972
      15       -0.000003000390     0.000012095577    -0.000003682229
      16        0.000008177884    -0.000003467310     0.000007189172
      17        0.000005961427    -0.000005301769     0.000000006268
      18        0.000000936536     0.000004216616    -0.000003189592
      19       -0.000003432194     0.000002420811     0.000003728110
      20        0.000001344309    -0.000002554340    -0.000002661456

  **** Optimization is complete! (in 7 steps) ****
    Final optimized geometry and variables:
    Molecular point group: c1

    Geometry (in Angstrom), charge = 0, multiplicity = 1:

    H            3.674570125947     0.376972644856     0.728201938336
    O            2.794002808645     0.151500140244     1.012786258958
    C            2.068562601454    -0.123568786622    -0.069610053652
    C            0.633101971477    -0.443364480065     0.255268997446
    O            2.525416923671    -0.075969285081    -1.165999106761
    C           -0.246485564786     0.804351550885     0.065427200772
    H            0.323919222674    -1.236193072850    -0.412929562054
    H            0.563410370931    -0.799933446823     1.275851022704
    C           -1.716930888405     0.584131226583     0.434534605779
    H           -0.169995010799     1.133824942083    -0.966524194682
    H            0.151404823029     1.606177863272     0.681628858045
    C           -2.464670557859    -0.404579649509    -0.463910826752
    H           -2.222260175147     1.546203369839     0.389498537917
    H           -1.783788084113     0.255336835000     1.470158326135
    C           -3.950348054780    -0.501763837994    -0.117658130473
    H           -2.354512491688    -0.099525056026    -1.502334125308
    H           -2.019177069038    -1.392602021560    -0.386169213728
    H           -4.458461235591    -1.209310309177    -0.765168806898
    H           -4.442556554362     0.460285022779    -0.227472881176
    H           -4.093271545893    -0.830338899983     0.907932304255

  Mulliken Charges: (a.u.)
   Center  Symbol    Alpha    Beta     Spin     Total
       1     H     0.26819  0.26819  0.00000  0.46361
       2     O     4.34725  4.34725  0.00000 -0.69450
       3     C     2.63202  2.63202  0.00000  0.73597
       4     C     3.20025  3.20025  0.00000 -0.40051
       5     O     4.27981  4.27981  0.00000 -0.55962
       6     C     3.16749  3.16749  0.00000 -0.33498
       7     H     0.39700  0.39700  0.00000  0.20600
       8     H     0.40197  0.40197  0.00000  0.19605
       9     C     3.15354  3.15354  0.00000 -0.30707
      10     H     0.40676  0.40676  0.00000  0.18648
      11     H     0.41088  0.41088  0.00000  0.17824
      12     C     3.15512  3.15512  0.00000 -0.31024
      13     H     0.41780  0.41780  0.00000  0.16439
      14     H     0.42154  0.42154  0.00000  0.15692
      15     C     3.23964  3.23964  0.00000 -0.47928
      16     H     0.41985  0.41985  0.00000  0.16029
      17     H     0.42138  0.42138  0.00000  0.15724
      18     H     0.41758  0.41758  0.00000  0.16485
      19     H     0.42074  0.42074  0.00000  0.15852
      20     H     0.42118  0.42118  0.00000  0.15763

   Total alpha = 32.00000, Total beta = 32.00000, Total charge =  0.00000
