  ==> Input File <==

--------------------------------------------------------------------------
set {
	reference rhf
	basis 6-31G*
}

set_num_threads( 1 )
memory 2 gb

molecule MOL {
0 1

O	 3.225979	 0.970355	 -0.599647
C	 2.701189	 0.057885	 -0.047330
C	 1.245376	 -0.013843	 0.345420
O	 3.347903	 -1.046386	 0.304773
C	 0.455112	 1.231400	 -0.050772
H	 0.838542	 -0.913825	 -0.103701
H	 1.208210	 -0.175333	 1.419774
C	 -0.998893	 1.219485	 0.433193
H	 0.482531	 1.345121	 -1.130325
H	 0.957290	 2.103070	 0.354729
C	 -1.187239	 0.826343	 1.901210
H	 -1.554764	 0.520672	 -0.187607
H	 -1.446346	 2.197310	 0.260990
C	 -2.659327	 0.722416	 2.305138
H	 -0.696719	 -0.129030	 2.081407
H	 -0.695754	 1.549004	 2.548648
C	 -2.859626	 0.335235	 3.771460
H	 -3.155828	 -0.009322	 1.670094
H	 -3.152927	 1.674236	 2.115147
C	 -4.332428	 0.229858	 4.165733
H	 -2.366145	 -0.615197	 3.963289
H	 -2.367740	 1.067860	 4.407925
H	 -4.441738	 -0.045816	 5.210081
H	 -4.844919	 -0.520492	 3.570314
H	 -4.846565	 1.175395	 4.017759
C	 4.728119	 -1.109107	 -0.004993
H	 4.882018	 -1.033965	 -1.071845
H	 5.068212	 -2.067527	 0.355250
H	 5.265056	 -0.311663	 0.488280

	symmetry c1
}
set optking {
	frozen_dihedral = ("
		21 17 14 11,
		17 14 11 15,
		15 11 8 5,
		6 3 5 9,
		2 4 26 27,
		1 2 4 26,
		6 3 2 1
	")
}

ee = energy('scf')
oeprop('DIPOLE', 'QUADRUPOLE', 'MULLIKEN_CHARGES')
f=open( 'psi4out.xyz', 'w' )
f.write( "29  " )
f.write( str(ee) + "\n" )
f.write( MOL.save_string_xyz() )
f.close()
--------------------------------------------------------------------------

    Molecular point group: c1

    Geometry (in Angstrom), charge = 0, multiplicity = 1:

       Center              X                  Y                   Z               Mass
    ------------   -----------------  -----------------  -----------------  -----------------
           O          2.850950876622     0.675434874229    -1.733626507337    15.994914619560
           C          2.326160876622    -0.237035125771    -1.181309507337    12.000000000000
           C          0.870347876622    -0.308763125771    -0.788559507337    12.000000000000
           O          2.972874876622    -1.341306125771    -0.829206507337    15.994914619560
           C          0.080083876622     0.936479874229    -1.184751507337    12.000000000000
           H          0.463513876622    -1.208745125771    -1.237680507337     1.007825032070
           H          0.833181876622    -0.470253125771     0.285794492663     1.007825032070
           C         -1.373921123378     0.924564874229    -0.700786507337    12.000000000000
           H          0.107502876622     1.050200874229    -2.264304507337     1.007825032070
           H          0.582261876622     1.808149874229    -0.779250507337     1.007825032070
           C         -1.562267123378     0.531422874229     0.767230492663    12.000000000000
           H         -1.929792123378     0.225751874229    -1.321586507337     1.007825032070
           H         -1.821374123378     1.902389874229    -0.872989507337     1.007825032070
           C         -3.034355123378     0.427495874229     1.171158492663    12.000000000000
           H         -1.071747123378    -0.423950125771     0.947427492663     1.007825032070
           H         -1.070782123378     1.254083874229     1.414668492663     1.007825032070
           C         -3.234654123378     0.040314874229     2.637480492663    12.000000000000
           H         -3.530856123378    -0.304242125771     0.536114492663     1.007825032070
           H         -3.527955123378     1.379315874229     0.981167492663     1.007825032070
           C         -4.707456123378    -0.065062125771     3.031753492663    12.000000000000
           H         -2.741173123378    -0.910117125771     2.829309492663     1.007825032070
           H         -2.742768123378     0.772939874229     3.273945492663     1.007825032070
           H         -4.816766123378    -0.340736125771     4.076101492663     1.007825032070
           H         -5.219947123378    -0.815412125771     2.436334492663     1.007825032070
           H         -5.221593123378     0.880474874229     2.883779492663     1.007825032070
           C          4.353090876622    -1.404027125771    -1.138972507337    12.000000000000
           H          4.506989876622    -1.328885125771    -2.205824507337     1.007825032070
           H          4.693183876622    -2.362447125771    -0.778729507337     1.007825032070
           H          4.890027876622    -0.606583125771    -0.645699507337     1.007825032070

  Charge       = 0
  Multiplicity = 1
  Basis Set: 6-31G*
  Basis Set:

    Orbital Energies (a.u.)
    -----------------------

    Doubly Occupied:

       1A    -20.603279     2A    -20.544906     3A    -11.371794
       4A    -11.280601     5A    -11.234367     6A    -11.218973
       7A    -11.217581     8A    -11.216277     9A    -11.216141
      10A    -11.214726    11A    -11.209294    12A     -1.468909
      13A     -1.362300    14A     -1.099322    15A     -1.066584
      16A     -1.018934    17A     -0.976963    18A     -0.929004
      19A     -0.863735    20A     -0.798989    21A     -0.791398
      22A     -0.761579    23A     -0.701622    24A     -0.682306
      25A     -0.671689    26A     -0.651291    27A     -0.630313
      28A     -0.605621    29A     -0.594413    30A     -0.579599
      31A     -0.567704    32A     -0.550698    33A     -0.531214
      34A     -0.530767    35A     -0.518006    36A     -0.511778
      37A     -0.496456    38A     -0.478536    39A     -0.468824
      40A     -0.461791    41A     -0.458046    42A     -0.454448
      43A     -0.440981    44A     -0.436241

  @DF-RHF Final Energy:  -501.04109599037020

   => Energetics <=

    Nuclear Repulsion Energy =            614.0084555358398575
    One-Electron Energy =               -1899.1231449575238912
    Two-Electron Energy =                 784.0735934313131565
    DFT Exchange-Correlation Energy =       0.0000000000000000
    Empirical Dispersion Energy =           0.0000000000000000
    PCM Polarization Energy =               0.0000000000000000
    EFP Energy =                            0.0000000000000000
    Total Energy =                       -501.0410959903708772

  Mulliken Charges: (a.u.)
   Center  Symbol    Alpha    Beta     Spin     Total
       1     O     4.28596  4.28596  0.00000 -0.57193
       2     C     2.60369  2.60369  0.00000  0.79263
       3     C     3.21346  3.21346  0.00000 -0.42692
       4     O     4.30750  4.30750  0.00000 -0.61499
       5     C     3.15283  3.15283  0.00000 -0.30566
       6     H     0.40108  0.40108  0.00000  0.19784
       7     H     0.39767  0.39767  0.00000  0.20467
       8     C     3.15501  3.15501  0.00000 -0.31003
       9     H     0.41069  0.41069  0.00000  0.17861
      10     H     0.41128  0.41128  0.00000  0.17743
      11     C     3.15881  3.15881  0.00000 -0.31762
      12     H     0.42398  0.42398  0.00000  0.15203
      13     H     0.41763  0.41763  0.00000  0.16474
      14     C     3.14948  3.14948  0.00000 -0.29897
      15     H     0.42249  0.42249  0.00000  0.15501
      16     H     0.42236  0.42236  0.00000  0.15528
      17     C     3.15153  3.15153  0.00000 -0.30307
      18     H     0.42381  0.42381  0.00000  0.15237
      19     H     0.42344  0.42344  0.00000  0.15313
      20     C     3.23935  3.23935  0.00000 -0.47870
      21     H     0.42338  0.42338  0.00000  0.15324
      22     H     0.42294  0.42294  0.00000  0.15411
      23     H     0.41920  0.41920  0.00000  0.16161
      24     H     0.42177  0.42177  0.00000  0.15646
      25     H     0.42152  0.42152  0.00000  0.15696
      26     C     3.09236  3.09236  0.00000 -0.18472
      27     H     0.40909  0.40909  0.00000  0.18182
      28     H     0.40855  0.40855  0.00000  0.18290
      29     H     0.40913  0.40913  0.00000  0.18175

   Total alpha = 44.00000, Total beta = 44.00000, Total charge = -0.00000
