  ==> Input File <==

--------------------------------------------------------------------------
set {
	reference rhf
	basis cc-pvtz
}

set_num_threads( 4 )
memory 2 gb

molecule MOL {
0 1

O	 -1.323000	 1.071000	 -0.790000
C	 -1.253000	 0.084000	 -0.130000
C	 -2.436000	 -0.653000	 0.437000
O	 -0.115000	 -0.509000	 0.199000
H	 -2.438000	 -1.676000	 0.077000
H	 -3.348000	 -0.155000	 0.145000
H	 -2.361000	 -0.687000	 1.518000
C	 1.123000	 0.052000	 -0.261000
C	 2.113000	 -1.098000	 -0.301000
C	 1.553000	 1.176000	 0.669000
H	 0.961000	 0.442000	 -1.255000
H	 1.762000	 -1.882000	 -0.961000
H	 3.075000	 -0.750000	 -0.664000
H	 2.252000	 -1.520000	 0.688000
H	 2.501000	 1.591000	 0.339000
H	 0.820000	 1.973000	 0.674000
H	 1.676000	 0.805000	 1.681000

	symmetry c1
}
ee = optimize('scf')
oeprop('DIPOLE', 'QUADRUPOLE', 'MULLIKEN_CHARGES')
f=open( 'psi4out.xyz', 'w' )
f.write( "17  " )
f.write( str(ee) + "\n" )
f.write( MOL.save_string_xyz() )
f.close()
--------------------------------------------------------------------------

    Molecular point group: c1
  Charge       = 0
  Multiplicity = 1
  Basis Set: CC-PVTZ
  Basis Set:
  @DF-RHF Final Energy:  -345.04326889044285
    Total Energy =                       -345.0432688904423344
    Molecular point group: c1
  Basis Set: CC-PVTZ
  Basis Set:
  Basis Set: CC-PVTZ
  Basis Set:
  @DF-RHF Final Energy:  -345.04338719224296
    Total Energy =                       -345.0433871922434150
  Basis Set: CC-PVTZ
  Basis Set:
  Basis Set: CC-PVTZ
  Basis Set:
  @DF-RHF Final Energy:  -345.04331822173071
    Total Energy =                       -345.0433182217307149
  Basis Set: CC-PVTZ
  Basis Set:
  Basis Set: CC-PVTZ
  Basis Set:
  @DF-RHF Final Energy:  -345.04339324034294
    Total Energy =                       -345.0433932403429935
  Basis Set: CC-PVTZ
  Basis Set:
  Basis Set: CC-PVTZ
  Basis Set:
  @DF-RHF Final Energy:  -345.04339634904557
    Total Energy =                       -345.0433963490454516
  Basis Set: CC-PVTZ
  Basis Set:
  Charge       = 0
  Multiplicity = 1
  Basis Set: CC-PVTZ
  Basis Set:

    Orbital Energies (a.u.)
    -----------------------

    Doubly Occupied:

       1A    -20.591296     2A    -20.531471     3A    -11.366753
       4A    -11.288123     5A    -11.230557     6A    -11.217719
       7A    -11.214057     8A     -1.468514     9A     -1.364478
      10A     -1.079647    11A     -1.005648    12A     -0.948760
      13A     -0.850009    14A     -0.767195    15A     -0.694749
      16A     -0.673070    17A     -0.662053    18A     -0.614180
      19A     -0.587055    20A     -0.579033    21A     -0.564019
      22A     -0.550861    23A     -0.538294    24A     -0.521729
      25A     -0.504051    26A     -0.483143    27A     -0.450431
      28A     -0.439074

  @DF-RHF Final Energy:  -345.04339658494740

   => Energetics <=

    Nuclear Repulsion Energy =            323.6373478599655868
    One-Electron Energy =               -1111.7895580742476795
    Two-Electron Energy =                 443.1088136293346338
    DFT Exchange-Correlation Energy =       0.0000000000000000
    Empirical Dispersion Energy =           0.0000000000000000
    PCM Polarization Energy =               0.0000000000000000
    EFP Energy =                            0.0000000000000000
    Total Energy =                       -345.0433965849475157
    Molecular point group: c1
  Basis Set: CC-PVTZ
  Basis Set:

  -Total Gradient:
     Atom            X                  Y                   Z
    ------   -----------------  -----------------  -----------------
       1        0.000024767726     0.000002220518     0.000005788625
       2        0.000025625934    -0.000015858219     0.000017877387
       3       -0.000005888015    -0.000001077724    -0.000005123182
       4       -0.000047403256    -0.000023110047     0.000005643796
       5        0.000004041409    -0.000000729885    -0.000002829605
       6       -0.000014333608     0.000004990547    -0.000001815171
       7        0.000003780489     0.000004691815     0.000002726129
       8       -0.000004937964     0.000006702010     0.000034578011
       9        0.000006076396     0.000015036356    -0.000002941591
      10       -0.000027151604    -0.000003337334    -0.000036981827
      11        0.000008807604     0.000012627435    -0.000007999964
      12       -0.000006524638     0.000006517054    -0.000000026043
      13        0.000016798305    -0.000001520091    -0.000003353996
      14       -0.000003458733     0.000003115776     0.000000933853
      15        0.000015822157     0.000005444963    -0.000000259589
      16        0.000002631618    -0.000007974566    -0.000005291390
      17        0.000001346178    -0.000007738603    -0.000000925443

  **** Optimization is complete! (in 6 steps) ****
    Final optimized geometry and variables:
    Molecular point group: c1

    Geometry (in Angstrom), charge = 0, multiplicity = 1:

    O           -1.278238529923     1.034789752030    -0.784693118544
    C           -1.204114534235     0.062668334988    -0.112312545346
    C           -2.386397508872    -0.667697601741     0.460323105656
    O           -0.068057896023    -0.518371620272     0.226881627341
    H           -2.382951132151    -1.693171759548     0.114332674123
    H           -3.296655630487    -0.175701562702     0.158400080217
    H           -2.312536783933    -0.685190468803     1.540100065315
    C            1.169086824720     0.037484455760    -0.230612151697
    C            2.157530123386    -1.110438511279    -0.279234323124
    C            1.605169883392     1.157682906481     0.696529910537
    H            1.008808939041     0.431015553418    -1.222848317461
    H            1.807654116708    -1.888631720387    -0.945381289230
    H            3.117382989502    -0.758593592941    -0.637843992777
    H            2.296015287045    -1.540050309665     0.705748711883
    H            2.547996287747     1.571587744240     0.358505284506
    H            0.872666074855     1.952619013140     0.709373218392
    H            1.737991991537     0.785314511717     1.705976915360

  Mulliken Charges: (a.u.)
   Center  Symbol    Alpha    Beta     Spin     Total
       1     O     4.19950  4.19950  0.00000 -0.39901
       2     C     2.80574  2.80574  0.00000  0.38851
       3     C     3.13913  3.13913  0.00000 -0.27826
       4     O     4.16400  4.16400  0.00000 -0.32800
       5     H     0.44593  0.44593  0.00000  0.10813
       6     H     0.43842  0.43842  0.00000  0.12316
       7     H     0.44619  0.44619  0.00000  0.10762
       8     C     2.93094  2.93094  0.00000  0.13811
       9     C     3.13794  3.13794  0.00000 -0.27588
      10     C     3.15395  3.15395  0.00000 -0.30789
      11     H     0.44216  0.44216  0.00000  0.11567
      12     H     0.44705  0.44705  0.00000  0.10590
      13     H     0.45418  0.45418  0.00000  0.09165
      14     H     0.45250  0.45250  0.00000  0.09499
      15     H     0.45007  0.45007  0.00000  0.09986
      16     H     0.43867  0.43867  0.00000  0.12265
      17     H     0.45361  0.45361  0.00000  0.09278

   Total alpha = 28.00000, Total beta = 28.00000, Total charge = -0.00000
