                              Psi4 1.0.54 Driver

  ==> Input File <==

--------------------------------------------------------------------------
set {
	reference rhf
	basis cc-pvtz
}

set_num_threads( 4 )
memory 2 gb

molecule MOL {
0 1

O	 -2.374409	 1.338660	 -0.336961
C	 -2.104891	 0.204655	 -0.107126
C	 -0.881910	 -0.448129	 -0.720509
C	 -2.949910	 -0.638219	 0.818225
C	 -0.174971	 -1.355641	 0.294135
H	 -0.209961	 0.341822	 -1.031270
H	 -1.161816	 -1.022737	 -1.597061
C	 1.071528	 -2.017338	 -0.289734
H	 0.082364	 -0.760044	 1.160894
H	 -0.860877	 -2.126804	 0.636391
C	 1.785043	 -2.980073	 0.661026
H	 1.768288	 -1.246205	 -0.608888
H	 0.789741	 -2.562544	 -1.186367
C	 2.411598	 -2.318625	 1.886095
H	 2.564020	 -3.492621	 0.105332
H	 1.087689	 -3.749250	 0.982581
H	 3.109526	 -1.540706	 1.593986
H	 2.956826	 -3.045482	 2.477006
H	 1.666774	 -1.868707	 2.531146
H	 -3.440322	 -1.417144	 0.243099
H	 -3.694377	 -0.025850	 1.303346
H	 -2.331085	 -1.129829	 1.560495

	symmetry c1
}
set optking {
	frozen_dihedral = ("
		6 3 2 1
	")
}

ee,wfn = optimize('scf', return_wfn=True)
oeprop( wfn, 'DIPOLE', 'QUADRUPOLE', 'MULLIKEN_CHARGES')
f=open( 'psi4out.xyz', 'w' )
f.write( "22  " )
f.write( str(ee) + "\n" )
f.write( MOL.save_string_xyz() )
f.close()
--------------------------------------------------------------------------

    Molecular point group: c1
  Charge       = 0
  Multiplicity = 1
  Basis Set: CC-PVTZ
  Basis Set:
  @DF-RHF Final Energy:  -348.21865356683247
    Total Energy =                       -348.2186535668321312
    Molecular point group: c1
  Basis Set: CC-PVTZ
  Basis Set:
  Basis Set: CC-PVTZ
  Basis Set:
  @DF-RHF Final Energy:  -348.21688386531633
    Total Energy =                       -348.2168838653158218
  Basis Set: CC-PVTZ
  Basis Set:
  Basis Set: CC-PVTZ
  Basis Set:
  @DF-RHF Final Energy:  -348.22149261147428
    Total Energy =                       -348.2214926114743321
  Basis Set: CC-PVTZ
  Basis Set:
  Basis Set: CC-PVTZ
  Basis Set:
  @DF-RHF Final Energy:  -348.22029168053587
    Total Energy =                       -348.2202916805362634
  Basis Set: CC-PVTZ
  Basis Set:
  @DF-RHF Final Energy:  -348.22209047750789
    Total Energy =                       -348.2220904775085728
  @DF-RHF Final Energy:  -348.22200295006525
    Total Energy =                       -348.2220029500652458
  @DF-RHF Final Energy:  -348.22227733893078
    Total Energy =                       -348.2222773389304393
  @DF-RHF Final Energy:  -348.22226322399700
    Total Energy =                       -348.2222632239979703
  Basis Set: CC-PVTZ
  Basis Set:
  @DF-RHF Final Energy:  -348.22229464265359
    Total Energy =                       -348.2222946426533099
  Basis Set: CC-PVTZ
  Basis Set:
  Basis Set: CC-PVTZ
  Basis Set:
  @DF-RHF Final Energy:  -348.22229321196301
    Total Energy =                       -348.2222932119628922
  Basis Set: CC-PVTZ
  Basis Set:
  Basis Set: CC-PVTZ
  Basis Set:
  @DF-RHF Final Energy:  -348.22229691639268
    Total Energy =                       -348.2222969163930202
  Basis Set: CC-PVTZ
  Basis Set:
  Charge       = 0
  Multiplicity = 1
  Basis Set: CC-PVTZ
  Basis Set:

    Orbital Energies (a.u.)
    -----------------------

    Doubly Occupied:

       1A    -20.536220     2A    -11.319697     3A    -11.229197
       4A    -11.228537     5A    -11.226268     6A    -11.222579
       7A    -11.221281     8A    -11.212771     9A     -1.396512
      10A     -1.100167    11A     -1.047021    12A     -0.997519
      13A     -0.941868    14A     -0.863988    15A     -0.789695
      16A     -0.733192    17A     -0.663335    18A     -0.648494
      19A     -0.634886    20A     -0.615717    21A     -0.608460
      22A     -0.584958    23A     -0.558383    24A     -0.543293
      25A     -0.535015    26A     -0.525315    27A     -0.502774
      28A     -0.485744    29A     -0.473570    30A     -0.471020
      31A     -0.465572    32A     -0.398644

  @DF-RHF Final Energy:  -348.22229700041362

   => Energetics <=

    Nuclear Repulsion Energy =            373.2985373218380118
    One-Electron Energy =               -1211.4782821866465383
    Two-Electron Energy =                 489.9574478643949078
    DFT Exchange-Correlation Energy =       0.0000000000000000
    Empirical Dispersion Energy =           0.0000000000000000
    PCM Polarization Energy =               0.0000000000000000
    EFP Energy =                            0.0000000000000000
    Total Energy =                       -348.2222970004136187
    Molecular point group: c1
  Basis Set: CC-PVTZ
  Basis Set:

  -Total Gradient:
     Atom            X                  Y                   Z
    ------   -----------------  -----------------  -----------------
       1       -0.000768601371    -0.000644753869    -0.001153621691
       2        0.001190214885     0.000949306670     0.001887810045
       3       -0.001007808447    -0.000519881259    -0.002115543495
       4        0.000007663953     0.000009162719     0.000005241550
       5        0.000008415341     0.000010610415     0.000003742038
       6        0.000589956751     0.000208975045     0.001374647537
       7       -0.000001280481     0.000001016313    -0.000002216374
       8       -0.000006642013    -0.000002426186    -0.000003854576
       9       -0.000001700422     0.000003481058     0.000008836824
      10       -0.000000333874    -0.000003794214    -0.000001137366
      11       -0.000002769652     0.000001292900    -0.000002802396
      12        0.000002384333     0.000001511867     0.000002031649
      13        0.000002358754    -0.000003702622    -0.000003218926
      14       -0.000002776208     0.000001976918    -0.000000390689
      15        0.000002685604    -0.000000181149    -0.000006839795
      16       -0.000003060906    -0.000005188179     0.000001690012
      17        0.000006202897     0.000003481808    -0.000001857934
      18       -0.000000092944    -0.000004078531     0.000001706811
      19       -0.000006831237     0.000006067269     0.000003768942
      20       -0.000001546016    -0.000009175022    -0.000002327497
      21       -0.000006318709     0.000000785949     0.000001054427
      22       -0.000000120237    -0.000004487901     0.000003280902

  **** Optimization is complete! (in 12 steps) ****
    Final optimized geometry and variables:
    Molecular point group: c1

    Geometry (in Angstrom), charge = 0, multiplicity = 1:

    O           -1.940582789932     2.283294085923    -1.023698029146
    C           -1.705018206044     1.208819307099    -0.574492188833
    C           -0.454696684850     0.456201414292    -0.992338567352
    C           -2.668186876435     0.537173968370     0.377483381569
    C            0.236544533655    -0.365902588974     0.096449812924
    H            0.228623920286     1.190964072084    -1.396965246217
    H           -0.748573324901    -0.196558818788    -1.811717775055
    C            1.518171912087    -1.022581069611    -0.414151242423
    H            0.462719557246     0.279033054298     0.939273067766
    H           -0.431707607624    -1.137172098540     0.466381407153
    C            2.222645864515    -1.924089348502     0.600869057665
    H            2.207589363899    -0.251166917413    -0.747802217531
    H            1.277517770706    -1.614293946412    -1.293112512399
    C            2.790996391825    -1.194933968144     1.815901157831
    H            3.032673314374    -2.438971713506     0.094091109856
    H            1.534514117210    -2.697139787068     0.932761052775
    H            3.477268360145    -0.410562600280     1.513488046991
    H            3.335601811894    -1.880853803518     2.454298094968
    H            2.013679750296    -0.740008748535     2.418075885667
    H           -2.900441236073    -0.467424835526     0.041805799594
    H           -3.572536549922     1.122097463417     0.442029718189
    H           -2.223160415283     0.453483036010     1.362327174944

  Mulliken Charges: (a.u.)
   Center  Symbol    Alpha    Beta     Spin     Total
       1     O     4.17261  4.17261  0.00000 -0.34522
       2     C     2.86008  2.86008  0.00000  0.27984
       3     C     3.09615  3.09615  0.00000 -0.19230
       4     C     3.16555  3.16555  0.00000 -0.33110
       5     C     3.10937  3.10937  0.00000 -0.21875
       6     H     0.43774  0.43774  0.00000  0.12453
       7     H     0.44421  0.44421  0.00000  0.11158
       8     C     3.09731  3.09731  0.00000 -0.19461
       9     H     0.44503  0.44503  0.00000  0.10994
      10     H     0.45015  0.45015  0.00000  0.09971
      11     C     3.09021  3.09021  0.00000 -0.18042
      12     H     0.44943  0.44943  0.00000  0.10115
      13     H     0.44805  0.44805  0.00000  0.10389
      14     C     3.15222  3.15222  0.00000 -0.30443
      15     H     0.44686  0.44686  0.00000  0.10628
      16     H     0.45449  0.45449  0.00000  0.09102
      17     H     0.45337  0.45337  0.00000  0.09326
      18     H     0.44529  0.44529  0.00000  0.10942
      19     H     0.45446  0.45446  0.00000  0.09108
      20     H     0.44828  0.44828  0.00000  0.10344
      21     H     0.43188  0.43188  0.00000  0.13624
      22     H     0.44728  0.44728  0.00000  0.10544

   Total alpha = 32.00000, Total beta = 32.00000, Total charge = -0.00000

*** Psi4 exiting successfully. Buy a developer a beer!
