  ==> Input File <==

--------------------------------------------------------------------------
set {
	reference rhf
	basis 6-31G*
}

set_num_threads( 1 )
memory 2 gb

molecule MOL {
0 1

H	 -3.301617	 0.570527	 0.000000
C	 -2.250981	 0.344174	 0.000000
C	 -1.813665	 -0.976045	 0.000000
C	 -1.315303	 1.358057	 0.000000
H	 -2.528860	 -1.779366	 0.000000
C	 -0.467298	 -1.270142	 0.000000
H	 -1.635074	 2.385107	 0.000000
C	 0.047081	 1.078114	 0.000000
H	 -0.115948	 -2.285222	 0.000000
C	 0.472063	 -0.241155	 0.000000
H	 0.749976	 1.888426	 0.000000
O	 1.765256	 -0.628444	 0.000000
C	 2.731766	 0.179401	 -0.606893
H	 2.535148	 0.306320	 -1.666405
H	 3.674750	 -0.331157	 -0.480708
H	 2.789042	 1.154094	 -0.133581

	symmetry c1
}
set optking {
	frozen_dihedral = ("
		10 12 13 14
	")
}

ee = energy('scf')
oeprop('DIPOLE', 'QUADRUPOLE', 'MULLIKEN_CHARGES')
f=open( 'psi4out.xyz', 'w' )
f.write( "16  " )
f.write( str(ee) + "\n" )
f.write( MOL.save_string_xyz() )
f.close()
--------------------------------------------------------------------------

    Molecular point group: c1

    Geometry (in Angstrom), charge = 0, multiplicity = 1:

       Center              X                  Y                   Z               Mass
    ------------   -----------------  -----------------  -----------------  -----------------
           H         -3.294800742087     0.593287057552     0.088668118221     1.007825032070
           C         -2.244164742087     0.366934057552     0.088668118221    12.000000000000
           C         -1.806848742087    -0.953284942448     0.088668118221    12.000000000000
           C         -1.308486742087     1.380817057552     0.088668118221    12.000000000000
           H         -2.522043742087    -1.756605942448     0.088668118221     1.007825032070
           C         -0.460481742087    -1.247381942448     0.088668118221    12.000000000000
           H         -1.628257742087     2.407867057552     0.088668118221     1.007825032070
           C          0.053897257913     1.100874057552     0.088668118221    12.000000000000
           H         -0.109131742087    -2.262461942448     0.088668118221     1.007825032070
           C          0.478879257913    -0.218394942448     0.088668118221    12.000000000000
           H          0.756792257913     1.911186057552     0.088668118221     1.007825032070
           O          1.772072257913    -0.605683942448     0.088668118221    15.994914619560
           C          2.738582257913     0.202161057552    -0.518224881779    12.000000000000
           H          2.541964257913     0.329080057552    -1.577736881779     1.007825032070
           H          3.681566257913    -0.308396942448    -0.392039881779     1.007825032070
           H          2.795858257913     1.176854057552    -0.044912881779     1.007825032070

  Charge       = 0
  Multiplicity = 1
  Basis Set: 6-31G*
  Basis Set:

    Orbital Energies (a.u.)
    -----------------------

    Doubly Occupied:

       1A    -20.581011     2A    -11.292242     3A    -11.278990
       4A    -11.232902     5A    -11.231238     6A    -11.224448
       7A    -11.220519     8A    -11.219496     9A     -1.411741
      10A     -1.145860    11A     -1.020809    12A     -1.013104
      13A     -0.939787    14A     -0.830756    15A     -0.804944
      16A     -0.719816    17A     -0.665368    18A     -0.662884
      19A     -0.650834    20A     -0.616053    21A     -0.588363
      22A     -0.577951    23A     -0.527545    24A     -0.515004
      25A     -0.507526    26A     -0.478185    27A     -0.453793
      28A     -0.334455    29A     -0.307466

  @DF-RHF Final Energy:  -344.58084613698099

   => Energetics <=

    Nuclear Repulsion Energy =            347.9815195740058016
    One-Electron Energy =               -1157.0181961811181282
    Two-Electron Energy =                 464.4558304701322413
    DFT Exchange-Correlation Energy =       0.0000000000000000
    Empirical Dispersion Energy =           0.0000000000000000
    PCM Polarization Energy =               0.0000000000000000
    EFP Energy =                            0.0000000000000000
    Total Energy =                       -344.5808461369800852

  Mulliken Charges: (a.u.)
   Center  Symbol    Alpha    Beta     Spin     Total
       1     H     0.40088  0.40088  0.00000  0.19824
       2     C     3.11063  3.11063  0.00000 -0.22126
       3     C     3.09302  3.09302  0.00000 -0.18603
       4     C     3.09232  3.09232  0.00000 -0.18464
       5     H     0.39892  0.39892  0.00000  0.20217
       6     C     3.12435  3.12435  0.00000 -0.24870
       7     H     0.39958  0.39958  0.00000  0.20084
       8     C     3.13884  3.13884  0.00000 -0.27768
       9     H     0.39307  0.39307  0.00000  0.21385
      10     C     2.78640  2.78640  0.00000  0.42719
      11     H     0.39758  0.39758  0.00000  0.20483
      12     O     4.32794  4.32794  0.00000 -0.65588
      13     C     3.08758  3.08758  0.00000 -0.17516
      14     H     0.41921  0.41921  0.00000  0.16158
      15     H     0.40677  0.40677  0.00000  0.18646
      16     H     0.42291  0.42291  0.00000  0.15418

   Total alpha = 29.00000, Total beta = 29.00000, Total charge = -0.00000
