  ==> Input File <==

--------------------------------------------------------------------------
set {
	reference rhf
	basis 6-31G*
}

set_num_threads( 4 )
memory 2 gb

molecule MOL {
0 1

H	 -0.367348	 2.047014	 -0.308205
C	 0.352277	 1.337084	 0.083769
N	 -0.000016	 0.000074	 -0.335546
H	 1.328359	 1.600444	 -0.307950
H	 0.381933	 1.450534	 1.172486
C	 -0.470285	 -0.805547	 0.768126
C	 -0.936887	 0.008290	 -1.435710
H	 -0.656509	 -1.818828	 0.430582
H	 0.286946	 -0.845754	 1.543011
H	 -1.393198	 -0.422092	 1.215425
H	 -0.520312	 0.561954	 -2.269554
H	 -1.122339	 -1.006732	 -1.768541
H	 -1.899249	 0.461029	 -1.175301

	symmetry c1
}
set optking {
	frozen_dihedral = ("
		6 3 2 1
	")
}

ee = optimize('scf')
oeprop('DIPOLE', 'QUADRUPOLE', 'MULLIKEN_CHARGES')
f=open( 'psi4out.xyz', 'w' )
f.write( "13  " )
f.write( str(ee) + "\n" )
f.write( MOL.save_string_xyz() )
f.close()
--------------------------------------------------------------------------

    Molecular point group: c1
  Charge       = 0
  Multiplicity = 1
  Basis Set: 6-31G*
  Basis Set:
  @DF-RHF Final Energy:  -173.26231537983637
    Total Energy =                       -173.2623153798363091
    Molecular point group: c1
  Basis Set: 6-31G*
  Basis Set:
  Basis Set: 6-31G*
  Basis Set:
  @DF-RHF Final Energy:  -173.26324606213646
    Total Energy =                       -173.2632460621364316
  Basis Set: 6-31G*
  Basis Set:
  Basis Set: 6-31G*
  Basis Set:
  @DF-RHF Final Energy:  -173.26343183281026
    Total Energy =                       -173.2634318328102836
  Basis Set: 6-31G*
  Basis Set:
  Basis Set: 6-31G*
  Basis Set:
  @DF-RHF Final Energy:  -173.26344829545724
    Total Energy =                       -173.2634482954572377
  Basis Set: 6-31G*
  Basis Set:
  Charge       = 0
  Multiplicity = 1
  Basis Set: 6-31G*
  Basis Set:

    Orbital Energies (a.u.)
    -----------------------

    Doubly Occupied:

       1A    -15.538664     2A    -11.235664     3A    -11.235457
       4A    -11.235410     5A     -1.219257     6A     -0.952047
       7A     -0.951082     8A     -0.805234     9A     -0.636265
      10A     -0.629482    11A     -0.627913    12A     -0.548488
      13A     -0.544600    14A     -0.515895    15A     -0.502604
      16A     -0.501179    17A     -0.336150

  @DF-RHF Final Energy:  -173.26344984179727

   => Energetics <=

    Nuclear Repulsion Energy =            138.7320248025726812
    One-Electron Energy =                -507.9601680483001473
    Two-Electron Energy =                 195.9646934039302266
    DFT Exchange-Correlation Energy =       0.0000000000000000
    Empirical Dispersion Energy =           0.0000000000000000
    PCM Polarization Energy =               0.0000000000000000
    EFP Energy =                            0.0000000000000000
    Total Energy =                       -173.2634498417972111
    Molecular point group: c1
  Basis Set: 6-31G*
  Basis Set:

  -Total Gradient:
     Atom            X                  Y                   Z
    ------   -----------------  -----------------  -----------------
       1        0.002051363564     0.000363854902    -0.003385501141
       2       -0.001452284246    -0.000800893144     0.004545465415
       3       -0.003454652746     0.001388120002    -0.001533920748
       4       -0.000028776450    -0.000006680370    -0.000017382159
       5        0.000003130066    -0.000024713604     0.000000971822
       6        0.002878497053    -0.000930047350     0.000418689317
       7        0.000036993846     0.000036736746    -0.000026051949
       8       -0.000003987587     0.000004031384     0.000004747580
       9       -0.000004185707    -0.000019665003     0.000030107880
      10        0.000002732480    -0.000005003017    -0.000011777869
      11       -0.000024776711    -0.000003874621    -0.000023577828
      12       -0.000008404376     0.000001349444    -0.000009815766
      13        0.000004350814    -0.000003215368     0.000008045447

  **** Optimization is complete! (in 5 steps) ****
    Final optimized geometry and variables:
    Molecular point group: c1

    Geometry (in Angstrom), charge = 0, multiplicity = 1:

    H           -0.051841090807     1.969641871273    -0.043450574373
    C            0.650894195835     1.209994945163     0.297496685237
    N            0.245336424378    -0.129256662682    -0.092750090367
    H            1.615860581583     1.458077541119    -0.137087679320
    H            0.742325906965     1.291599733691     1.373671677405
    C           -0.191638829220    -0.963818782343     1.000414960893
    C           -0.643565166811    -0.149197467448    -1.227192642226
    H           -0.357732639991    -1.973885764714     0.642443707665
    H            0.578302001139    -1.006986662932     1.761840708638
    H           -1.117907561170    -0.619605744100     1.472865161614
    H           -0.200787143125     0.399891274583    -2.051029121293
    H           -0.799501572906    -1.170294354964    -1.557133755010
    H           -1.622963479917     0.292790740106    -1.015456946513

  Mulliken Charges: (a.u.)
   Center  Symbol    Alpha    Beta     Spin     Total
       1     H     0.42752  0.42752  0.00000  0.14496
       2     C     3.14236  3.14236  0.00000 -0.28471
       3     N     3.77262  3.77262  0.00000 -0.54524
       4     H     0.41680  0.41680  0.00000  0.16639
       5     H     0.41978  0.41978  0.00000  0.16043
       6     C     3.13919  3.13919  0.00000 -0.27839
       7     C     3.14008  3.14008  0.00000 -0.28016
       8     H     0.41839  0.41839  0.00000  0.16321
       9     H     0.41689  0.41689  0.00000  0.16622
      10     H     0.43599  0.43599  0.00000  0.12803
      11     H     0.41684  0.41684  0.00000  0.16631
      12     H     0.41803  0.41803  0.00000  0.16393
      13     H     0.43550  0.43550  0.00000  0.12900

   Total alpha = 17.00000, Total beta = 17.00000, Total charge = -0.00000
