                              Psi4 1.0.54 Driver

  ==> Input File <==

--------------------------------------------------------------------------
set {
	reference rhf
	basis cc-pvtz
}

set_num_threads( 4 )
memory 2 gb

molecule MOL {
0 1

H	 -2.665973	 0.580099	 -1.391356
O	 -3.458596	 0.315260	 -0.960865
C	 -3.176635	 -0.080824	 0.355601
C	 -1.763371	 0.265266	 0.799691
H	 -3.321825	 -1.153438	 0.379502
H	 -3.895468	 0.357385	 1.043382
C	 -0.673390	 -0.426948	 -0.013392
H	 -1.631049	 1.344913	 0.747560
H	 -1.664587	 -0.001624	 1.849167
C	 0.737842	 -0.043159	 0.423759
H	 -0.806103	 -0.190518	 -1.063345
H	 -0.797221	 -1.503753	 0.074146
C	 1.824000	 -0.743224	 -0.390623
H	 0.850588	 1.033777	 0.343840
H	 0.868587	 -0.286314	 1.476203
C	 3.255957	 -0.453067	 0.062319
H	 1.718250	 -0.470599	 -1.438164
H	 1.658105	 -1.815850	 -0.339904
C	 3.707029	 0.992337	 -0.133857
H	 3.928201	 -1.104096	 -0.488158
H	 3.362667	 -0.724561	 1.109374
H	 3.605811	 1.294044	 -1.171549
H	 4.748333	 1.111029	 0.143343
H	 3.129882	 1.683078	 0.468956

	symmetry c1
}
set optking {
	frozen_dihedral = ("
		1 2 3 5
	")
}

ee,wfn = optimize('scf', return_wfn=True)
oeprop( wfn, 'DIPOLE', 'QUADRUPOLE', 'MULLIKEN_CHARGES')
f=open( 'psi4out.xyz', 'w' )
f.write( "24  " )
f.write( str(ee) + "\n" )
f.write( MOL.save_string_xyz() )
f.close()
--------------------------------------------------------------------------

    Molecular point group: c1
  Charge       = 0
  Multiplicity = 1
  Basis Set: CC-PVTZ
  Basis Set:
  @DF-RHF Final Energy:  -349.37662998174250
    Total Energy =                       -349.3766299817424397
    Molecular point group: c1
  Basis Set: CC-PVTZ
  Basis Set:
  Basis Set: CC-PVTZ
  Basis Set:
  @DF-RHF Final Energy:  -349.37724379259510
    Total Energy =                       -349.3772437925952090
  Basis Set: CC-PVTZ
  Basis Set:
  Basis Set: CC-PVTZ
  Basis Set:
  @DF-RHF Final Energy:  -349.37769155995147
    Total Energy =                       -349.3776915599518134
  Basis Set: CC-PVTZ
  Basis Set:
  Basis Set: CC-PVTZ
  Basis Set:
  @DF-RHF Final Energy:  -349.37769929763755
    Total Energy =                       -349.3776992976378892
  Basis Set: CC-PVTZ
  Basis Set:
  Basis Set: CC-PVTZ
  Basis Set:
  @DF-RHF Final Energy:  -349.37770456603994
    Total Energy =                       -349.3777045660397107
  Basis Set: CC-PVTZ
  Basis Set:
  Charge       = 0
  Multiplicity = 1
  Basis Set: CC-PVTZ
  Basis Set:

    Orbital Energies (a.u.)
    -----------------------

    Doubly Occupied:

       1A    -20.542009     2A    -11.264122     3A    -11.221766
       4A    -11.220939     5A    -11.217196     6A    -11.216458
       7A    -11.215362     8A    -11.208878     9A     -1.360541
      10A     -1.096713    11A     -1.054199    12A     -0.990786
      13A     -0.921617    14A     -0.857337    15A     -0.805304
      16A     -0.782808    17A     -0.671228    18A     -0.660416
      19A     -0.632851    20A     -0.625460    21A     -0.607726
      22A     -0.591307    23A     -0.562171    24A     -0.539934
      25A     -0.528784    26A     -0.514836    27A     -0.496493
      28A     -0.483152    29A     -0.479095    30A     -0.465388
      31A     -0.458851    32A     -0.440712    33A     -0.430905

  @DF-RHF Final Energy:  -349.37770480725618

   => Energetics <=

    Nuclear Repulsion Energy =            384.9133505708750249
    One-Electron Energy =               -1236.2514239471852306
    Two-Electron Energy =                 501.9603685690540829
    DFT Exchange-Correlation Energy =       0.0000000000000000
    Empirical Dispersion Energy =           0.0000000000000000
    PCM Polarization Energy =               0.0000000000000000
    EFP Energy =                            0.0000000000000000
    Total Energy =                       -349.3777048072560660
    Molecular point group: c1
  Basis Set: CC-PVTZ
  Basis Set:

  -Total Gradient:
     Atom            X                  Y                   Z
    ------   -----------------  -----------------  -----------------
       1       -0.000089610714     0.000865229403     0.000326028253
       2       -0.000067415471    -0.001078379248    -0.000280555283
       3        0.000917817144     0.000071313022    -0.000227945211
       4       -0.000018239669     0.000009021926    -0.000016177422
       5       -0.000756049576     0.000131122389     0.000206918376
       6       -0.000002411586     0.000002650978    -0.000018522478
       7       -0.000007091539    -0.000003721605     0.000008862745
       8        0.000011406380     0.000003252449     0.000005980477
       9        0.000006411219    -0.000002365308    -0.000002165893
      10       -0.000000577777    -0.000007824222    -0.000000690398
      11       -0.000002284790     0.000001032129     0.000000916945
      12       -0.000001060028    -0.000003915289     0.000003385027
      13        0.000004427082     0.000019989884    -0.000012320645
      14       -0.000010831974    -0.000013990819    -0.000002612205
      15        0.000001972536    -0.000000451745     0.000004213104
      16       -0.000007478489     0.000005040691     0.000014993450
      17       -0.000001157011     0.000004630871    -0.000001775022
      18        0.000003530976     0.000002842245    -0.000003517701
      19        0.000007923609    -0.000000051613    -0.000004643117
      20       -0.000000345599    -0.000004170134     0.000003907569
      21       -0.000002873894     0.000005003338     0.000003555014
      22       -0.000002655711     0.000003734073    -0.000002459298
      23        0.000002016153    -0.000002239140    -0.000004281289
      24        0.000014578725    -0.000007754276    -0.000001094996

  **** Optimization is complete! (in 6 steps) ****
    Final optimized geometry and variables:
    Molecular point group: c1

    Geometry (in Angstrom), charge = 0, multiplicity = 1:

    H           -2.758387859573     0.639853711992    -1.448571098306
    O           -3.523095377470     0.378438592963    -0.972537133856
    C           -3.183632137162    -0.045632934153     0.323387340174
    C           -1.766585899710     0.312186981534     0.742931287179
    H           -3.330207487050    -1.120348280985     0.391895109840
    H           -3.886962062550     0.417041881846     1.005511328952
    C           -0.671728680624    -0.411890662363    -0.039752845628
    H           -1.635543664053     1.388330040369     0.656181658432
    H           -1.663311073760     0.074567847714     1.797753459884
    C            0.736173538641    -0.043635034067     0.422020823414
    H           -0.757981028585    -0.194365497552    -1.101949520364
    H           -0.816507861167    -1.484493534423     0.058071169375
    C            1.829664519891    -0.768992022234    -0.359734853169
    H            0.865759113646     1.030451664053     0.334138489862
    H            0.837264924779    -0.277851688443     1.479279972820
    C            3.254552473919    -0.496641409945     0.125520117343
    H            1.754530420004    -0.504759592495    -1.412234470443
    H            1.645434258017    -1.838276008055    -0.302960204670
    C            3.733309656719     0.939392190526    -0.073619411974
    H            3.929043691273    -1.163899603912    -0.402046650775
    H            3.331110716254    -0.759548682967     1.177289694241
    H            3.660563194357     1.233012549252    -1.116001067467
    H            4.769864574356     1.043498412726     0.225825814182
    H            3.154695418090     1.645243309660     0.509942301511

  Mulliken Charges: (a.u.)
   Center  Symbol    Alpha    Beta     Spin     Total
       1     H     0.39082  0.39082  0.00000  0.21836
       2     O     4.20938  4.20938  0.00000 -0.41877
       3     C     2.95535  2.95535  0.00000  0.08930
       4     C     3.11076  3.11076  0.00000 -0.22152
       5     H     0.47506  0.47506  0.00000  0.04988
       6     H     0.46063  0.46063  0.00000  0.07873
       7     C     3.09175  3.09175  0.00000 -0.18350
       8     H     0.44937  0.44937  0.00000  0.10125
       9     H     0.45199  0.45199  0.00000  0.09602
      10     C     3.09181  3.09181  0.00000 -0.18362
      11     H     0.45959  0.45959  0.00000  0.08082
      12     H     0.45029  0.45029  0.00000  0.09943
      13     C     3.09527  3.09527  0.00000 -0.19055
      14     H     0.45182  0.45182  0.00000  0.09635
      15     H     0.45327  0.45327  0.00000  0.09346
      16     C     3.09054  3.09054  0.00000 -0.18108
      17     H     0.45387  0.45387  0.00000  0.09227
      18     H     0.44887  0.44887  0.00000  0.10226
      19     C     3.15262  3.15262  0.00000 -0.30524
      20     H     0.44794  0.44794  0.00000  0.10413
      21     H     0.45445  0.45445  0.00000  0.09110
      22     H     0.45483  0.45483  0.00000  0.09035
      23     H     0.44587  0.44587  0.00000  0.10825
      24     H     0.45385  0.45385  0.00000  0.09231

   Total alpha = 33.00000, Total beta = 33.00000, Total charge =  0.00000

*** Psi4 exiting successfully. Buy a developer a beer!
