  ==> Input File <==

--------------------------------------------------------------------------
set {
	reference rhf
	basis 6-31G*
}

set_num_threads( 4 )
memory 2 gb

molecule MOL {
0 1

O	 0.542409	 0.548232	 -0.962006
C	 0.028650	 0.075053	 -0.000277
C	 -1.233602	 -0.752807	 0.000328
O	 0.510962	 0.218363	 1.227216
C	 -2.501530	 0.091881	 0.000126
H	 -1.193807	 -1.406641	 -0.865785
H	 -1.193516	 -1.405779	 0.867015
H	 -2.545121	 0.729328	 -0.874513
H	 -3.377167	 -0.548497	 0.000561
H	 -2.544818	 0.730135	 0.874258
C	 1.697850	 0.978263	 1.366635
H	 2.505429	 0.527000	 0.808431
H	 1.926099	 0.978086	 2.421038
H	 1.545175	 1.988994	 1.016514

	symmetry c1
}
set optking {
	frozen_dihedral = ("
		4 2 3 6
	")
}

ee = optimize('scf')
oeprop('DIPOLE', 'QUADRUPOLE', 'MULLIKEN_CHARGES')
f=open( 'psi4out.xyz', 'w' )
f.write( "14  " )
f.write( str(ee) + "\n" )
f.write( MOL.save_string_xyz() )
f.close()
--------------------------------------------------------------------------

    Molecular point group: c1
  Charge       = 0
  Multiplicity = 1
  Basis Set: 6-31G*
  Basis Set:
  @DF-RHF Final Energy:  -305.86958476132645
    Total Energy =                       -305.8695847613262799
    Molecular point group: c1
  Basis Set: 6-31G*
  Basis Set:
  Basis Set: 6-31G*
  Basis Set:
  @DF-RHF Final Energy:  -305.87001036288268
    Total Energy =                       -305.8700103628827947
  Basis Set: 6-31G*
  Basis Set:
  Basis Set: 6-31G*
  Basis Set:
  @DF-RHF Final Energy:  -305.87018491631665
    Total Energy =                       -305.8701849163165889
  Basis Set: 6-31G*
  Basis Set:
  Basis Set: 6-31G*
  Basis Set:
  @DF-RHF Final Energy:  -305.87028152792794
    Total Energy =                       -305.8702815279277161
  Basis Set: 6-31G*
  Basis Set:
  Charge       = 0
  Multiplicity = 1
  Basis Set: 6-31G*
  Basis Set:

    Orbital Energies (a.u.)
    -----------------------

    Doubly Occupied:

       1A    -20.606219     2A    -20.543229     3A    -11.371879
       4A    -11.281309     5A    -11.237092     6A    -11.226836
       7A     -1.470017     8A     -1.362124     9A     -1.066543
      10A     -0.978545    11A     -0.882340    12A     -0.773559
      13A     -0.697970    14A     -0.679180    15A     -0.673097
      16A     -0.616499    17A     -0.599402    18A     -0.565652
      19A     -0.541569    20A     -0.519205    21A     -0.508230
      22A     -0.505152    23A     -0.455187    24A     -0.434925

  @DF-RHF Final Energy:  -305.87028214469672

   => Energetics <=

    Nuclear Repulsion Energy =            247.7813666537616939
    One-Electron Energy =                -908.1117770278731314
    Two-Electron Energy =                 354.4601282294146358
    DFT Exchange-Correlation Energy =       0.0000000000000000
    Empirical Dispersion Energy =           0.0000000000000000
    PCM Polarization Energy =               0.0000000000000000
    EFP Energy =                            0.0000000000000000
    Total Energy =                       -305.8702821446968301
    Molecular point group: c1
  Basis Set: 6-31G*
  Basis Set:

  -Total Gradient:
     Atom            X                  Y                   Z
    ------   -----------------  -----------------  -----------------
       1        0.000066584395    -0.000070053553     0.000159830321
       2       -0.000223781201     0.000233775202    -0.000142030561
       3       -0.000117320411     0.000147667346    -0.000099552541
       4        0.000232409837    -0.000194947567    -0.000051843943
       5        0.000016271368    -0.000018798757    -0.000013834096
       6        0.000094521570    -0.000138660445     0.000115501956
       7       -0.000007665403    -0.000013166583    -0.000004443812
       8       -0.000003099708     0.000002907383     0.000010251382
       9       -0.000018353115    -0.000012194072    -0.000001511261
      10        0.000012762526    -0.000004848723    -0.000008073274
      11       -0.000141990370     0.000109262567     0.000052631622
      12        0.000000625633    -0.000037950573    -0.000027579750
      13        0.000046127353     0.000001774175    -0.000000364621
      14        0.000042907525    -0.000004766400     0.000011018575

  **** Optimization is complete! (in 5 steps) ****
    Final optimized geometry and variables:
    Molecular point group: c1

    Geometry (in Angstrom), charge = 0, multiplicity = 1:

    O            0.623637616256     0.366745805797    -1.231566068032
    C            0.162390530677    -0.152247209349    -0.265793017366
    C           -1.091322138514    -0.992336521793    -0.268121446711
    O            0.682897897780    -0.024195885211     0.946632694106
    C           -2.338627730136    -0.100601984975    -0.305999153680
    H           -1.058796250873    -1.618810954733    -1.151093986437
    H           -1.105196041881    -1.626990621906     0.608315731508
    H           -2.328745703261     0.534535289021    -1.183882135315
    H           -3.234337232313    -0.710742705671    -0.336315786451
    H           -2.393216774249     0.531404055133     0.574195937802
    C            1.840001217263     0.784020433641     1.065446456413
    H            2.643076605287     0.386561605244     0.461810683782
    H            2.109970373017     0.761601274790     2.109708158817
    H            1.629268266372     1.796942249374     0.753979939136

  Mulliken Charges: (a.u.)
   Center  Symbol    Alpha    Beta     Spin     Total
       1     O     4.28569  4.28569  0.00000 -0.57139
       2     C     2.61525  2.61525  0.00000  0.76951
       3     C     3.19615  3.19615  0.00000 -0.39230
       4     O     4.30227  4.30227  0.00000 -0.60454
       5     C     3.25066  3.25066  0.00000 -0.50133
       6     H     0.39991  0.39991  0.00000  0.20018
       7     H     0.40208  0.40208  0.00000  0.19585
       8     H     0.40498  0.40498  0.00000  0.19005
       9     H     0.41184  0.41184  0.00000  0.17632
      10     H     0.41244  0.41244  0.00000  0.17513
      11     C     3.09320  3.09320  0.00000 -0.18641
      12     H     0.40814  0.40814  0.00000  0.18372
      13     H     0.40850  0.40850  0.00000  0.18299
      14     H     0.40889  0.40889  0.00000  0.18223

   Total alpha = 24.00000, Total beta = 24.00000, Total charge = -0.00000
