  ==> Input File <==

--------------------------------------------------------------------------
set {
	reference rhf
	basis cc-pvtz
}

set_num_threads( 4 )
memory 2 gb

molecule MOL {
0 1

H	 2.217721	 0.957759	 -1.131466
O	 1.352858	 0.579601	 -1.183837
C	 1.050374	 0.054877	 0.000135
C	 -0.318151	 -0.570512	 0.000144
O	 1.796565	 0.096905	 0.916323
C	 -1.454884	 0.441630	 -0.000560
H	 -0.371613	 -1.223646	 -0.864985
H	 -0.371920	 -1.222758	 0.865929
C	 -2.822577	 -0.232186	 0.000063
H	 -1.359760	 1.084704	 -0.867077
H	 -1.359641	 1.085996	 0.864983
H	 -2.954352	 -0.858985	 -0.875745
H	 -3.615886	 0.505352	 0.000019
H	 -2.953878	 -0.858359	 0.876394

	symmetry c1
}
set optking {
	frozen_dihedral = ("
		2 3 4 7
	")
}

ee = optimize('scf')
oeprop('DIPOLE', 'QUADRUPOLE', 'MULLIKEN_CHARGES')
f=open( 'psi4out.xyz', 'w' )
f.write( "14  " )
f.write( str(ee) + "\n" )
f.write( MOL.save_string_xyz() )
f.close()
--------------------------------------------------------------------------

    Molecular point group: c1
  Charge       = 0
  Multiplicity = 1
  Basis Set: CC-PVTZ
  Basis Set:
  @DF-RHF Final Energy:  -305.99926587977359
    Total Energy =                       -305.9992658797733611
    Molecular point group: c1
  Basis Set: CC-PVTZ
  Basis Set:
  Basis Set: CC-PVTZ
  Basis Set:
  @DF-RHF Final Energy:  -305.99967309812837
    Total Energy =                       -305.9996730981282553
  Basis Set: CC-PVTZ
  Basis Set:
  Basis Set: CC-PVTZ
  Basis Set:
  @DF-RHF Final Energy:  -305.99896467179190
    Total Energy =                       -305.9989646717919527
  Basis Set: CC-PVTZ
  Basis Set:
  Basis Set: CC-PVTZ
  Basis Set:
  @DF-RHF Final Energy:  -305.99974936823537
    Total Energy =                       -305.9997493682352570
  Basis Set: CC-PVTZ
  Basis Set:
  Charge       = 0
  Multiplicity = 1
  Basis Set: CC-PVTZ
  Basis Set:

    Orbital Energies (a.u.)
    -----------------------

    Doubly Occupied:

       1A    -20.604797     2A    -20.539488     3A    -11.372689
       4A    -11.238298     5A    -11.233803     6A    -11.219412
       7A     -1.477362     8A     -1.368239     9A     -1.087873
      10A     -0.980920    11A     -0.851648    12A     -0.813533
      13A     -0.705866    14A     -0.688325    15A     -0.646535
      16A     -0.636277    17A     -0.596326    18A     -0.567530
      19A     -0.554250    20A     -0.520481    21A     -0.501345
      22A     -0.489476    23A     -0.477085    24A     -0.441025

  @DF-RHF Final Energy:  -305.99975189526452

   => Energetics <=

    Nuclear Repulsion Energy =            240.9265564137752449
    One-Electron Energy =                -894.6274542468272557
    Two-Electron Energy =                 347.7011459377874871
    DFT Exchange-Correlation Energy =       0.0000000000000000
    Empirical Dispersion Energy =           0.0000000000000000
    PCM Polarization Energy =               0.0000000000000000
    EFP Energy =                            0.0000000000000000
    Total Energy =                       -305.9997518952645805
    Molecular point group: c1
  Basis Set: CC-PVTZ
  Basis Set:

  -Total Gradient:
     Atom            X                  Y                   Z
    ------   -----------------  -----------------  -----------------
       1        0.000014674676     0.000014564929    -0.000011727767
       2        0.000010967837     0.000081380731    -0.000032292062
       3        0.000058994659    -0.000135424114     0.000162780944
       4       -0.000120140613     0.000062692695    -0.000031834874
       5       -0.000026892034     0.000005588993    -0.000102959506
       6        0.000052839233    -0.000044508064    -0.000022170369
       7        0.000036552463    -0.000051517827     0.000029729993
       8        0.000013533478     0.000029047497    -0.000014173963
       9       -0.000009673515     0.000001928070     0.000012015386
      10       -0.000018478285     0.000017146213    -0.000000049032
      11       -0.000033488020     0.000018841319     0.000009060741
      12        0.000009759157    -0.000001884579    -0.000000888964
      13        0.000014647792     0.000007895954    -0.000000924054
      14       -0.000003296827    -0.000005751817     0.000003433526

  **** Optimization is complete! (in 5 steps) ****
    Final optimized geometry and variables:
    Molecular point group: c1

    Geometry (in Angstrom), charge = 0, multiplicity = 1:

    H            2.230624272718     0.940479977998    -1.037055338163
    O            1.377902987993     0.538421482837    -1.108074039642
    C            1.081304197761    -0.027987503470     0.058600139817
    C           -0.277175509332    -0.672991014933     0.055634483070
    O            1.823542330248     0.003560120099     0.978866642651
    C           -1.407936962212     0.361752660631     0.042639972039
    H           -0.352071719502    -1.308184982746    -0.819486269360
    H           -0.339708425507    -1.292157049195     0.938693635455
    C           -2.783049339334    -0.295230302625     0.068332872844
    H           -1.314979213314     0.984174069860    -0.839153129641
    H           -1.301056489310     1.014880387522     0.902555660131
    H           -2.927764888637    -0.933628759564    -0.796513468107
    H           -3.567432989110     0.451912968166     0.063865021861
    H           -2.910137603995    -0.904757147849     0.956202304550

  Mulliken Charges: (a.u.)
   Center  Symbol    Alpha    Beta     Spin     Total
       1     H     0.38046  0.38046  0.00000  0.23907
       2     O     4.16427  4.16427  0.00000 -0.32854
       3     C     2.80596  2.80596  0.00000  0.38807
       4     C     3.08691  3.08691  0.00000 -0.17383
       5     O     4.19497  4.19497  0.00000 -0.38995
       6     C     3.09420  3.09420  0.00000 -0.18840
       7     H     0.44455  0.44455  0.00000  0.11089
       8     H     0.43688  0.43688  0.00000  0.12624
       9     C     3.14972  3.14972  0.00000 -0.29944
      10     H     0.44354  0.44354  0.00000  0.11293
      11     H     0.44634  0.44634  0.00000  0.10731
      12     H     0.45383  0.45383  0.00000  0.09233
      13     H     0.44568  0.44568  0.00000  0.10865
      14     H     0.45268  0.45268  0.00000  0.09465

   Total alpha = 24.00000, Total beta = 24.00000, Total charge = -0.00000
