  ==> Input File <==

--------------------------------------------------------------------------
set {
	reference rhf
	basis cc-pvtz
}

set_num_threads( 4 )
memory 2 gb

molecule MOL {
0 1

H	 1.651322	 -0.822465	 0.000000
O	 0.729993	 -1.034364	 0.000000
C	 0.037305	 0.100061	 0.000000
C	 0.506919	 1.045439	 -1.064801
O	 -0.840091	 0.305885	 0.764596
H	 1.554065	 1.271760	 -0.910750
H	 -0.079168	 1.948764	 -1.029700
H	 0.411232	 0.573938	 -2.034336

	symmetry c1
}
set optking {
	frozen_dihedral = ("
		4 3 2 1
	")
}

ee = optimize('scf')
oeprop('DIPOLE', 'QUADRUPOLE', 'MULLIKEN_CHARGES')
f=open( 'psi4out.xyz', 'w' )
f.write( "8  " )
f.write( str(ee) + "\n" )
f.write( MOL.save_string_xyz() )
f.close()
--------------------------------------------------------------------------

    Molecular point group: c1
  Charge       = 0
  Multiplicity = 1
  Basis Set: CC-PVTZ
  Basis Set:
  @DF-RHF Final Energy:  -227.88685824503756
    Total Energy =                       -227.8868582450374731
    Molecular point group: c1
  Basis Set: CC-PVTZ
  Basis Set:
  Basis Set: CC-PVTZ
  Basis Set:
  @DF-RHF Final Energy:  -227.88651825328338
    Total Energy =                       -227.8865182532833273
  Basis Set: CC-PVTZ
  Basis Set:
  Basis Set: CC-PVTZ
  Basis Set:
  @DF-RHF Final Energy:  -227.88807573880487
    Total Energy =                       -227.8880757388048437
  Basis Set: CC-PVTZ
  Basis Set:
  Basis Set: CC-PVTZ
  Basis Set:
  @DF-RHF Final Energy:  -227.88891784450107
    Total Energy =                       -227.8889178445010657
  Basis Set: CC-PVTZ
  Basis Set:
  @DF-RHF Final Energy:  -227.88894290927129
    Total Energy =                       -227.8889429092712930
  @DF-RHF Final Energy:  -227.88896320716725
    Total Energy =                       -227.8889632071672509
  @DF-RHF Final Energy:  -227.88896860905220
    Total Energy =                       -227.8889686090521991
  Basis Set: CC-PVTZ
  Basis Set:
  @DF-RHF Final Energy:  -227.88896481801720
    Total Energy =                       -227.8889648180171434
  Basis Set: CC-PVTZ
  Basis Set:
  Basis Set: CC-PVTZ
  Basis Set:
  @DF-RHF Final Energy:  -227.88896534429034
    Total Energy =                       -227.8889653442903125
  Basis Set: CC-PVTZ
  Basis Set:
  Basis Set: CC-PVTZ
  Basis Set:
  @DF-RHF Final Energy:  -227.88896807078567
    Total Energy =                       -227.8889680707857224
  Basis Set: CC-PVTZ
  Basis Set:
  Charge       = 0
  Multiplicity = 1
  Basis Set: CC-PVTZ
  Basis Set:

    Orbital Energies (a.u.)
    -----------------------

    Doubly Occupied:

       1A    -20.598665     2A    -20.545379     3A    -11.378220
       4A    -11.246789     5A     -1.469470     6A     -1.375804
       7A     -1.025454     8A     -0.837348     9A     -0.718304
      10A     -0.671341    11A     -0.663385    12A     -0.600490
      13A     -0.576818    14A     -0.535721    15A     -0.491680
      16A     -0.451827

  @DF-RHF Final Energy:  -227.88896884113007

   => Energetics <=

    Nuclear Repulsion Energy =            122.3212965829517458
    One-Electron Energy =                -554.0471427922202565
    Two-Electron Energy =                 203.8368773681385733
    DFT Exchange-Correlation Energy =       0.0000000000000000
    Empirical Dispersion Energy =           0.0000000000000000
    PCM Polarization Energy =               0.0000000000000000
    EFP Energy =                            0.0000000000000000
    Total Energy =                       -227.8889688411299517
    Molecular point group: c1
  Basis Set: CC-PVTZ
  Basis Set:

  -Total Gradient:
     Atom            X                  Y                   Z
    ------   -----------------  -----------------  -----------------
       1       -0.000136686558     0.000201278200     0.006706757638
       2       -0.001055037081    -0.001139633417    -0.009810698162
       3        0.003899222111     0.002674783102     0.005922105063
       4       -0.002799681930    -0.001776847727    -0.002735434664
       5        0.000060432548     0.000038844333    -0.000067540698
       6       -0.000018426869     0.000009660184     0.000001077721
       7        0.000025143876     0.000022216107    -0.000001650487
       8        0.000025033901    -0.000030300786    -0.000014616411

  **** Optimization is complete! (in 11 steps) ****
    Final optimized geometry and variables:
    Molecular point group: c1

    Geometry (in Angstrom), charge = 0, multiplicity = 1:

    H            1.549073796138    -0.974082944262     0.148676847305
    O            0.618721121025    -1.121570746442     0.135305158847
    C           -0.078176885232     0.030147488047     0.086917077140
    C            0.368251978200     0.992006766821    -0.982206734349
    O           -1.024082043008     0.186464818883     0.763883108214
    H            1.429028359750     1.203278856537    -0.906482059757
    H           -0.191657055465     1.909562825041    -0.906216215913
    H            0.193052457237     0.531435321667    -1.946688324073

  Mulliken Charges: (a.u.)
   Center  Symbol    Alpha    Beta     Spin     Total
       1     H     0.38905  0.38905  0.00000  0.22190
       2     O     4.15640  4.15640  0.00000 -0.31280
       3     C     2.81040  2.81040  0.00000  0.37920
       4     C     3.14242  3.14242  0.00000 -0.28483
       5     O     4.16658  4.16658  0.00000 -0.33316
       6     H     0.45781  0.45781  0.00000  0.08438
       7     H     0.43616  0.43616  0.00000  0.12768
       8     H     0.44118  0.44118  0.00000  0.11763

   Total alpha = 16.00000, Total beta = 16.00000, Total charge = -0.00000
