  ==> Input File <==

--------------------------------------------------------------------------
set {
	reference rhf
	basis 6-31G*
}

set_num_threads( 1 )
memory 2 gb

molecule MOL {
0 1

H	 2.720640	 1.818852	 0.725355
O	 3.461414	 1.492322	 0.235761
C	 3.630520	 0.121089	 0.491062
C	 2.569257	 -0.749334	 -0.172876
H	 4.607797	 -0.132590	 0.100870
H	 3.652166	 -0.066944	 1.563887
C	 1.149719	 -0.502926	 0.343904
H	 2.602475	 -0.575832	 -1.245331
H	 2.836811	 -1.792324	 -0.011775
C	 0.115918	 -1.429151	 -0.302766
H	 0.876499	 0.531962	 0.157566
H	 1.128402	 -0.643292	 1.424730
C	 -1.309753	 -1.282496	 0.241564
H	 0.109302	 -1.262597	 -1.378434
H	 0.435424	 -2.459025	 -0.157936
C	 -2.037799	 -0.007733	 -0.193645
H	 -1.890610	 -2.142323	 -0.085726
H	 -1.285946	 -1.330893	 1.329189
C	 -3.489788	 0.042957	 0.286558
H	 -2.017067	 0.064384	 -1.280144
H	 -1.513726	 0.868678	 0.179924
C	 -4.216917	 1.317354	 -0.141063
H	 -4.025645	 -0.823308	 -0.095450
H	 -3.513059	 -0.038752	 1.371301
H	 -4.239342	 1.411634	 -1.223113
H	 -5.243387	 1.322503	 0.212445
H	 -3.726170	 2.201406	 0.256408

	symmetry c1
}
set optking {
	frozen_dihedral = ("
		14 10 7 4,
		10 7 4 8,
		8 4 3 2,
		10 13 16 20,
		20 16 19 22,
		4 3 2 1
	")
}

ee = energy('scf')
oeprop('DIPOLE', 'QUADRUPOLE', 'MULLIKEN_CHARGES')
f=open( 'psi4out.xyz', 'w' )
f.write( "27  " )
f.write( str(ee) + "\n" )
f.write( MOL.save_string_xyz() )
f.close()
--------------------------------------------------------------------------

    Molecular point group: c1

    Geometry (in Angstrom), charge = 0, multiplicity = 1:

       Center              X                  Y                   Z               Mass
    ------------   -----------------  -----------------  -----------------  -----------------
           H          2.691846450598     1.888668566694     0.631130122042     1.007825032070
           O          3.432620450598     1.562138566694     0.141536122042    15.994914619560
           C          3.601726450598     0.190905566694     0.396837122042    12.000000000000
           C          2.540463450598    -0.679517433306    -0.267100877958    12.000000000000
           H          4.579003450598    -0.062773433306     0.006645122042     1.007825032070
           H          3.623372450598     0.002872566694     1.469662122042     1.007825032070
           C          1.120925450598    -0.433109433306     0.249679122042    12.000000000000
           H          2.573681450598    -0.506015433306    -1.339555877958     1.007825032070
           H          2.808017450598    -1.722507433306    -0.105999877958     1.007825032070
           C          0.087124450598    -1.359334433306    -0.396990877958    12.000000000000
           H          0.847705450598     0.601778566694     0.063341122042     1.007825032070
           H          1.099608450598    -0.573475433306     1.330505122042     1.007825032070
           C         -1.338546549402    -1.212679433306     0.147339122042    12.000000000000
           H          0.080508450598    -1.192780433306    -1.472658877958     1.007825032070
           H          0.406630450598    -2.389208433306    -0.252160877958     1.007825032070
           C         -2.066592549402     0.062083566694    -0.287869877958    12.000000000000
           H         -1.919403549402    -2.072506433306    -0.179950877958     1.007825032070
           H         -1.314739549402    -1.261076433306     1.234964122042     1.007825032070
           C         -3.518581549402     0.112773566694     0.192333122042    12.000000000000
           H         -2.045860549402     0.134200566694    -1.374368877958     1.007825032070
           H         -1.542519549402     0.938494566694     0.085699122042     1.007825032070
           C         -4.245710549402     1.387170566694    -0.235287877958    12.000000000000
           H         -4.054438549402    -0.753491433306    -0.189674877958     1.007825032070
           H         -3.541852549402     0.031064566694     1.277076122042     1.007825032070
           H         -4.268135549402     1.481450566694    -1.317337877958     1.007825032070
           H         -5.272180549402     1.392319566694     0.118220122042     1.007825032070
           H         -3.754963549402     2.271222566694     0.162183122042     1.007825032070

  Charge       = 0
  Multiplicity = 1
  Basis Set: 6-31G*
  Basis Set:

    Orbital Energies (a.u.)
    -----------------------

    Doubly Occupied:

       1A    -20.552308     2A    -11.267088     3A    -11.219945
       4A    -11.217176     5A    -11.216075     6A    -11.215583
       7A    -11.215252     8A    -11.214308     9A    -11.209339
      10A     -1.359056    11A     -1.095035    12A     -1.061736
      13A     -1.011555    14A     -0.948777    15A     -0.887503
      16A     -0.819959    17A     -0.800427    18A     -0.779961
      19A     -0.693767    20A     -0.650822    21A     -0.639289
      22A     -0.614413    23A     -0.599968    24A     -0.582893
      25A     -0.580484    26A     -0.552214    27A     -0.542001
      28A     -0.530574    29A     -0.505290    30A     -0.493186
      31A     -0.485144    32A     -0.474431    33A     -0.469895
      34A     -0.461992    35A     -0.451765    36A     -0.441673
      37A     -0.422737

  @DF-RHF Final Energy:  -388.28158311746523

   => Energetics <=

    Nuclear Repulsion Energy =            458.8417253716933715
    One-Electron Energy =               -1435.6794752017187875
    Two-Electron Energy =                 588.5561667125606391
    DFT Exchange-Correlation Energy =       0.0000000000000000
    Empirical Dispersion Energy =           0.0000000000000000
    PCM Polarization Energy =               0.0000000000000000
    EFP Energy =                            0.0000000000000000
    Total Energy =                       -388.2815831174647201

  Mulliken Charges: (a.u.)
   Center  Symbol    Alpha    Beta     Spin     Total
       1     H     0.27992  0.27992  0.00000  0.44017
       2     O     4.37094  4.37094  0.00000 -0.74188
       3     C     2.99737  2.99737  0.00000  0.00527
       4     C     3.16109  3.16109  0.00000 -0.32218
       5     H     0.41443  0.41443  0.00000  0.17114
       6     H     0.43204  0.43204  0.00000  0.13591
       7     C     3.16277  3.16277  0.00000 -0.32555
       8     H     0.41494  0.41494  0.00000  0.17013
       9     H     0.42427  0.42427  0.00000  0.15145
      10     C     3.15246  3.15246  0.00000 -0.30492
      11     H     0.42332  0.42332  0.00000  0.15336
      12     H     0.42528  0.42528  0.00000  0.14943
      13     C     3.15402  3.15402  0.00000 -0.30803
      14     H     0.42141  0.42141  0.00000  0.15718
      15     H     0.42145  0.42145  0.00000  0.15711
      16     C     3.15183  3.15183  0.00000 -0.30366
      17     H     0.42121  0.42121  0.00000  0.15758
      18     H     0.42422  0.42422  0.00000  0.15157
      19     C     3.15138  3.15138  0.00000 -0.30276
      20     H     0.42346  0.42346  0.00000  0.15307
      21     H     0.42397  0.42397  0.00000  0.15207
      22     C     3.23918  3.23918  0.00000 -0.47836
      23     H     0.42283  0.42283  0.00000  0.15434
      24     H     0.42335  0.42335  0.00000  0.15330
      25     H     0.42144  0.42144  0.00000  0.15712
      26     H     0.41924  0.41924  0.00000  0.16152
      27     H     0.42219  0.42219  0.00000  0.15563

   Total alpha = 37.00000, Total beta = 37.00000, Total charge = -0.00000
