                              Psi4 1.0.54 Driver

  ==> Input File <==

--------------------------------------------------------------------------
set {
	reference rhf
	basis cc-pvtz
}

set_num_threads( 4 )
memory 2 gb

molecule MOL {
0 1

H	 3.618396	 -0.949635	 -0.587551
O	 2.715981	 -1.171541	 -0.414055
C	 2.076458	 -0.067370	 -0.038225
C	 0.626018	 -0.337582	 0.258241
O	 2.621899	 0.978709	 0.039581
C	 -0.267326	 0.883135	 0.076490
H	 0.325620	 -1.161483	 -0.378003
H	 0.574537	 -0.713685	 1.275261
C	 -1.726822	 0.642622	 0.463839
H	 -0.210803	 1.217591	 -0.953497
H	 0.129920	 1.693110	 0.675679
C	 -2.480891	 -0.340606	 -0.429852
H	 -2.243098	 1.597649	 0.438609
H	 -1.776542	 0.301208	 1.495542
C	 -3.955933	 -0.460128	 -0.060472
H	 -2.393755	 -0.020485	 -1.464726
H	 -2.024244	 -1.323637	 -0.374360
H	 -4.467673	 -1.160944	 -0.709827
H	 -4.458917	 0.497287	 -0.144505
H	 -4.076458	 -0.806900	 0.960497

	symmetry c1
}
set optking {
	frozen_dihedral = ("
		5 3 4 7
	")
}

ee,wfn = optimize('scf', return_wfn=True)
oeprop( wfn, 'DIPOLE', 'QUADRUPOLE', 'MULLIKEN_CHARGES')
f=open( 'psi4out.xyz', 'w' )
f.write( "20  " )
f.write( str(ee) + "\n" )
f.write( MOL.save_string_xyz() )
f.close()
--------------------------------------------------------------------------

    Molecular point group: c1
  Charge       = 0
  Multiplicity = 1
  Basis Set: CC-PVTZ
  Basis Set:
  @DF-RHF Final Energy:  -384.09425109077358
    Total Energy =                       -384.0942510907736960
    Molecular point group: c1
  Basis Set: CC-PVTZ
  Basis Set:
  Basis Set: CC-PVTZ
  Basis Set:
  @DF-RHF Final Energy:  -384.09313361801321
    Total Energy =                       -384.0931336180127573
  Basis Set: CC-PVTZ
  Basis Set:
  Basis Set: CC-PVTZ
  Basis Set:
  @DF-RHF Final Energy:  -384.09439704002699
    Total Energy =                       -384.0943970400269336
  Basis Set: CC-PVTZ
  Basis Set:
  Basis Set: CC-PVTZ
  Basis Set:
  @DF-RHF Final Energy:  -384.09450146321183
    Total Energy =                       -384.0945014632119410
  Basis Set: CC-PVTZ
  Basis Set:
  Basis Set: CC-PVTZ
  Basis Set:
  @DF-RHF Final Energy:  -384.09451026110816
    Total Energy =                       -384.0945102611083257
  Basis Set: CC-PVTZ
  Basis Set:
  Basis Set: CC-PVTZ
  Basis Set:
  @DF-RHF Final Energy:  -384.09451177359034
    Total Energy =                       -384.0945117735903978
  Basis Set: CC-PVTZ
  Basis Set:
  Charge       = 0
  Multiplicity = 1
  Basis Set: CC-PVTZ
  Basis Set:

    Orbital Energies (a.u.)
    -----------------------

    Doubly Occupied:

       1A    -20.604851     2A    -20.539606     3A    -11.373602
       4A    -11.238442     5A    -11.222135     6A    -11.219057
       7A    -11.218418     8A    -11.210695     9A     -1.477806
      10A     -1.368738    11A     -1.097734    12A     -1.042221
      13A     -0.962442    14A     -0.870295    15A     -0.818163
      16A     -0.780261    17A     -0.704858    18A     -0.692729
      19A     -0.660732    20A     -0.639737    21A     -0.607188
      22A     -0.596194    23A     -0.576850    24A     -0.556040
      25A     -0.543626    26A     -0.513607    27A     -0.497131
      28A     -0.482762    29A     -0.472193    30A     -0.468670
      31A     -0.458217    32A     -0.445728

  @DF-RHF Final Energy:  -384.09451153145591

   => Energetics <=

    Nuclear Repulsion Energy =            376.4415696293886526
    One-Electron Energy =               -1269.1507014848789368
    Two-Electron Energy =                 508.6146203240342629
    DFT Exchange-Correlation Energy =       0.0000000000000000
    Empirical Dispersion Energy =           0.0000000000000000
    PCM Polarization Energy =               0.0000000000000000
    EFP Energy =                            0.0000000000000000
    Total Energy =                       -384.0945115314560780
    Molecular point group: c1
  Basis Set: CC-PVTZ
  Basis Set:

  -Total Gradient:
     Atom            X                  Y                   Z
    ------   -----------------  -----------------  -----------------
       1        0.000020673082     0.000010730079     0.000005978812
       2       -0.000081823546    -0.000051995162    -0.000015722397
       3       -0.000228392819     0.000032091855    -0.001383786593
       4       -0.000226354153     0.000706681938    -0.000490488742
       5        0.000240129799    -0.000015209676     0.001104188867
       6        0.000011538736     0.000009652927    -0.000004408768
       7        0.000270338045    -0.000684224704     0.000775614111
       8        0.000007338230     0.000007839963     0.000009759500
       9        0.000017306884    -0.000036395532     0.000014245054
      10        0.000003096175    -0.000008733643    -0.000015602210
      11       -0.000005217324     0.000018800274    -0.000005666412
      12       -0.000011569549    -0.000005669403     0.000010721460
      13        0.000009004707     0.000006116382     0.000011577180
      14        0.000004715065    -0.000014860363     0.000002631389
      15       -0.000000627406     0.000010046257    -0.000013267603
      16        0.000003754633    -0.000002892576    -0.000012558975
      17       -0.000029986664     0.000013644022     0.000007597056
      18       -0.000002685073     0.000001614723    -0.000003552091
      19       -0.000005746064     0.000004250219     0.000001760565
      20        0.000004507248    -0.000001487583     0.000000979798

  **** Optimization is complete! (in 7 steps) ****
    Final optimized geometry and variables:
    Molecular point group: c1

    Geometry (in Angstrom), charge = 0, multiplicity = 1:

    H            3.669143553460    -0.933404542541    -0.455891963551
    O            2.758513779762    -1.164447759457    -0.348674786758
    C            2.082565205922    -0.066108920164    -0.025903386047
    C            0.626537729660    -0.352505134526     0.231251861230
    O            2.608459909208     0.988668604859     0.073227650646
    C           -0.265128453493     0.874676791255     0.075328087139
    H            0.326077280213    -1.173132912746    -0.404674845403
    H            0.576507089565    -0.728014339129     1.250694255254
    C           -1.720510395809     0.637029551390     0.478839412526
    H           -0.224085153121     1.217954315925    -0.953976472356
    H            0.146451400003     1.674322237650     0.676733306231
    C           -2.491478459642    -0.334512991244    -0.413248553416
    H           -2.232307607396     1.594785654286     0.469694105066
    H           -1.756818460703     0.286527327688     1.508025981023
    C           -3.960867986497    -0.454056609088    -0.021799000151
    H           -2.419926617810    -0.003681231921    -1.446051875233
    H           -2.036409232307    -1.319045790709    -0.375661770853
    H           -4.484211419508    -1.148470618053    -0.668778247947
    H           -4.463157356415     0.505006108933    -0.090007408984
    H           -4.066209828882    -0.809002937944     0.998050968439

  Mulliken Charges: (a.u.)
   Center  Symbol    Alpha    Beta     Spin     Total
       1     H     0.38135  0.38135  0.00000  0.23730
       2     O     4.15931  4.15931  0.00000 -0.31863
       3     C     2.80626  2.80626  0.00000  0.38749
       4     C     3.10620  3.10620  0.00000 -0.21240
       5     O     4.19285  4.19285  0.00000 -0.38570
       6     C     3.09723  3.09723  0.00000 -0.19445
       7     H     0.43561  0.43561  0.00000  0.12879
       8     H     0.44112  0.44112  0.00000  0.11776
       9     C     3.09913  3.09913  0.00000 -0.19825
      10     H     0.44885  0.44885  0.00000  0.10230
      11     H     0.43424  0.43424  0.00000  0.13153
      12     C     3.08653  3.08653  0.00000 -0.17305
      13     H     0.44546  0.44546  0.00000  0.10908
      14     H     0.45340  0.45340  0.00000  0.09319
      15     C     3.14958  3.14958  0.00000 -0.29917
      16     H     0.45311  0.45311  0.00000  0.09378
      17     H     0.45368  0.45368  0.00000  0.09264
      18     H     0.44770  0.44770  0.00000  0.10460
      19     H     0.45365  0.45365  0.00000  0.09269
      20     H     0.45475  0.45475  0.00000  0.09050

   Total alpha = 32.00000, Total beta = 32.00000, Total charge = -0.00000

*** Psi4 exiting successfully. Buy a developer a beer!
