  ==> Input File <==

--------------------------------------------------------------------------
set {
	reference rhf
	basis cc-pvtz
}

set_num_threads( 4 )
memory 2 gb

molecule MOL {
0 1

O	 0.942918	 -1.770150	 -1.900678
C	 0.210301	 -1.499173	 -1.012014
C	 -1.205174	 -1.984688	 -0.884103
O	 0.550743	 -0.719877	 0.000412
H	 -1.318222	 -2.533963	 0.041598
H	 -1.447776	 -2.616023	 -1.723206
H	 -1.877488	 -1.137277	 -0.847713
C	 1.863204	 -0.194033	 0.000410
H	 2.031502	 0.409177	 -0.879273
H	 2.524488	 -1.045142	 0.000793
H	 2.031291	 0.409823	 0.879686

	symmetry c1
}
set optking {
	frozen_dihedral = ("
		2 4 8 9
	")
}

ee = optimize('scf')
oeprop('DIPOLE', 'QUADRUPOLE', 'MULLIKEN_CHARGES')
f=open( 'psi4out.xyz', 'w' )
f.write( "11  " )
f.write( str(ee) + "\n" )
f.write( MOL.save_string_xyz() )
f.close()
--------------------------------------------------------------------------

    Molecular point group: c1
  Charge       = 0
  Multiplicity = 1
  Basis Set: CC-PVTZ
  Basis Set:
  @DF-RHF Final Energy:  -266.93766855001309
    Total Energy =                       -266.9376685500130861
    Molecular point group: c1
  Basis Set: CC-PVTZ
  Basis Set:
  Basis Set: CC-PVTZ
  Basis Set:
  @DF-RHF Final Energy:  -266.93893556841556
    Total Energy =                       -266.9389355684158431
  Basis Set: CC-PVTZ
  Basis Set:
  Basis Set: CC-PVTZ
  Basis Set:
  @DF-RHF Final Energy:  -266.93911695326869
    Total Energy =                       -266.9391169532688082
  Basis Set: CC-PVTZ
  Basis Set:
  Basis Set: CC-PVTZ
  Basis Set:
  @DF-RHF Final Energy:  -266.93908076885202
    Total Energy =                       -266.9390807688523068
  Basis Set: CC-PVTZ
  Basis Set:
  Basis Set: CC-PVTZ
  Basis Set:
  @DF-RHF Final Energy:  -266.93923895268972
    Total Energy =                       -266.9392389526897773
  Basis Set: CC-PVTZ
  Basis Set:
  Charge       = 0
  Multiplicity = 1
  Basis Set: CC-PVTZ
  Basis Set:

    Orbital Energies (a.u.)
    -----------------------

    Doubly Occupied:

       1A    -20.598815     2A    -20.535319     3A    -11.368836
       4A    -11.279967     5A    -11.233270     6A     -1.474381
       7A     -1.367683     8A     -1.037033     9A     -0.953701
      10A     -0.780225    11A     -0.698207    12A     -0.684663
      13A     -0.681210    14A     -0.595634    15A     -0.593713
      16A     -0.561873    17A     -0.526556    18A     -0.525801
      19A     -0.462406    20A     -0.446010

  @DF-RHF Final Energy:  -266.93923921294891

   => Energetics <=

    Nuclear Repulsion Energy =            183.7202893386591711
    One-Electron Energy =                -728.5084502210170285
    Two-Electron Energy =                 277.8489216694088668
    DFT Exchange-Correlation Energy =       0.0000000000000000
    Empirical Dispersion Energy =           0.0000000000000000
    PCM Polarization Energy =               0.0000000000000000
    EFP Energy =                            0.0000000000000000
    Total Energy =                       -266.9392392129489622
    Molecular point group: c1
  Basis Set: CC-PVTZ
  Basis Set:

  -Total Gradient:
     Atom            X                  Y                   Z
    ------   -----------------  -----------------  -----------------
       1        0.000000859172     0.000005042181     0.000023684238
       2       -0.000004445096     0.000036026076    -0.000045103212
       3       -0.000009819139    -0.000005963926     0.000004981556
       4        0.000068235249    -0.000053190895     0.000072779024
       5        0.000001389677     0.000003356230    -0.000003621435
       6       -0.000001645370    -0.000000552980    -0.000001886032
       7       -0.000000878804     0.000000263224    -0.000000811228
       8       -0.000039528691     0.000070457580    -0.000037470866
       9        0.000029212305    -0.000028782207    -0.000023387453
      10       -0.000014106222    -0.000012133411     0.000006036604
      11       -0.000029273078    -0.000014521873     0.000004798802

  **** Optimization is complete! (in 6 steps) ****
    Final optimized geometry and variables:
    Molecular point group: c1

    Geometry (in Angstrom), charge = 0, multiplicity = 1:

    O            0.444506419272    -0.547789689792    -1.152554989759
    C           -0.282158249439    -0.274953500579    -0.259577907903
    C           -1.699839558061    -0.752318995919    -0.126116886038
    O            0.067966263719     0.499331325771     0.753438462707
    H           -1.811495148782    -1.303688792013     0.798498580774
    H           -1.950360119415    -1.379674840805    -0.965890503699
    H           -2.366801007813     0.099036101217    -0.083867961401
    C            1.383072801044     1.018178492928     0.747771868828
    H            1.550107551977     1.623342335446    -0.130778798037
    H            2.107810895780     0.217855918418     0.767639242727
    H            1.468721903172     1.620479422671     1.637478654701

  Mulliken Charges: (a.u.)
   Center  Symbol    Alpha    Beta     Spin     Total
       1     O     4.19663  4.19663  0.00000 -0.39326
       2     C     2.80186  2.80186  0.00000  0.39627
       3     C     3.13788  3.13788  0.00000 -0.27575
       4     O     4.14770  4.14770  0.00000 -0.29541
       5     H     0.44542  0.44542  0.00000  0.10917
       6     H     0.43787  0.43787  0.00000  0.12427
       7     H     0.44544  0.44544  0.00000  0.10911
       8     C     3.03352  3.03352  0.00000 -0.06704
       9     H     0.45400  0.45400  0.00000  0.09199
      10     H     0.45417  0.45417  0.00000  0.09165
      11     H     0.44550  0.44550  0.00000  0.10900

   Total alpha = 20.00000, Total beta = 20.00000, Total charge =  0.00000
