                              Psi4 1.0.54 Driver

  ==> Input File <==

--------------------------------------------------------------------------
set {
	reference rhf
	basis cc-pvtz
}

set_num_threads( 4 )
memory 2 gb

molecule MOL {
0 1

H	 2.462485	 -2.216993	 0.000000
O	 2.777472	 -1.330706	 0.000000
C	 1.763288	 -0.447523	 0.000000
C	 2.040204	 0.845217	 0.421024
C	 0.487235	 -0.785039	 -0.397654
H	 3.039191	 1.086395	 0.726008
C	 1.041716	 1.791750	 0.442164
H	 0.245530	 -1.774206	 -0.726936
C	 -0.489931	 0.190027	 -0.363585
H	 1.265001	 2.788259	 0.769059
C	 -0.247838	 1.476770	 0.047469
N	 -1.845767	 -0.176302	 -0.788217
H	 -1.032822	 2.200923	 0.058604
O	 -2.027681	 -1.294841	 -1.138719
O	 -2.677464	 0.666267	 -0.755746

	symmetry c1
}
set optking {
	frozen_dihedral = ("
		4 3 2 1
	")
}

ee,wfn = optimize('scf', return_wfn=True)
oeprop( wfn, 'DIPOLE', 'QUADRUPOLE', 'MULLIKEN_CHARGES')
f=open( 'psi4out.xyz', 'w' )
f.write( "15  " )
f.write( str(ee) + "\n" )
f.write( MOL.save_string_xyz() )
f.close()
--------------------------------------------------------------------------

    Molecular point group: c1
  Charge       = 0
  Multiplicity = 1
  Basis Set: CC-PVTZ
  Basis Set:
  @DF-RHF Final Energy:  -509.21851601952352
    Total Energy =                       -509.2185160195235767
    Molecular point group: c1
  Basis Set: CC-PVTZ
  Basis Set:
  Basis Set: CC-PVTZ
  Basis Set:
  @DF-RHF Final Energy:  -509.21850663544143
    Total Energy =                       -509.2185066354412584
  Basis Set: CC-PVTZ
  Basis Set:
  Basis Set: CC-PVTZ
  Basis Set:
  @DF-RHF Final Energy:  -509.21372191662937
    Total Energy =                       -509.2137219166288560
  Basis Set: CC-PVTZ
  Basis Set:
  Basis Set: CC-PVTZ
  Basis Set:
  @DF-RHF Final Energy:  -509.21819388093712
    Total Energy =                       -509.2181938809371786
  Basis Set: CC-PVTZ
  Basis Set:
  Basis Set: CC-PVTZ
  Basis Set:
  @DF-RHF Final Energy:  -509.21853333698397
    Total Energy =                       -509.2185333369836826
  Basis Set: CC-PVTZ
  Basis Set:
  Basis Set: CC-PVTZ
  Basis Set:
  @DF-RHF Final Energy:  -509.21853770427288
    Total Energy =                       -509.2185377042732171
  Basis Set: CC-PVTZ
  Basis Set:
  Charge       = 0
  Multiplicity = 1
  Basis Set: CC-PVTZ
  Basis Set:

    Orbital Energies (a.u.)
    -----------------------

    Doubly Occupied:

       1A    -20.606605     2A    -20.594975     3A    -20.594489
       4A    -15.850623     5A    -11.326632     6A    -11.308875
       7A    -11.263107     8A    -11.263038     9A    -11.259185
      10A    -11.256954    11A     -1.644289    12A     -1.438803
      13A     -1.426653    14A     -1.202591    15A     -1.095478
      16A     -1.047967    17A     -0.966641    18A     -0.880274
      19A     -0.832139    20A     -0.795560    21A     -0.754870
      22A     -0.743585    23A     -0.729450    24A     -0.709546
      25A     -0.677507    26A     -0.636987    27A     -0.626316
      28A     -0.590299    29A     -0.560025    30A     -0.546058
      31A     -0.519872    32A     -0.494893    33A     -0.493270
      34A     -0.460275    35A     -0.380154    36A     -0.347782

  @DF-RHF Final Energy:  -509.21853832752362

   => Energetics <=

    Nuclear Repulsion Energy =            504.6444627750088898
    One-Electron Energy =               -1695.8744696213038878
    Two-Electron Energy =                 682.0114685187710393
    DFT Exchange-Correlation Energy =       0.0000000000000000
    Empirical Dispersion Energy =           0.0000000000000000
    PCM Polarization Energy =               0.0000000000000000
    EFP Energy =                            0.0000000000000000
    Total Energy =                       -509.2185383275240156
    Molecular point group: c1
  Basis Set: CC-PVTZ
  Basis Set:

  -Total Gradient:
     Atom            X                  Y                   Z
    ------   -----------------  -----------------  -----------------
       1       -0.000019038407     0.000082366352     0.001878643255
       2       -0.000130739033    -0.000178487074    -0.001752450667
       3        0.000430922493     0.000365449424    -0.001410276232
       4       -0.000325032072    -0.000251900531     0.001280829214
       5        0.000064198215     0.000009552976     0.000009934499
       6        0.000009698443    -0.000000095238    -0.000003003963
       7        0.000075978739    -0.000017971747     0.000015909520
       8       -0.000004971058     0.000003113319     0.000010164295
       9       -0.000003504141     0.000049924530     0.000025202637
      10        0.000000431245    -0.000002265655     0.000005959227
      11       -0.000033267937    -0.000044105390    -0.000024155096
      12        0.000119639865    -0.000027068914    -0.000006971897
      13        0.000013039288    -0.000001056091    -0.000002480504
      14       -0.000092947661     0.000066889288    -0.000001194322
      15       -0.000104407976    -0.000054345253    -0.000026109966

  **** Optimization is complete! (in 7 steps) ****
    Final optimized geometry and variables:
    Molecular point group: c1

    Geometry (in Angstrom), charge = 0, multiplicity = 1:

    H            2.401262859231    -2.270168895547     0.373831158633
    O            2.728134152387    -1.388672702545     0.344863538292
    C            1.723502169538    -0.491879567864     0.310824667898
    C            2.011050320291     0.811196946148     0.687666400632
    C            0.446937009578    -0.830319132724    -0.085262317101
    H            3.008853817881     1.051072482369     0.997504239223
    C            1.025019295237     1.771566073321     0.657041573153
    H            0.199719224195    -1.827611075548    -0.383953655020
    C           -0.519599167824     0.155215639931    -0.094885245712
    H            1.256874066695     2.777198031788     0.947996215424
    C           -0.264261471809     1.455488200794     0.264587352309
    N           -1.877147894807    -0.212035526061    -0.512986606604
    H           -1.040846910412     2.188350535194     0.240341331581
    O           -2.074405678389    -1.344800119684    -0.804184277922
    O           -2.695464136288     0.644063430661    -0.534059000081

  Mulliken Charges: (a.u.)
   Center  Symbol    Alpha    Beta     Spin     Total
       1     H     0.38319  0.38319  0.00000  0.23361
       2     O     4.17151  4.17151  0.00000 -0.34302
       3     C     2.84830  2.84830  0.00000  0.30341
       4     C     3.09715  3.09715  0.00000 -0.19429
       5     C     3.13054  3.13054  0.00000 -0.26108
       6     H     0.41257  0.41257  0.00000  0.17486
       7     C     3.05754  3.05754  0.00000 -0.11507
       8     H     0.40518  0.40518  0.00000  0.18964
       9     C     2.98228  2.98228  0.00000  0.03545
      10     H     0.41587  0.41587  0.00000  0.16826
      11     C     3.09419  3.09419  0.00000 -0.18837
      12     N     3.24934  3.24934  0.00000  0.50131
      13     H     0.39941  0.39941  0.00000  0.20118
      14     O     4.17821  4.17821  0.00000 -0.35641
      15     O     4.17473  4.17473  0.00000 -0.34945

   Total alpha = 36.00000, Total beta = 36.00000, Total charge = -0.00000

*** Psi4 exiting successfully. Buy a developer a beer!
