  ==> Input File <==

--------------------------------------------------------------------------
set {
	reference rhf
	basis 6-31G*
}

set_num_threads( 1 )
memory 2 gb

molecule MOL {
0 1

H	 -3.420663	 1.227371	 -1.044276
O	 -3.452007	 0.283848	 -0.965577
C	 -3.181085	 -0.079926	 0.364119
C	 -1.765924	 0.277073	 0.805136
H	 -3.327791	 -1.152017	 0.410903
H	 -3.905698	 0.375695	 1.036898
C	 -0.863838	 -0.941111	 1.007091
H	 -1.321892	 0.944675	 0.066147
H	 -1.829439	 0.848298	 1.729739
C	 0.559949	 -0.570712	 1.427582
H	 -0.836005	 -1.520225	 0.089179
H	 -1.306295	 -1.588194	 1.762677
C	 1.455288	 -1.795468	 1.633559
H	 0.992421	 0.083134	 0.674009
H	 0.526267	 0.007293	 2.350284
C	 2.866946	 -1.480118	 2.141429
H	 1.526187	 -2.350273	 0.699289
H	 0.973730	 -2.462548	 2.345545
C	 3.736991	 -0.697101	 1.156385
H	 3.365312	 -2.417348	 2.377055
H	 2.797699	 -0.930421	 3.078041
H	 3.813986	 -1.217267	 0.205261
H	 4.742789	 -0.571847	 1.545640
H	 3.339069	 0.293112	 0.960680

	symmetry c1
}
set optking {
	frozen_dihedral = ("
		20 16 13 17,
		17 13 10 7,
		13 10 7 11,
		11 7 4 3,
		1 2 3 5
	")
}

ee = energy('scf')
oeprop('DIPOLE', 'QUADRUPOLE', 'MULLIKEN_CHARGES')
f=open( 'psi4out.xyz', 'w' )
f.write( "24  " )
f.write( str(ee) + "\n" )
f.write( MOL.save_string_xyz() )
f.close()
--------------------------------------------------------------------------

    Molecular point group: c1

    Geometry (in Angstrom), charge = 0, multiplicity = 1:

       Center              X                  Y                   Z               Mass
    ------------   -----------------  -----------------  -----------------  -----------------
           H         -3.288584321861     1.825203794757    -1.952038260854     1.007825032070
           O         -3.319928321861     0.881680794757    -1.873339260854    15.994914619560
           C         -3.049006321861     0.517906794757    -0.543643260854    12.000000000000
           C         -1.633845321861     0.874905794757    -0.102626260854    12.000000000000
           H         -3.195712321861    -0.554184205243    -0.496859260854     1.007825032070
           H         -3.773619321861     0.973527794757     0.129135739146     1.007825032070
           C         -0.731759321861    -0.343278205243     0.099328739146    12.000000000000
           H         -1.189813321861     1.542507794757    -0.841615260854     1.007825032070
           H         -1.697360321861     1.446130794757     0.821976739146     1.007825032070
           C          0.692027678139     0.027120794757     0.519819739146    12.000000000000
           H         -0.703926321861    -0.922392205243    -0.818583260854     1.007825032070
           H         -1.174216321861    -0.990361205243     0.854914739146     1.007825032070
           C          1.587366678139    -1.197635205243     0.725796739146    12.000000000000
           H          1.124499678139     0.680966794757    -0.233753260854     1.007825032070
           H          0.658345678139     0.605125794757     1.442521739146     1.007825032070
           C          2.999024678139    -0.882285205243     1.233666739146    12.000000000000
           H          1.658265678139    -1.752440205243    -0.208473260854     1.007825032070
           H          1.105808678139    -1.864715205243     1.437782739146     1.007825032070
           C          3.869069678139    -0.099268205243     0.248622739146    12.000000000000
           H          3.497390678139    -1.819515205243     1.469292739146     1.007825032070
           H          2.929777678139    -0.332588205243     2.170278739146     1.007825032070
           H          3.946064678139    -0.619434205243    -0.702501260854     1.007825032070
           H          4.874867678139     0.025985794757     0.637877739146     1.007825032070
           H          3.471147678139     0.890944794757     0.052917739146     1.007825032070

  Charge       = 0
  Multiplicity = 1
  Basis Set: 6-31G*
  Basis Set:

    Orbital Energies (a.u.)
    -----------------------

    Doubly Occupied:

       1A    -20.550843     2A    -11.265615     3A    -11.216370
       4A    -11.215110     5A    -11.215094     6A    -11.213967
       7A    -11.213090     8A    -11.207935     9A     -1.357834
      10A     -1.090738    11A     -1.049895    12A     -0.985681
      13A     -0.914060    14A     -0.849962    15A     -0.805605
      16A     -0.777631    17A     -0.685483    18A     -0.646775
      19A     -0.624573    20A     -0.618256    21A     -0.597008
      22A     -0.584150    23A     -0.565072    24A     -0.533261
      25A     -0.519743    26A     -0.516322    27A     -0.490582
      28A     -0.479478    29A     -0.464789    30A     -0.460941
      31A     -0.457260    32A     -0.453428    33A     -0.416087

  @DF-RHF Final Energy:  -349.24124972801604

   => Energetics <=

    Nuclear Repulsion Energy =            381.5028013529300210
    One-Electron Energy =               -1229.4028346339096061
    Two-Electron Energy =                 498.6587835529637687
    DFT Exchange-Correlation Energy =       0.0000000000000000
    Empirical Dispersion Energy =           0.0000000000000000
    PCM Polarization Energy =               0.0000000000000000
    EFP Energy =                            0.0000000000000000
    Total Energy =                       -349.2412497280158732

  Mulliken Charges: (a.u.)
   Center  Symbol    Alpha    Beta     Spin     Total
       1     H     0.28370  0.28370  0.00000  0.43260
       2     O     4.36987  4.36987  0.00000 -0.73974
       3     C     2.99709  2.99709  0.00000  0.00583
       4     C     3.16891  3.16891  0.00000 -0.33782
       5     H     0.41341  0.41341  0.00000  0.17319
       6     H     0.42969  0.42969  0.00000  0.14061
       7     C     3.15795  3.15795  0.00000 -0.31590
       8     H     0.41874  0.41874  0.00000  0.16251
       9     H     0.42279  0.42279  0.00000  0.15441
      10     C     3.15442  3.15442  0.00000 -0.30884
      11     H     0.41610  0.41610  0.00000  0.16781
      12     H     0.42337  0.42337  0.00000  0.15326
      13     C     3.15265  3.15265  0.00000 -0.30529
      14     H     0.42088  0.42088  0.00000  0.15824
      15     H     0.42465  0.42465  0.00000  0.15071
      16     C     3.15232  3.15232  0.00000 -0.30465
      17     H     0.42338  0.42338  0.00000  0.15324
      18     H     0.42259  0.42259  0.00000  0.15482
      19     C     3.24114  3.24114  0.00000 -0.48228
      20     H     0.42096  0.42096  0.00000  0.15808
      21     H     0.42374  0.42374  0.00000  0.15252
      22     H     0.42190  0.42190  0.00000  0.15620
      23     H     0.41939  0.41939  0.00000  0.16122
      24     H     0.42036  0.42036  0.00000  0.15928

   Total alpha = 33.00000, Total beta = 33.00000, Total charge = -0.00000
