                              Psi4 1.0.54 Driver

  ==> Input File <==

--------------------------------------------------------------------------
set {
	reference rhf
	basis cc-pvtz
}

set_num_threads( 4 )
memory 2 gb

molecule MOL {
0 1

O	 1.028578	 1.241952	 1.205164
C	 -0.087758	 1.214690	 0.812541
C	 -1.052635	 2.364031	 0.893032
O	 -0.637375	 0.157174	 0.243149
H	 -1.921090	 2.069887	 1.468346
H	 -0.569911	 3.209192	 1.355977
H	 -1.390494	 2.625703	 -0.101426
C	 0.162530	 -1.009518	 0.097799
C	 1.587210	 -0.664190	 0.477086
H	 0.096803	 -1.356267	 -0.924704
H	 -0.233803	 -1.785900	 0.736810
C	 2.256770	 0.342732	 -0.454344
H	 2.154716	 -1.590834	 0.479041
H	 1.598751	 -0.289614	 1.496104
C	 3.698146	 0.643205	 -0.057145
H	 2.235038	 -0.042575	 -1.470299
H	 1.683491	 1.262594	 -0.461300
H	 4.150202	 1.356548	 -0.736242
H	 4.305463	 -0.255904	 -0.069842
H	 3.749130	 1.061068	 0.942759

	symmetry c1
}
set optking {
	frozen_dihedral = ("
		2 4 8 10
	")
}

ee,wfn = optimize('scf', return_wfn=True)
oeprop( wfn, 'DIPOLE', 'QUADRUPOLE', 'MULLIKEN_CHARGES')
f=open( 'psi4out.xyz', 'w' )
f.write( "20  " )
f.write( str(ee) + "\n" )
f.write( MOL.save_string_xyz() )
f.close()
--------------------------------------------------------------------------

    Molecular point group: c1
  Charge       = 0
  Multiplicity = 1
  Basis Set: CC-PVTZ
  Basis Set:
  @DF-RHF Final Energy:  -383.98991390587554
    Total Energy =                       -383.9899139058751416
    Molecular point group: c1
  Basis Set: CC-PVTZ
  Basis Set:
  Basis Set: CC-PVTZ
  Basis Set:
  @DF-RHF Final Energy:  -384.02912047606634
    Total Energy =                       -384.0291204760662822
  Basis Set: CC-PVTZ
  Basis Set:
  Basis Set: CC-PVTZ
  Basis Set:
  @DF-RHF Final Energy:  -384.05323786583671
    Total Energy =                       -384.0532378658369907
  Basis Set: CC-PVTZ
  Basis Set:
  Basis Set: CC-PVTZ
  Basis Set:
  @DF-RHF Final Energy:  -384.06407153976443
    Total Energy =                       -384.0640715397649956
  Basis Set: CC-PVTZ
  Basis Set:
  @DF-RHF Final Energy:  -384.06962287701100
    Total Energy =                       -384.0696228770109428
  @DF-RHF Final Energy:  -384.06385828098513
    Total Energy =                       -384.0638582809851869
  @DF-RHF Final Energy:  -384.07157456256067
    Total Energy =                       -384.0715745625611817
  @DF-RHF Final Energy:  -384.07276259129242
    Total Energy =                       -384.0727625912923031
  @DF-RHF Final Energy:  -384.07332226543161
    Total Energy =                       -384.0733222654314432
  @DF-RHF Final Energy:  -384.07352026289817
    Total Energy =                       -384.0735202628980005
  @DF-RHF Final Energy:  -384.07372932805629
    Total Energy =                       -384.0737293280564018
  Basis Set: CC-PVTZ
  Basis Set:
  @DF-RHF Final Energy:  -384.07382937040376
    Total Energy =                       -384.0738293704038142
  Basis Set: CC-PVTZ
  Basis Set:
  Basis Set: CC-PVTZ
  Basis Set:
  @DF-RHF Final Energy:  -384.07386421510921
    Total Energy =                       -384.0738642151093245
  Basis Set: CC-PVTZ
  Basis Set:
  Basis Set: CC-PVTZ
  Basis Set:
  @DF-RHF Final Energy:  -384.07386719071798
    Total Energy =                       -384.0738671907179196
  Basis Set: CC-PVTZ
  Basis Set:
  Charge       = 0
  Multiplicity = 1
  Basis Set: CC-PVTZ
  Basis Set:

    Orbital Energies (a.u.)
    -----------------------

    Doubly Occupied:

       1A    -20.591011     2A    -20.528968     3A    -11.368908
       4A    -11.287884     5A    -11.228688     6A    -11.217367
       7A    -11.211478     8A    -11.204027     9A     -1.463120
      10A     -1.365072    11A     -1.082120    12A     -1.026513
      13A     -0.978998    14A     -0.895312    15A     -0.813315
      16A     -0.743165    17A     -0.688095    18A     -0.681255
      19A     -0.676088    20A     -0.631010    21A     -0.603094
      22A     -0.589804    23A     -0.567958    24A     -0.560368
      25A     -0.541002    26A     -0.523732    27A     -0.516403
      28A     -0.477804    29A     -0.472825    30A     -0.466503
      31A     -0.441921    32A     -0.432119

  @DF-RHF Final Energy:  -384.07386774317609

   => Energetics <=

    Nuclear Repulsion Energy =            395.9000592542464005
    One-Electron Energy =               -1308.1959996918715206
    Two-Electron Energy =                 528.2220726944491389
    DFT Exchange-Correlation Energy =       0.0000000000000000
    Empirical Dispersion Energy =           0.0000000000000000
    PCM Polarization Energy =               0.0000000000000000
    EFP Energy =                            0.0000000000000000
    Total Energy =                       -384.0738677431760379
    Molecular point group: c1
  Basis Set: CC-PVTZ
  Basis Set:

  -Total Gradient:
     Atom            X                  Y                   Z
    ------   -----------------  -----------------  -----------------
       1        0.000009519217    -0.000059927492    -0.000039574651
       2       -0.000611763734     0.002091604039    -0.002981301778
       3       -0.000009171839     0.000017007823    -0.000032645200
       4        0.001048319224    -0.002585668620     0.004616705471
       5        0.000010419402     0.000012532687     0.000011837133
       6        0.000006786082    -0.000010386189     0.000004459357
       7        0.000004529740    -0.000022285835     0.000016995081
       8       -0.001354510798    -0.003008997194    -0.000882017449
       9       -0.000031112655    -0.000038319618    -0.000070779253
      10        0.000913191612     0.003561117702    -0.000636746959
      11       -0.000001820846     0.000007984105     0.000000672009
      12        0.000044689988     0.000034160897     0.000002732920
      13        0.000006331323     0.000014264886     0.000001788735
      14       -0.000015231027     0.000000648522    -0.000003610235
      15       -0.000036709793    -0.000009719982    -0.000036683631
      16       -0.000003861241    -0.000024865101    -0.000023355806
      17       -0.000027623316     0.000010980954     0.000016289558
      18        0.000013553256     0.000001581876     0.000003936268
      19        0.000032746809    -0.000007834376    -0.000012527279
      20        0.000001718592     0.000016120912     0.000043825711

  **** Optimization is complete! (in 15 steps) ****
    Final optimized geometry and variables:
    Molecular point group: c1

    Geometry (in Angstrom), charge = 0, multiplicity = 1:

    O           -0.531425417195     0.695726272859     1.288621531518
    C           -1.318711451453    -0.037182653734     0.795509360583
    C           -2.806706926462     0.076701515697     0.994633629229
    O           -1.038776003860    -1.065597848256     0.020801809810
    H           -3.191478492488    -0.847674088515     1.404983212842
    H           -3.019612854129     0.897255879165     1.660369179659
    H           -3.289043142649     0.237359817992     0.038984940157
    C            0.234041014915    -1.456812923751    -0.505827747934
    C            1.440645353500    -0.540292619504    -0.356893150134
    H            0.049362028414    -1.598945359864    -1.562086040953
    H            0.445910928741    -2.417121251779    -0.057985449904
    C            1.402857926342     0.722575519002    -1.213859937432
    H            2.282004499588    -1.150077687768    -0.680966115535
    H            1.612094776702    -0.291110531559     0.678508414358
    C            2.664137655734     1.565332551383    -1.057817904013
    H            1.284644093239     0.440108216787    -2.257480971859
    H            0.542133695691     1.322281717107    -0.949720780238
    H            2.626340291341     2.445753694210    -1.688750076776
    H            3.551318582003     1.001833357079    -1.329120902855
    H            2.781988146419     1.897386357407    -0.032411142129

  Mulliken Charges: (a.u.)
   Center  Symbol    Alpha    Beta     Spin     Total
       1     O     4.19955  4.19955  0.00000 -0.39910
       2     C     2.80655  2.80655  0.00000  0.38689
       3     C     3.13450  3.13450  0.00000 -0.26899
       4     O     4.15975  4.15975  0.00000 -0.31950
       5     H     0.44545  0.44545  0.00000  0.10909
       6     H     0.43915  0.43915  0.00000  0.12169
       7     H     0.44750  0.44750  0.00000  0.10501
       8     C     2.97950  2.97950  0.00000  0.04099
       9     C     3.11402  3.11402  0.00000 -0.22804
      10     H     0.45522  0.45522  0.00000  0.08956
      11     H     0.44708  0.44708  0.00000  0.10584
      12     C     3.07914  3.07914  0.00000 -0.15828
      13     H     0.44661  0.44661  0.00000  0.10678
      14     H     0.43414  0.43414  0.00000  0.13171
      15     C     3.15221  3.15221  0.00000 -0.30442
      16     H     0.45717  0.45717  0.00000  0.08566
      17     H     0.44685  0.44685  0.00000  0.10631
      18     H     0.44892  0.44892  0.00000  0.10217
      19     H     0.45741  0.45741  0.00000  0.08517
      20     H     0.44927  0.44927  0.00000  0.10145

   Total alpha = 32.00000, Total beta = 32.00000, Total charge = -0.00000

*** Psi4 exiting successfully. Buy a developer a beer!
