                              Psi4 1.0.54 Driver

  ==> Input File <==

--------------------------------------------------------------------------
set {
	reference rhf
	basis cc-pvtz
}

set_num_threads( 4 )
memory 2 gb

molecule MOL {
0 1

H	 -2.171709	 0.882708	 0.500286
C	 -2.016894	 0.001719	 -0.114152
O	 -0.775228	 0.000056	 -0.739966
H	 -2.760846	 0.003757	 -0.898169
H	 -2.174774	 -0.879864	 0.498643
C	 0.115414	 -1.079212	 -0.536947
C	 1.334832	 -0.712310	 -1.375571
C	 0.513133	 -1.196636	 0.935694
C	 -0.485654	 -2.393093	 -1.039966
H	 1.749079	 0.229836	 -1.039620
H	 1.053942	 -0.604906	 -2.415604
H	 2.101360	 -1.474390	 -1.300494
H	 0.876927	 -0.244931	 1.303908
H	 1.301416	 -1.930835	 1.051671
H	 -0.315869	 -1.509926	 1.557921
H	 -0.825296	 -2.283968	 -2.062915
H	 0.259173	 -3.179366	 -1.010222
H	 -1.322893	 -2.716479	 -0.434144

	symmetry c1
}
set optking {
	frozen_dihedral = ("
		6 3 2 5
	")
}

ee,wfn = optimize('scf', return_wfn=True)
oeprop( wfn, 'DIPOLE', 'QUADRUPOLE', 'MULLIKEN_CHARGES')
f=open( 'psi4out.xyz', 'w' )
f.write( "18  " )
f.write( str(ee) + "\n" )
f.write( MOL.save_string_xyz() )
f.close()
--------------------------------------------------------------------------

    Molecular point group: c1
  Charge       = 0
  Multiplicity = 1
  Basis Set: CC-PVTZ
  Basis Set:
  @DF-RHF Final Energy:  -271.27360251139191
    Total Energy =                       -271.2736025113919140
    Molecular point group: c1
  Basis Set: CC-PVTZ
  Basis Set:
  Basis Set: CC-PVTZ
  Basis Set:
  @DF-RHF Final Energy:  -271.27418241495855
    Total Energy =                       -271.2741824149585455
  Basis Set: CC-PVTZ
  Basis Set:
  Basis Set: CC-PVTZ
  Basis Set:
  @DF-RHF Final Energy:  -271.27436434427739
    Total Energy =                       -271.2743643442772168
  Basis Set: CC-PVTZ
  Basis Set:
  Basis Set: CC-PVTZ
  Basis Set:
  @DF-RHF Final Energy:  -271.27435559222340
    Total Energy =                       -271.2743555922234009
  Basis Set: CC-PVTZ
  Basis Set:
  Basis Set: CC-PVTZ
  Basis Set:
  @DF-RHF Final Energy:  -271.27441316607423
    Total Energy =                       -271.2744131660739981
  Basis Set: CC-PVTZ
  Basis Set:
  Basis Set: CC-PVTZ
  Basis Set:
  @DF-RHF Final Energy:  -271.27441918284637
    Total Energy =                       -271.2744191828464864
  Basis Set: CC-PVTZ
  Basis Set:
  Charge       = 0
  Multiplicity = 1
  Basis Set: CC-PVTZ
  Basis Set:

    Orbital Energies (a.u.)
    -----------------------

    Doubly Occupied:

       1A    -20.538043     2A    -11.280838     3A    -11.258435
       4A    -11.207055     5A    -11.207039     6A    -11.201767
       7A     -1.371074     8A     -1.074129     9A     -0.946473
      10A     -0.940996    11A     -0.913526    12A     -0.753847
      13A     -0.656401    14A     -0.645491    15A     -0.640529
      16A     -0.590798    17A     -0.572026    18A     -0.552268
      19A     -0.539153    20A     -0.524730    21A     -0.515375
      22A     -0.491500    23A     -0.488359    24A     -0.439508
      25A     -0.404043

  @DF-RHF Final Energy:  -271.27441941850071

   => Energetics <=

    Nuclear Repulsion Energy =            272.4698691973845257
    One-Electron Energy =                -907.9817696964314564
    Two-Electron Energy =                 364.2374810805465586
    DFT Exchange-Correlation Energy =       0.0000000000000000
    Empirical Dispersion Energy =           0.0000000000000000
    PCM Polarization Energy =               0.0000000000000000
    EFP Energy =                            0.0000000000000000
    Total Energy =                       -271.2744194185004289
    Molecular point group: c1
  Basis Set: CC-PVTZ
  Basis Set:

  -Total Gradient:
     Atom            X                  Y                   Z
    ------   -----------------  -----------------  -----------------
       1        0.000003676983    -0.000004323659    -0.000016583483
       2        0.000005433942    -0.000042767023     0.000023606784
       3       -0.000007701585     0.000063995270    -0.000041179046
       4        0.000016310404     0.000007217217     0.000009873747
       5       -0.000031511032     0.000029280420     0.000001641650
       6       -0.000031804188    -0.000003507482     0.000019335647
       7       -0.000021681022    -0.000006668331     0.000016421471
       8        0.000027433392    -0.000005794826     0.000011164169
       9        0.000016082936    -0.000023104362    -0.000007703991
      10       -0.000002631387     0.000003168227     0.000004078854
      11       -0.000006913622    -0.000001112083     0.000004111604
      12       -0.000004125076     0.000000577434     0.000001313206
      13        0.000006353575    -0.000014289337    -0.000011196322
      14       -0.000006190460     0.000000296755     0.000010306754
      15        0.000013916435     0.000004349409    -0.000006277342
      16        0.000008165374    -0.000004857985    -0.000004935929
      17       -0.000007398385    -0.000002814938     0.000000285135
      18        0.000022583716     0.000000355296    -0.000014262909

  **** Optimization is complete! (in 7 steps) ****
    Final optimized geometry and variables:
    Molecular point group: c1

    Geometry (in Angstrom), charge = 0, multiplicity = 1:

    H           -1.847485504558     1.770371782979     1.031093208136
    C           -1.778562300909     0.886859552137     0.406746865373
    O           -0.550455793698     0.878484216864    -0.254762764532
    H           -2.581531033319     0.918378130408    -0.320840834348
    H           -1.932199579838     0.020617272148     1.036063272998
    C            0.356029383133    -0.190707561759    -0.073125231770
    C            1.546069439271     0.178986180645    -0.951582981255
    C            0.801166144239    -0.288598402804     1.387317321658
    C           -0.251316046400    -1.510465091495    -0.552703459352
    H            1.964223135776     1.125990703350    -0.635036978237
    H            1.232821231488     0.276819015263    -1.983166396719
    H            2.319565918446    -0.577780075785    -0.894555546261
    H            1.203655631561     0.660791227807     1.718928381245
    H            1.571263006901    -1.042995114476     1.497100710003
    H           -0.015500028896    -0.559230088190     2.045018397546
    H           -0.586046048098    -1.415997980621    -1.578559305396
    H            0.485357578564    -2.303755697395    -0.505586362946
    H           -1.095890520407    -1.814370656637     0.053167028006

  Mulliken Charges: (a.u.)
   Center  Symbol    Alpha    Beta     Spin     Total
       1     H     0.45374  0.45374  0.00000  0.09251
       2     C     3.04250  3.04250  0.00000 -0.08499
       3     O     4.19391  4.19391  0.00000 -0.38782
       4     H     0.45374  0.45374  0.00000  0.09251
       5     H     0.46837  0.46837  0.00000  0.06326
       6     C     2.87904  2.87904  0.00000  0.24191
       7     C     3.14298  3.14298  0.00000 -0.28595
       8     C     3.16057  3.16057  0.00000 -0.32115
       9     C     3.16057  3.16057  0.00000 -0.32114
      10     H     0.44902  0.44902  0.00000  0.10196
      11     H     0.44902  0.44902  0.00000  0.10196
      12     H     0.45922  0.45922  0.00000  0.08155
      13     H     0.44659  0.44659  0.00000  0.10681
      14     H     0.44871  0.44871  0.00000  0.10257
      15     H     0.44835  0.44835  0.00000  0.10331
      16     H     0.44659  0.44659  0.00000  0.10682
      17     H     0.44872  0.44872  0.00000  0.10257
      18     H     0.44834  0.44834  0.00000  0.10331

   Total alpha = 25.00000, Total beta = 25.00000, Total charge = -0.00000

*** Psi4 exiting successfully. Buy a developer a beer!
