  ==> Input File <==

--------------------------------------------------------------------------
set {
	reference rhf
	basis 6-31G*
}

set_num_threads( 4 )
memory 2 gb

molecule MOL {
0 1

H	 -3.301617	 0.570527	 0.000000
C	 -2.250981	 0.344174	 0.000000
C	 -1.813665	 -0.976045	 0.000000
C	 -1.315303	 1.358057	 0.000000
H	 -2.528860	 -1.779366	 0.000000
C	 -0.467298	 -1.270142	 0.000000
H	 -1.635074	 2.385107	 0.000000
C	 0.047081	 1.078114	 0.000000
H	 -0.115948	 -2.285222	 0.000000
C	 0.472063	 -0.241155	 0.000000
H	 0.749976	 1.888426	 0.000000
O	 1.765256	 -0.628444	 0.000000
C	 2.696949	 0.063147	 -0.780207
H	 2.447265	 0.012870	 -1.834940
H	 3.647173	 -0.423240	 -0.617986
H	 2.773664	 1.102747	 -0.479078

	symmetry c1
}
set optking {
	frozen_dihedral = ("
		13 12 10 8
	")
}

ee = optimize('scf')
oeprop('DIPOLE', 'QUADRUPOLE', 'MULLIKEN_CHARGES')
f=open( 'psi4out.xyz', 'w' )
f.write( "16  " )
f.write( str(ee) + "\n" )
f.write( MOL.save_string_xyz() )
f.close()
--------------------------------------------------------------------------

    Molecular point group: c1
  Charge       = 0
  Multiplicity = 1
  Basis Set: 6-31G*
  Basis Set:
  @DF-RHF Final Energy:  -344.58011118114695
    Total Energy =                       -344.5801111811468900
    Molecular point group: c1
  Basis Set: 6-31G*
  Basis Set:
  Basis Set: 6-31G*
  Basis Set:
  @DF-RHF Final Energy:  -344.58076765451352
    Total Energy =                       -344.5807676545135223
  Basis Set: 6-31G*
  Basis Set:
  Basis Set: 6-31G*
  Basis Set:
  @DF-RHF Final Energy:  -344.58096352302698
    Total Energy =                       -344.5809635230268100
  Basis Set: 6-31G*
  Basis Set:
  Basis Set: 6-31G*
  Basis Set:
  @DF-RHF Final Energy:  -344.58098296166327
    Total Energy =                       -344.5809829616634374
  Basis Set: 6-31G*
  Basis Set:
  Basis Set: 6-31G*
  Basis Set:
  @DF-RHF Final Energy:  -344.58098429210298
    Total Energy =                       -344.5809842921029258
  Basis Set: 6-31G*
  Basis Set:
  Charge       = 0
  Multiplicity = 1
  Basis Set: 6-31G*
  Basis Set:

    Orbital Energies (a.u.)
    -----------------------

    Doubly Occupied:

       1A    -20.578762     2A    -11.290562     3A    -11.278108
       4A    -11.233306     5A    -11.231850     6A    -11.225058
       7A    -11.222018     8A    -11.220803     9A     -1.407334
      10A     -1.146462    11A     -1.019734    12A     -1.013451
      13A     -0.938195    14A     -0.831848    15A     -0.805295
      16A     -0.717848    17A     -0.665273    18A     -0.661557
      19A     -0.648452    20A     -0.614908    21A     -0.589758
      22A     -0.580025    23A     -0.527863    24A     -0.513129
      25A     -0.505996    26A     -0.480520    27A     -0.450130
      28A     -0.334679    29A     -0.310370

  @DF-RHF Final Energy:  -344.58098448216242

   => Energetics <=

    Nuclear Repulsion Energy =            347.9297291261311784
    One-Electron Energy =               -1156.9348382220728126
    Two-Electron Energy =                 464.4241246137792132
    DFT Exchange-Correlation Energy =       0.0000000000000000
    Empirical Dispersion Energy =           0.0000000000000000
    PCM Polarization Energy =               0.0000000000000000
    EFP Energy =                            0.0000000000000000
    Total Energy =                       -344.5809844821624210
    Molecular point group: c1
  Basis Set: 6-31G*
  Basis Set:

  -Total Gradient:
     Atom            X                  Y                   Z
    ------   -----------------  -----------------  -----------------
       1        0.000000341490    -0.000003399860    -0.000005123578
       2        0.000013512142     0.000065224623    -0.000010081230
       3        0.000046748221    -0.000040138237     0.000006178953
       4       -0.000060615898    -0.000026159407     0.000024718619
       5       -0.000005108559     0.000001289831    -0.000000245098
       6       -0.000048268985    -0.000037326100    -0.000007266194
       7        0.000001972662     0.000003247760    -0.000004878384
       8        0.000003610067    -0.000016863694     0.001650227728
       9        0.000002861980     0.000006685423    -0.000001279184
      10       -0.000039983742    -0.000457186265    -0.003171549856
      11        0.000004419385    -0.000000897791    -0.000002130085
      12        0.000313452173     0.001482074313     0.002740542435
      13       -0.000240587863    -0.000973447890    -0.001221635085
      14        0.000014910364    -0.000002496402     0.000002185664
      15       -0.000005315769    -0.000006056619    -0.000006130780
      16       -0.000001947675     0.000005450318     0.000006466075

  **** Optimization is complete! (in 6 steps) ****
    Final optimized geometry and variables:
    Molecular point group: c1

    Geometry (in Angstrom), charge = 0, multiplicity = 1:

    H           -3.286971214483     0.610845062230     0.106481665088
    C           -2.237246605402     0.379645744753     0.104885625205
    C           -1.808525266078    -0.939973404746     0.142202167319
    C           -1.297324088616     1.393329954200     0.068108073406
    H           -2.528213426207    -1.738693898864     0.172548876251
    C           -0.459838309987    -1.240647933989     0.134649445655
    H           -1.614714848123     2.420804313452     0.045485743913
    C            0.059982449144     1.104295266568     0.068485655536
    H           -0.113076430763    -2.256954190492     0.161801069975
    C            0.478648356178    -0.217423096349     0.094063652518
    H            0.776681589213     1.903884661259     0.053973130606
    O            1.783509111130    -0.581529783398     0.137750906679
    C            2.708429627833     0.138360367150    -0.632142736659
    H            2.338627028611     0.299764837442    -1.638963707121
    H            3.607308540862    -0.459685982704    -0.670413520610
    H            2.947126820047     1.095833479115    -0.181982664275

  Mulliken Charges: (a.u.)
   Center  Symbol    Alpha    Beta     Spin     Total
       1     H     0.40071  0.40071  0.00000  0.19858
       2     C     3.10963  3.10963  0.00000 -0.21927
       3     C     3.09386  3.09386  0.00000 -0.18772
       4     C     3.09330  3.09330  0.00000 -0.18659
       5     H     0.39859  0.39859  0.00000  0.20282
       6     C     3.12405  3.12405  0.00000 -0.24809
       7     H     0.39916  0.39916  0.00000  0.20168
       8     C     3.13429  3.13429  0.00000 -0.26857
       9     H     0.39303  0.39303  0.00000  0.21393
      10     C     2.78954  2.78954  0.00000  0.42093
      11     H     0.39735  0.39735  0.00000  0.20530
      12     O     4.32914  4.32914  0.00000 -0.65828
      13     C     3.08835  3.08835  0.00000 -0.17670
      14     H     0.41943  0.41943  0.00000  0.16114
      15     H     0.40728  0.40728  0.00000  0.18544
      16     H     0.42230  0.42230  0.00000  0.15540

   Total alpha = 29.00000, Total beta = 29.00000, Total charge =  0.00000
