  ==> Input File <==

--------------------------------------------------------------------------
set {
	reference rhf
	basis 6-31G*
}

set_num_threads( 1 )
memory 2 gb

molecule MOL {
0 1

O	 -2.474993	 -0.466623	 1.311447
C	 -1.420639	 -0.316092	 1.850069
C	 -0.161714	 -0.953588	 1.288810
C	 -1.277596	 0.536708	 3.090893
C	 0.379448	 -0.143569	 0.099626
H	 -0.419021	 -1.953939	 0.958062
H	 0.600203	 -1.037260	 2.058556
C	 1.631333	 -0.777471	 -0.511575
H	 -0.408170	 -0.063035	 -0.641019
H	 0.612342	 0.870009	 0.422374
C	 2.915987	 -0.544314	 0.291766
H	 1.766672	 -0.399098	 -1.523130
H	 1.471257	 -1.849544	 -0.605828
C	 3.373361	 0.914346	 0.347591
H	 3.708709	 -1.142521	 -0.150311
H	 2.780642	 -0.921148	 1.303579
H	 3.506512	 1.320010	 -0.651625
H	 4.322697	 0.999599	 0.867103
H	 2.660624	 1.545032	 0.868198
H	 -0.998520	 -0.089445	 3.934287
H	 -2.212276	 1.034934	 3.307520
H	 -0.488344	 1.271945	 2.963177

	symmetry c1
}
set optking {
	frozen_dihedral = ("
		6 3 2 1,
		6 3 5 8,
		12 8 11 15
	")
}

ee = energy('scf')
oeprop('DIPOLE', 'QUADRUPOLE', 'MULLIKEN_CHARGES')
f=open( 'psi4out.xyz', 'w' )
f.write( "22  " )
f.write( str(ee) + "\n" )
f.write( MOL.save_string_xyz() )
f.close()
--------------------------------------------------------------------------

    Molecular point group: c1

    Geometry (in Angstrom), charge = 0, multiplicity = 1:

       Center              X                  Y                   Z               Mass
    ------------   -----------------  -----------------  -----------------  -----------------
           O         -2.849478383470    -0.262520038725     0.332728250690    15.994914619560
           C         -1.795124383470    -0.111989038725     0.871350250690    12.000000000000
           C         -0.536199383470    -0.749485038725     0.310091250690    12.000000000000
           C         -1.652081383470     0.740810961275     2.112174250690    12.000000000000
           C          0.004962616530     0.060533961275    -0.879092749310    12.000000000000
           H         -0.793506383470    -1.749836038725    -0.020656749310     1.007825032070
           H          0.225717616530    -0.833157038725     1.079837250690     1.007825032070
           C          1.256847616530    -0.573368038725    -1.490293749310    12.000000000000
           H         -0.782655383470     0.141067961275    -1.619737749310     1.007825032070
           H          0.237856616530     1.074111961275    -0.556344749310     1.007825032070
           C          2.541501616530    -0.340211038725    -0.686952749310    12.000000000000
           H          1.392186616530    -0.194995038725    -2.501848749310     1.007825032070
           H          1.096771616530    -1.645441038725    -1.584546749310     1.007825032070
           C          2.998875616530     1.118448961275    -0.631127749310    12.000000000000
           H          3.334223616530    -0.938418038725    -1.129029749310     1.007825032070
           H          2.406156616530    -0.717045038725     0.324860250690     1.007825032070
           H          3.132026616530     1.524112961275    -1.630343749310     1.007825032070
           H          3.948211616530     1.203701961275    -0.111615749310     1.007825032070
           H          2.286138616530     1.749134961275    -0.110520749310     1.007825032070
           H         -1.373005383470     0.114657961275     2.955568250690     1.007825032070
           H         -2.586761383470     1.239036961275     2.328801250690     1.007825032070
           H         -0.862829383470     1.476047961275     1.984458250690     1.007825032070

  Charge       = 0
  Multiplicity = 1
  Basis Set: 6-31G*
  Basis Set:

    Orbital Energies (a.u.)
    -----------------------

    Doubly Occupied:

       1A    -20.547266     2A    -11.324344     3A    -11.229023
       4A    -11.228447     5A    -11.228228     6A    -11.223053
       7A    -11.222139     8A    -11.215389     9A     -1.392979
      10A     -1.097980    11A     -1.043232    12A     -0.999706
      13A     -0.939899    14A     -0.863526    15A     -0.780999
      16A     -0.735121    17A     -0.663194    18A     -0.650791
      19A     -0.623194    20A     -0.613947    21A     -0.605259
      22A     -0.576260    23A     -0.564543    24A     -0.552208
      25A     -0.532031    26A     -0.522155    27A     -0.508800
      28A     -0.485542    29A     -0.466073    30A     -0.463980
      31A     -0.459273    32A     -0.396907

  @DF-RHF Final Energy:  -348.09575164292630

   => Energetics <=

    Nuclear Repulsion Energy =            378.4396383284382637
    One-Electron Energy =               -1221.5594956086504226
    Two-Electron Energy =                 495.0241056372870503
    DFT Exchange-Correlation Energy =       0.0000000000000000
    Empirical Dispersion Energy =           0.0000000000000000
    PCM Polarization Energy =               0.0000000000000000
    EFP Energy =                            0.0000000000000000
    Total Energy =                       -348.0957516429251086

  Mulliken Charges: (a.u.)
   Center  Symbol    Alpha    Beta     Spin     Total
       1     O     4.26255  4.26255  0.00000 -0.52510
       2     C     2.73622  2.73622  0.00000  0.52755
       3     C     3.20212  3.20212  0.00000 -0.40424
       4     C     3.28946  3.28946  0.00000 -0.57892
       5     C     3.16560  3.16560  0.00000 -0.33120
       6     H     0.40119  0.40119  0.00000  0.19761
       7     H     0.41592  0.41592  0.00000  0.16816
       8     C     3.15592  3.15592  0.00000 -0.31183
       9     H     0.40306  0.40306  0.00000  0.19387
      10     H     0.41877  0.41877  0.00000  0.16246
      11     C     3.15570  3.15570  0.00000 -0.31139
      12     H     0.41789  0.41789  0.00000  0.16422
      13     H     0.41913  0.41913  0.00000  0.16174
      14     C     3.24110  3.24110  0.00000 -0.48221
      15     H     0.41798  0.41798  0.00000  0.16403
      16     H     0.42339  0.42339  0.00000  0.15323
      17     H     0.41997  0.41997  0.00000  0.16006
      18     H     0.41752  0.41752  0.00000  0.16497
      19     H     0.42232  0.42232  0.00000  0.15537
      20     H     0.40701  0.40701  0.00000  0.18599
      21     H     0.39705  0.39705  0.00000  0.20591
      22     H     0.41014  0.41014  0.00000  0.17972

   Total alpha = 32.00000, Total beta = 32.00000, Total charge = -0.00000
