                              Psi4 1.0.54 Driver

  ==> Input File <==

--------------------------------------------------------------------------
set {
	reference rhf
	basis cc-pvtz
}

set_num_threads( 4 )
memory 2 gb

molecule MOL {
0 1

H	 -2.247920	 -1.640083	 -1.875741
N	 -1.337429	 -1.652802	 -1.468416
C	 -1.344082	 -1.029041	 -0.158065
H	 -0.725970	 -1.155308	 -2.080474
C	 0.042323	 -1.045523	 0.443811
H	 -1.701284	 -0.000054	 -0.169771
H	 -2.002498	 -1.594437	 0.492217
O	 0.881195	 -0.248324	 -0.336237
H	 0.006981	 -0.665146	 1.463732
H	 0.415725	 -2.066610	 0.473519
C	 2.208068	 -0.234417	 0.074171
H	 2.725499	 -1.027054	 -0.446768
H	 2.688377	 0.712084	 -0.164856
H	 2.295137	 -0.403407	 1.144883

	symmetry c1
}
set optking {
	frozen_dihedral = ("
		5 8 11 13
	")
}

ee,wfn = optimize('scf', return_wfn=True)
oeprop( wfn, 'DIPOLE', 'QUADRUPOLE', 'MULLIKEN_CHARGES')
f=open( 'psi4out.xyz', 'w' )
f.write( "14  " )
f.write( str(ee) + "\n" )
f.write( MOL.save_string_xyz() )
f.close()
--------------------------------------------------------------------------

    Molecular point group: c1
  Charge       = 0
  Multiplicity = 1
  Basis Set: CC-PVTZ
  Basis Set:
  @DF-RHF Final Energy:  -248.22353371114372
    Total Energy =                       -248.2235337111436024
    Molecular point group: c1
  Basis Set: CC-PVTZ
  Basis Set:
  Basis Set: CC-PVTZ
  Basis Set:
  @DF-RHF Final Energy:  -248.20995698187309
    Total Energy =                       -248.2099569818730629
  Basis Set: CC-PVTZ
  Basis Set:
  Basis Set: CC-PVTZ
  Basis Set:
  @DF-RHF Final Energy:  -248.22428227609834
    Total Energy =                       -248.2242822760981653
  Basis Set: CC-PVTZ
  Basis Set:
  Basis Set: CC-PVTZ
  Basis Set:
  @DF-RHF Final Energy:  -248.22443074306364
    Total Energy =                       -248.2244307430634080
  Basis Set: CC-PVTZ
  Basis Set:
  Charge       = 0
  Multiplicity = 1
  Basis Set: CC-PVTZ
  Basis Set:

    Orbital Energies (a.u.)
    -----------------------

    Doubly Occupied:

       1A    -20.549007     2A    -15.523396     3A    -11.264162
       4A    -11.263398     5A    -11.239635     6A     -1.382193
       7A     -1.175832     8A     -1.000433     9A     -0.907728
      10A     -0.815567    11A     -0.685004    12A     -0.674899
      13A     -0.645722    14A     -0.611547    15A     -0.607723
      16A     -0.541456    17A     -0.533877    18A     -0.496643
      19A     -0.473937    20A     -0.417769    21A     -0.383808

  @DF-RHF Final Energy:  -248.22443199890580

   => Energetics <=

    Nuclear Repulsion Energy =            194.5565818116140235
    One-Electron Energy =                -723.1745594562689803
    Two-Electron Energy =                 280.3935456457492705
    DFT Exchange-Correlation Energy =       0.0000000000000000
    Empirical Dispersion Energy =           0.0000000000000000
    PCM Polarization Energy =               0.0000000000000000
    EFP Energy =                            0.0000000000000000
    Total Energy =                       -248.2244319989056862
    Molecular point group: c1
  Basis Set: CC-PVTZ
  Basis Set:

  -Total Gradient:
     Atom            X                  Y                   Z
    ------   -----------------  -----------------  -----------------
       1        0.000018540149     0.000006637372     0.000024264614
       2       -0.000019858424    -0.000107282420    -0.000026759125
       3        0.000030276532     0.000138763615     0.000001327834
       4        0.000005046910     0.000032639543     0.000034309888
       5       -0.000615195488     0.001215017743     0.001837728966
       6       -0.000031544041     0.000030341637     0.000010841996
       7        0.000012177308    -0.000032074924    -0.000027229852
       8        0.000720825900    -0.001732758311    -0.002018923139
       9       -0.000015747441    -0.000006620660     0.000033080443
      10        0.000049657197     0.000002328933    -0.000024045773
      11        0.000704291007     0.000229478868    -0.002500755940
      12       -0.000024958843    -0.000014046423    -0.000050025487
      13       -0.000840386473     0.000256271543     0.002664307475
      14        0.000006875707    -0.000018696516     0.000041878105

  **** Optimization is complete! (in 5 steps) ****
    Final optimized geometry and variables:
    Molecular point group: c1

    Geometry (in Angstrom), charge = 0, multiplicity = 1:

    H           -2.273324899600    -0.602792643156    -1.764384014625
    N           -1.360161561384    -0.623883316796    -1.363512726057
    C           -1.414042487791    -0.389651367359     0.067711192707
    H           -0.820249198072     0.089601416575    -1.805626569903
    C           -0.024799276303    -0.418094977486     0.662331998940
    H           -1.882240173329     0.557085718043     0.334578221801
    H           -1.995546983910    -1.181312229207     0.527433802771
    O            0.705483129623     0.653560959474     0.144612014514
    H           -0.084633793475    -0.338464565009     1.746302654006
    H            0.456986876624    -1.361275098962     0.414652340585
    C            2.036400710084     0.715522904750     0.547330888401
    H            2.680127033370     0.158177629736    -0.126879706109
    H            2.339589702633     1.753557153231     0.563283864481
    H            2.166291369228     0.319477946359     1.551190869344

  Mulliken Charges: (a.u.)
   Center  Symbol    Alpha    Beta     Spin     Total
       1     H     0.43029  0.43029  0.00000  0.13942
       2     N     3.69417  3.69417  0.00000 -0.38834
       3     C     3.02338  3.02338  0.00000 -0.04676
       4     H     0.42236  0.42236  0.00000  0.15528
       5     C     2.96801  2.96801  0.00000  0.06398
       6     H     0.46470  0.46470  0.00000  0.07060
       7     H     0.45872  0.45872  0.00000  0.08257
       8     O     4.18232  4.18232  0.00000 -0.36465
       9     H     0.46884  0.46884  0.00000  0.06233
      10     H     0.46971  0.46971  0.00000  0.06057
      11     C     3.02949  3.02949  0.00000 -0.05897
      12     H     0.46303  0.46303  0.00000  0.07394
      13     H     0.45178  0.45178  0.00000  0.09643
      14     H     0.47320  0.47320  0.00000  0.05360

   Total alpha = 21.00000, Total beta = 21.00000, Total charge = -0.00000

*** Psi4 exiting successfully. Buy a developer a beer!
