                              Psi4 1.0.54 Driver

  ==> Input File <==

--------------------------------------------------------------------------
set {
	reference rhf
	basis cc-pvtz
}

set_num_threads( 4 )
memory 2 gb

molecule MOL {
0 1

H	 -3.258660	 -0.290394	 1.471450
C	 -3.307964	 -0.275695	 0.374072
C	 -2.653809	 0.914422	 -0.273689
O	 -3.855140	 -1.148880	 -0.205112
C	 -1.216901	 1.136108	 0.207794
H	 -2.700131	 0.790676	 -1.347875
H	 -3.256452	 1.781007	 -0.010713
C	 -0.247837	 0.040196	 -0.230469
H	 -0.872882	 2.093195	 -0.169002
H	 -1.209325	 1.218376	 1.291938
C	 1.181757	 0.280428	 0.247371
H	 -0.259600	 -0.030819	 -1.314870
H	 -0.591284	 -0.923375	 0.136958
C	 2.151032	 -0.811012	 -0.202643
H	 1.515939	 1.247397	 -0.115449
H	 1.191514	 0.341223	 1.333422
C	 3.580021	 -0.656538	 0.320835
H	 2.170545	 -0.847575	 -1.289412
H	 1.766632	 -1.772905	 0.124928
C	 4.045371	 0.787660	 0.490621
H	 4.252379	 -1.159355	 -0.367279
H	 3.672737	 -1.178995	 1.269386
H	 3.957644	 1.337041	 -0.441301
H	 3.468494	 1.314965	 1.240853
H	 5.084651	 0.822722	 0.796614

	symmetry c1
}
set optking {
	frozen_dihedral = ("
		20 17 14 18
	")
}

ee,wfn = optimize('scf', return_wfn=True)
oeprop( wfn, 'DIPOLE', 'QUADRUPOLE', 'MULLIKEN_CHARGES')
f=open( 'psi4out.xyz', 'w' )
f.write( "25  " )
f.write( str(ee) + "\n" )
f.write( MOL.save_string_xyz() )
f.close()
--------------------------------------------------------------------------

    Molecular point group: c1
  Charge       = 0
  Multiplicity = 1
  Basis Set: CC-PVTZ
  Basis Set:
  @DF-RHF Final Energy:  -387.25601137232837
    Total Energy =                       -387.2560113723278619
    Molecular point group: c1
  Basis Set: CC-PVTZ
  Basis Set:
  Basis Set: CC-PVTZ
  Basis Set:
  @DF-RHF Final Energy:  -387.25633307307174
    Total Energy =                       -387.2563330730720281
  Basis Set: CC-PVTZ
  Basis Set:
  Basis Set: CC-PVTZ
  Basis Set:
  @DF-RHF Final Energy:  -387.25681270751306
    Total Energy =                       -387.2568127075124949
  Basis Set: CC-PVTZ
  Basis Set:
  Basis Set: CC-PVTZ
  Basis Set:
  @DF-RHF Final Energy:  -387.25654933072417
    Total Energy =                       -387.2565493307248516
  Basis Set: CC-PVTZ
  Basis Set:
  Basis Set: CC-PVTZ
  Basis Set:
  @DF-RHF Final Energy:  -387.25682150523846
    Total Energy =                       -387.2568215052391452
  Basis Set: CC-PVTZ
  Basis Set:
  Basis Set: CC-PVTZ
  Basis Set:
  @DF-RHF Final Energy:  -387.25682481795502
    Total Energy =                       -387.2568248179549073
  Basis Set: CC-PVTZ
  Basis Set:
  Charge       = 0
  Multiplicity = 1
  Basis Set: CC-PVTZ
  Basis Set:

    Orbital Energies (a.u.)
    -----------------------

    Doubly Occupied:

       1A    -20.551398     2A    -11.320975     3A    -11.233789
       4A    -11.232850     5A    -11.221744     6A    -11.218208
       7A    -11.216418     8A    -11.214979     9A    -11.208806
      10A     -1.406477    11A     -1.105206    12A     -1.069723
      13A     -1.014042    14A     -0.943329    15A     -0.878904
      16A     -0.823060    17A     -0.788695    18A     -0.776467
      19A     -0.668180    20A     -0.664286    21A     -0.637725
      22A     -0.625674    23A     -0.603215    24A     -0.592856
      25A     -0.577306    26A     -0.552058    27A     -0.536110
      28A     -0.526862    29A     -0.512841    30A     -0.497743
      31A     -0.491451    32A     -0.481127    33A     -0.461537
      34A     -0.454444    35A     -0.444458    36A     -0.411911

  @DF-RHF Final Energy:  -387.25682507783688

   => Energetics <=

    Nuclear Repulsion Energy =            440.5965792277573883
    One-Electron Energy =               -1397.7771003951052080
    Two-Electron Energy =                 569.9236960895109405
    DFT Exchange-Correlation Energy =       0.0000000000000000
    Empirical Dispersion Energy =           0.0000000000000000
    PCM Polarization Energy =               0.0000000000000000
    EFP Energy =                            0.0000000000000000
    Total Energy =                       -387.2568250778368792
    Molecular point group: c1
  Basis Set: CC-PVTZ
  Basis Set:

  -Total Gradient:
     Atom            X                  Y                   Z
    ------   -----------------  -----------------  -----------------
       1        0.000035090202     0.000054017390    -0.000087373847
       2       -0.000098118333    -0.000127748155     0.000088804172
       3       -0.000026436036    -0.000054204199    -0.000022015267
       4        0.000099300565     0.000152612260     0.000002382768
       5        0.000029961013    -0.000038053543     0.000024769705
       6       -0.000004391165    -0.000003819365     0.000000876870
       7        0.000002138135    -0.000015029875     0.000001991669
       8        0.000004821940    -0.000016207276    -0.000003884158
       9        0.000001375110    -0.000005878120    -0.000007425412
      10        0.000006288699    -0.000003436952    -0.000004143366
      11       -0.000041096065     0.000063949000     0.000006159424
      12       -0.000015030877     0.000006432564    -0.000001993914
      13       -0.000024572371    -0.000000621167    -0.000000170221
      14       -0.001177218263     0.007299007805     0.001712255881
      15       -0.000017763677    -0.000003216896    -0.000013560685
      16        0.000020894406     0.000008140005     0.000013715050
      17        0.002393447779    -0.001362192307    -0.006004494227
      18        0.000370994158    -0.005888681658     0.000035104744
      19        0.000028357902     0.000015445886     0.000021386840
      20       -0.001650681855    -0.000091348835     0.004179729296
      21        0.000027022678    -0.000039849924     0.000005444181
      22        0.000021460095     0.000072275946    -0.000006671547
      23       -0.000033117320    -0.000058303031    -0.000004272404
      24       -0.000013632996     0.000080858499     0.000059833926
      25        0.000060906271    -0.000044148051     0.000003550524

  **** Optimization is complete! (in 7 steps) ****
    Final optimized geometry and variables:
    Molecular point group: c1

    Geometry (in Angstrom), charge = 0, multiplicity = 1:

    H           -3.240559258584    -0.436854018199     1.345947965096
    C           -3.283416886574    -0.363846374018     0.250756892496
    C           -2.648447068114     0.871742345777    -0.327059930695
    O           -3.809839735660    -1.214324966802    -0.379060457042
    C           -1.220147612104     1.095849234443     0.178072611578
    H           -2.684114074844     0.804634494466    -1.406676706074
    H           -3.270638897397     1.710857594131    -0.023668871248
    C           -0.226219540959     0.043886801718    -0.309253324903
    H           -0.892520120415     2.078140010890    -0.144520508382
    H           -1.222609118013     1.120512610418     1.265087442201
    C            1.194863222770     0.288741958823     0.191092691817
    H           -0.229411341586     0.029344918414    -1.395938906531
    H           -0.552346481889    -0.944127380312     0.004991302609
    C            2.183101602448    -0.757064958722    -0.315399683559
    H            1.510452629193     1.280892185777    -0.115064085360
    H            1.195079278808     0.289885995515     1.278843625153
    C            3.617964426316    -0.666847287594     0.232288429460
    H            2.207369280409    -0.760972509592    -1.402119433680
    H            1.798375922055    -1.740143450031    -0.055512617922
    C            4.160356844486     0.741899351555     0.464407056440
    H            4.279577077005    -1.204924220860    -0.437653236425
    H            3.659969748792    -1.195252307466     1.180778024152
    H            4.135312080368     1.337697343084    -0.442756004990
    H            3.595154807746     1.269629537765     1.222333131172
    H            5.191176302953     0.697435241475     0.797035154457

  Mulliken Charges: (a.u.)
   Center  Symbol    Alpha    Beta     Spin     Total
       1     H     0.46414  0.46414  0.00000  0.07172
       2     C     2.90482  2.90482  0.00000  0.19035
       3     C     3.08912  3.08912  0.00000 -0.17825
       4     O     4.16629  4.16629  0.00000 -0.33258
       5     C     3.11602  3.11602  0.00000 -0.23203
       6     H     0.44289  0.44289  0.00000  0.11421
       7     H     0.44048  0.44048  0.00000  0.11903
       8     C     3.09165  3.09165  0.00000 -0.18329
       9     H     0.44315  0.44315  0.00000  0.11369
      10     H     0.44996  0.44996  0.00000  0.10007
      11     C     3.09260  3.09260  0.00000 -0.18521
      12     H     0.44976  0.44976  0.00000  0.10049
      13     H     0.44767  0.44767  0.00000  0.10466
      14     C     3.09683  3.09683  0.00000 -0.19365
      15     H     0.44948  0.44948  0.00000  0.10104
      16     H     0.45307  0.45307  0.00000  0.09386
      17     C     3.08902  3.08902  0.00000 -0.17803
      18     H     0.45131  0.45131  0.00000  0.09737
      19     H     0.45090  0.45090  0.00000  0.09820
      20     C     3.15729  3.15729  0.00000 -0.31459
      21     H     0.44847  0.44847  0.00000  0.10305
      22     H     0.45390  0.45390  0.00000  0.09219
      23     H     0.45407  0.45407  0.00000  0.09186
      24     H     0.45247  0.45247  0.00000  0.09505
      25     H     0.44462  0.44462  0.00000  0.11077

   Total alpha = 36.00000, Total beta = 36.00000, Total charge = -0.00000

*** Psi4 exiting successfully. Buy a developer a beer!
