                              Psi4 1.0.54 Driver

  ==> Input File <==

--------------------------------------------------------------------------
set {
	reference rhf
	basis cc-pvtz
}

set_num_threads( 4 )
memory 2 gb

molecule MOL {
0 1

O	 -1.278239	 1.034789	 -0.784693
C	 -1.204115	 0.062668	 -0.112312
C	 -2.386398	 -0.667698	 0.460323
O	 -0.068058	 -0.518372	 0.226882
H	 -2.382952	 -1.693172	 0.114333
H	 -3.296656	 -0.175702	 0.158400
H	 -2.312537	 -0.685191	 1.540100
C	 1.169086	 0.037484	 -0.230612
C	 0.804578	 1.128945	 -1.217000
C	 2.029227	 -1.053251	 -0.843034
H	 1.676786	 0.462567	 0.621816
H	 0.188039	 1.882226	 -0.743506
H	 1.702465	 1.606442	 -1.590507
H	 0.258580	 0.719468	 -2.058516
H	 2.961329	 -0.631910	 -1.201026
H	 2.261712	 -1.814882	 -0.111927
H	 1.518640	 -1.514117	 -1.681000

	symmetry c1
}
set optking {
	frozen_dihedral = ("
		11 8 4 2
	")
}

ee,wfn = optimize('scf', return_wfn=True)
oeprop( wfn, 'DIPOLE', 'QUADRUPOLE', 'MULLIKEN_CHARGES')
f=open( 'psi4out.xyz', 'w' )
f.write( "17  " )
f.write( str(ee) + "\n" )
f.write( MOL.save_string_xyz() )
f.close()
--------------------------------------------------------------------------

    Molecular point group: c1
  Charge       = 0
  Multiplicity = 1
  Basis Set: CC-PVTZ
  Basis Set:
  @DF-RHF Final Energy:  -344.97624467947719
    Total Energy =                       -344.9762446794769630
    Molecular point group: c1
  Basis Set: CC-PVTZ
  Basis Set:
  Basis Set: CC-PVTZ
  Basis Set:
  @DF-RHF Final Energy:  -345.01683336474036
    Total Energy =                       -345.0168333647405916
  Basis Set: CC-PVTZ
  Basis Set:
  Basis Set: CC-PVTZ
  Basis Set:
  @DF-RHF Final Energy:  -345.02648775748088
    Total Energy =                       -345.0264877574812203
  Basis Set: CC-PVTZ
  Basis Set:
  Basis Set: CC-PVTZ
  Basis Set:
  @DF-RHF Final Energy:  -345.02468492052998
    Total Energy =                       -345.0246849205299213
  Basis Set: CC-PVTZ
  Basis Set:
  @DF-RHF Final Energy:  -345.03082132245720
    Total Energy =                       -345.0308213224570864
  @DF-RHF Final Energy:  -345.03122576325245
    Total Energy =                       -345.0312257632523369
  @DF-RHF Final Energy:  -345.03184577610858
    Total Energy =                       -345.0318457761089803
  Basis Set: CC-PVTZ
  Basis Set:
  @DF-RHF Final Energy:  -345.03186929890330
    Total Energy =                       -345.0318692989034162
  Basis Set: CC-PVTZ
  Basis Set:
  Basis Set: CC-PVTZ
  Basis Set:
  @DF-RHF Final Energy:  -345.03187458448872
    Total Energy =                       -345.0318745844884916
  Basis Set: CC-PVTZ
  Basis Set:
  Basis Set: CC-PVTZ
  Basis Set:
  @DF-RHF Final Energy:  -345.03187620344750
    Total Energy =                       -345.0318762034476094
  Basis Set: CC-PVTZ
  Basis Set:
  Charge       = 0
  Multiplicity = 1
  Basis Set: CC-PVTZ
  Basis Set:

    Orbital Energies (a.u.)
    -----------------------

    Doubly Occupied:

       1A    -20.588246     2A    -20.527303     3A    -11.367137
       4A    -11.295857     5A    -11.227623     6A    -11.218056
       7A    -11.210866     8A     -1.461204     9A     -1.363935
      10A     -1.081384    11A     -1.002671    12A     -0.946485
      13A     -0.864500    14A     -0.744093    15A     -0.689429
      16A     -0.681757    17A     -0.659056    18A     -0.614117
      19A     -0.586643    20A     -0.579928    21A     -0.559330
      22A     -0.547538    23A     -0.540347    24A     -0.516650
      25A     -0.507208    26A     -0.485575    27A     -0.441643
      28A     -0.431034

  @DF-RHF Final Energy:  -345.03187673221771

   => Energetics <=

    Nuclear Repulsion Energy =            323.8681037792662210
    One-Electron Energy =               -1112.3207268517680859
    Two-Electron Energy =                 443.4207463402842677
    DFT Exchange-Correlation Energy =       0.0000000000000000
    Empirical Dispersion Energy =           0.0000000000000000
    PCM Polarization Energy =               0.0000000000000000
    EFP Energy =                            0.0000000000000000
    Total Energy =                       -345.0318767322175972
    Molecular point group: c1
  Basis Set: CC-PVTZ
  Basis Set:

  -Total Gradient:
     Atom            X                  Y                   Z
    ------   -----------------  -----------------  -----------------
       1       -0.000010354966     0.000044107198     0.000011142797
       2       -0.000386250418    -0.001264349348    -0.002190930555
       3        0.000005292244    -0.000029185340    -0.000053730943
       4        0.000769199904     0.001553909422     0.003426839216
       5        0.000012744542    -0.000031565736     0.000010288970
       6        0.000023782281     0.000015954695     0.000008164074
       7       -0.000009481196     0.000011881899     0.000040631962
       8       -0.001787322088     0.001826663651    -0.001307267156
       9        0.000012136710     0.000046079118     0.000002751113
      10        0.000017811718     0.000009213900     0.000002752757
      11        0.001342719180    -0.002133126726     0.000095329282
      12        0.000015678748    -0.000003438013    -0.000009756452
      13       -0.000001834059    -0.000014128093     0.000001145286
      14       -0.000009430708     0.000000975519    -0.000022604960
      15        0.000004993264    -0.000008541533    -0.000006703576
      16        0.000000570194    -0.000014426069    -0.000002305455
      17       -0.000000255351    -0.000010024543    -0.000005746361

  **** Optimization is complete! (in 11 steps) ****
    Final optimized geometry and variables:
    Molecular point group: c1

    Geometry (in Angstrom), charge = 0, multiplicity = 1:

    O           -1.526725639347     0.928053416124    -0.017304004980
    C           -1.108932300919    -0.090497616074     0.414979384900
    C           -1.979442144202    -1.167081172327     1.007497210264
    O            0.159665951851    -0.448930164877     0.467613189992
    H           -1.851292802632    -2.086658404478     0.451174469208
    H           -3.010492817580    -0.854279100930     0.976456951954
    H           -1.677784066086    -1.357115144610     2.029398848875
    C            1.299626157044     0.239491480061    -0.075242578933
    C            1.026470888376     1.391731412943    -1.027504716881
    C            2.140079951975    -0.844179900833    -0.730632209029
    H            1.837506052458     0.606790593104     0.789973209493
    H            0.511865068314     2.208580559534    -0.551094694203
    H            1.987639651350     1.744752656654    -1.384855662336
    H            0.442731767288     1.074205482675    -1.880974624580
    H            3.096850698348    -0.439932494942    -1.038392702814
    H            2.316583057033    -1.658194223444    -0.040058975848
    H            1.637363732962    -1.239594496771    -1.605809816032

  Mulliken Charges: (a.u.)
   Center  Symbol    Alpha    Beta     Spin     Total
       1     O     4.19812  4.19812  0.00000 -0.39624
       2     C     2.80930  2.80930  0.00000  0.38139
       3     C     3.13545  3.13545  0.00000 -0.27090
       4     O     4.16235  4.16235  0.00000 -0.32471
       5     H     0.44734  0.44734  0.00000  0.10531
       6     H     0.43907  0.43907  0.00000  0.12185
       7     H     0.44601  0.44601  0.00000  0.10797
       8     C     2.93747  2.93747  0.00000  0.12505
       9     C     3.15454  3.15454  0.00000 -0.30909
      10     C     3.13851  3.13851  0.00000 -0.27701
      11     H     0.44755  0.44755  0.00000  0.10491
      12     H     0.43229  0.43229  0.00000  0.13542
      13     H     0.45228  0.45228  0.00000  0.09544
      14     H     0.44615  0.44615  0.00000  0.10769
      15     H     0.45436  0.45436  0.00000  0.09128
      16     H     0.44556  0.44556  0.00000  0.10888
      17     H     0.45362  0.45362  0.00000  0.09276

   Total alpha = 28.00000, Total beta = 28.00000, Total charge = -0.00000

*** Psi4 exiting successfully. Buy a developer a beer!
