                              Psi4 1.0.54 Driver

  ==> Input File <==

--------------------------------------------------------------------------
set {
	reference rhf
	basis cc-pvtz
}

set_num_threads( 4 )
memory 2 gb

molecule MOL {
0 1

H	 -3.258660	 -0.290394	 1.471450
C	 -3.307964	 -0.275695	 0.374072
C	 -2.653809	 0.914422	 -0.273689
O	 -3.855140	 -1.148880	 -0.205112
C	 -1.216901	 1.136108	 0.207794
H	 -2.700131	 0.790676	 -1.347875
H	 -3.256452	 1.781007	 -0.010713
C	 -0.247837	 0.040196	 -0.230469
H	 -0.872882	 2.093195	 -0.169002
H	 -1.209325	 1.218376	 1.291938
C	 1.181757	 0.280428	 0.247371
H	 -0.259600	 -0.030819	 -1.314870
H	 -0.591284	 -0.923375	 0.136958
C	 2.151032	 -0.811012	 -0.202643
H	 1.515939	 1.247397	 -0.115449
H	 1.191514	 0.341223	 1.333422
C	 3.580021	 -0.656538	 0.320835
H	 2.170545	 -0.847575	 -1.289412
H	 1.766632	 -1.772905	 0.124928
C	 3.970552	 -1.648545	 1.413764
H	 3.694876	 0.350705	 0.708986
H	 4.276886	 -0.741573	 -0.508896
H	 3.286586	 -1.590692	 2.254501
H	 3.967507	 -2.670704	 1.054786
H	 4.966918	 -1.438078	 1.785144

	symmetry c1
}
set optking {
	frozen_dihedral = ("
		20 17 14 18
	")
}

ee,wfn = optimize('scf', return_wfn=True)
oeprop( wfn, 'DIPOLE', 'QUADRUPOLE', 'MULLIKEN_CHARGES')
f=open( 'psi4out.xyz', 'w' )
f.write( "25  " )
f.write( str(ee) + "\n" )
f.write( MOL.save_string_xyz() )
f.close()
--------------------------------------------------------------------------

    Molecular point group: c1
  Charge       = 0
  Multiplicity = 1
  Basis Set: CC-PVTZ
  Basis Set:
  @DF-RHF Final Energy:  -387.25658153920153
    Total Energy =                       -387.2565815392018749
    Molecular point group: c1
  Basis Set: CC-PVTZ
  Basis Set:
  Basis Set: CC-PVTZ
  Basis Set:
  @DF-RHF Final Energy:  -387.25697172768770
    Total Energy =                       -387.2569717276874144
  Basis Set: CC-PVTZ
  Basis Set:
  Basis Set: CC-PVTZ
  Basis Set:
  @DF-RHF Final Energy:  -387.25702248285705
    Total Energy =                       -387.2570224828568826
  Basis Set: CC-PVTZ
  Basis Set:
  Basis Set: CC-PVTZ
  Basis Set:
  @DF-RHF Final Energy:  -387.25675458522142
    Total Energy =                       -387.2567545852209605
  Basis Set: CC-PVTZ
  Basis Set:
  Basis Set: CC-PVTZ
  Basis Set:
  @DF-RHF Final Energy:  -387.25702794649146
    Total Energy =                       -387.2570279464916894
  Basis Set: CC-PVTZ
  Basis Set:
  Charge       = 0
  Multiplicity = 1
  Basis Set: CC-PVTZ
  Basis Set:

    Orbital Energies (a.u.)
    -----------------------

    Doubly Occupied:

       1A    -20.551425     2A    -11.321029     3A    -11.233862
       4A    -11.232968     5A    -11.221668     6A    -11.218764
       7A    -11.215611     8A    -11.214429     9A    -11.209084
      10A     -1.406437    11A     -1.105041    12A     -1.069860
      13A     -1.015608    14A     -0.944023    15A     -0.870565
      16A     -0.817605    17A     -0.792443    18A     -0.787590
      19A     -0.667805    20A     -0.663884    21A     -0.633569
      22A     -0.624617    23A     -0.605517    24A     -0.597256
      25A     -0.568588    26A     -0.557438    27A     -0.535055
      28A     -0.522295    29A     -0.513774    30A     -0.499529
      31A     -0.486431    32A     -0.481760    33A     -0.467284
      34A     -0.457572    35A     -0.441423    36A     -0.411932

  @DF-RHF Final Energy:  -387.25702795455879

   => Energetics <=

    Nuclear Repulsion Energy =            438.0220077300776893
    One-Electron Energy =               -1392.6305813799942825
    Two-Electron Energy =                 567.3515456953575722
    DFT Exchange-Correlation Energy =       0.0000000000000000
    Empirical Dispersion Energy =           0.0000000000000000
    PCM Polarization Energy =               0.0000000000000000
    EFP Energy =                            0.0000000000000000
    Total Energy =                       -387.2570279545590211
    Molecular point group: c1
  Basis Set: CC-PVTZ
  Basis Set:

  -Total Gradient:
     Atom            X                  Y                   Z
    ------   -----------------  -----------------  -----------------
       1       -0.000028267350     0.000031497922     0.000001317052
       2        0.000123475222    -0.000051279520    -0.000004849584
       3       -0.000054769822    -0.000003090344     0.000026065946
       4       -0.000036205872     0.000008403368    -0.000022411313
       5        0.000017846428     0.000007818951    -0.000028986996
       6       -0.000004261046     0.000009685117     0.000002698470
       7       -0.000000144963    -0.000006302849     0.000011067770
       8       -0.000022948692    -0.000020736229     0.000005441947
       9        0.000008540869    -0.000004592273    -0.000006992266
      10        0.000001343229     0.000013167437    -0.000000423305
      11        0.000000803191     0.000002471070    -0.000002256163
      12        0.000002860559     0.000010807342     0.000005414723
      13       -0.000012646502    -0.000001391100     0.000000437990
      14       -0.000065168267     0.002542363714    -0.000583626236
      15       -0.000005530590    -0.000010500534    -0.000007729192
      16        0.000017764866    -0.000004890321    -0.000002035251
      17       -0.000811298557     0.000988782417     0.001738632995
      18        0.000251958134    -0.002370413347     0.000084349568
      19        0.000002571953     0.000001851400     0.000006311125
      20        0.000621742268    -0.001132077797    -0.001223016667
      21       -0.000017741748    -0.000003383271    -0.000003859865
      22        0.000011613545    -0.000008078076     0.000007210843
      23        0.000003956271     0.000019117824    -0.000013198469
      24       -0.000009277053    -0.000002246860     0.000012212680
      25        0.000003783934    -0.000016984042    -0.000001775803

  **** Optimization is complete! (in 6 steps) ****
    Final optimized geometry and variables:
    Molecular point group: c1

    Geometry (in Angstrom), charge = 0, multiplicity = 1:

    H           -3.221948345437    -0.029826992908     1.263271377717
    C           -3.268498354551     0.006246472542     0.166256273218
    C           -2.597823928165     1.199935639084    -0.457560648533
    O           -3.826107740343    -0.848245954682    -0.430591197348
    C           -1.159880382645     1.395014774764     0.031941459745
    H           -2.642431320611     1.096607927402    -1.533982732307
    H           -3.190732541155     2.068800634553    -0.180379594261
    C           -0.204554096967     0.291826405159    -0.418225035092
    H           -0.801138833561     2.352327718039    -0.330239417343
    H           -1.155176723675     1.462034199735     1.117144147595
    C            1.226339616951     0.506695844844     0.065007857579
    H           -0.214851095126     0.234367536500    -1.503472187645
    H           -0.561299304935    -0.671724278892    -0.063456122717
    C            2.191404170499    -0.582872973322    -0.394981718932
    H            1.583239251945     1.471553649711    -0.286722224158
    H            1.235620557923     0.557715264929     1.151567860834
    C            3.626368654954    -0.407237710316     0.138816464307
    H            2.200554378932    -0.625443404695    -1.479420302316
    H            1.807760252697    -1.547753957414    -0.074653475247
    C            3.993878553979    -1.402963115773     1.235677736796
    H            3.756383774878     0.603934572308     0.511522064348
    H            4.334401374198    -0.516846305870    -0.675552260899
    H            3.316789795671    -1.326758960992     2.080663994341
    H            3.944284876047    -2.421324922754     0.866006920151
    H            4.999564495855    -1.231337394612     1.602495630787

  Mulliken Charges: (a.u.)
   Center  Symbol    Alpha    Beta     Spin     Total
       1     H     0.46415  0.46415  0.00000  0.07171
       2     C     2.90476  2.90476  0.00000  0.19048
       3     C     3.08914  3.08914  0.00000 -0.17828
       4     O     4.16626  4.16626  0.00000 -0.33252
       5     C     3.11617  3.11617  0.00000 -0.23234
       6     H     0.44288  0.44288  0.00000  0.11425
       7     H     0.44047  0.44047  0.00000  0.11906
       8     C     3.09158  3.09158  0.00000 -0.18315
       9     H     0.44308  0.44308  0.00000  0.11384
      10     H     0.44990  0.44990  0.00000  0.10020
      11     C     3.09055  3.09055  0.00000 -0.18111
      12     H     0.44985  0.44985  0.00000  0.10031
      13     H     0.44779  0.44779  0.00000  0.10442
      14     C     3.09613  3.09613  0.00000 -0.19226
      15     H     0.45245  0.45245  0.00000  0.09511
      16     H     0.45349  0.45349  0.00000  0.09302
      17     C     3.09122  3.09122  0.00000 -0.18243
      18     H     0.44706  0.44706  0.00000  0.10588
      19     H     0.45391  0.45391  0.00000  0.09219
      20     C     3.14694  3.14694  0.00000 -0.29388
      21     H     0.45479  0.45479  0.00000  0.09042
      22     H     0.44852  0.44852  0.00000  0.10296
      23     H     0.45583  0.45583  0.00000  0.08835
      24     H     0.45399  0.45399  0.00000  0.09202
      25     H     0.44912  0.44912  0.00000  0.10176

   Total alpha = 36.00000, Total beta = 36.00000, Total charge = -0.00000

*** Psi4 exiting successfully. Buy a developer a beer!
