                              Psi4 1.0.54 Driver

  ==> Input File <==

--------------------------------------------------------------------------
set {
	reference rhf
	basis cc-pvtz
}

set_num_threads( 4 )
memory 2 gb

molecule MOL {
0 1

H	 -3.435377	 -0.187230	 0.152664
O	 -2.658848	 -0.704215	 -0.000460
C	 -1.605397	 0.107680	 0.001145
C	 -0.310616	 -0.658853	 0.000791
O	 -1.718351	 1.284629	 -0.000627
C	 0.926581	 0.227233	 0.000178
H	 -0.327628	 -1.313681	 -0.864448
H	 -0.327041	 -1.313334	 0.866298
C	 2.220156	 -0.582071	 -0.000088
H	 0.899945	 0.878221	 -0.866390
H	 0.900542	 0.878581	 0.866486
C	 3.466689	 0.296012	 -0.000457
H	 2.239073	 -1.234095	 -0.869382
H	 2.239505	 -1.233985	 0.869270
H	 3.493549	 0.935857	 -0.875887
H	 4.368821	 -0.304526	 -0.001199
H	 3.494559	 0.935166	 0.875458

	symmetry c1
}
set optking {
	frozen_dihedral = ("
		1 2 3 5
	")
}

ee,wfn = optimize('scf', return_wfn=True)
oeprop( wfn, 'DIPOLE', 'QUADRUPOLE', 'MULLIKEN_CHARGES')
f=open( 'psi4out.xyz', 'w' )
f.write( "17  " )
f.write( str(ee) + "\n" )
f.write( MOL.save_string_xyz() )
f.close()
--------------------------------------------------------------------------

    Molecular point group: c1
  Charge       = 0
  Multiplicity = 1
  Basis Set: CC-PVTZ
  Basis Set:
  @DF-RHF Final Energy:  -345.04833869506211
    Total Energy =                       -345.0483386950621707
    Molecular point group: c1
  Basis Set: CC-PVTZ
  Basis Set:
  Basis Set: CC-PVTZ
  Basis Set:
  @DF-RHF Final Energy:  -345.04731171606380
    Total Energy =                       -345.0473117160638026
  Basis Set: CC-PVTZ
  Basis Set:
  Basis Set: CC-PVTZ
  Basis Set:
  @DF-RHF Final Energy:  -345.04837999025312
    Total Energy =                       -345.0483799902530677
  Basis Set: CC-PVTZ
  Basis Set:
  Basis Set: CC-PVTZ
  Basis Set:
  @DF-RHF Final Energy:  -345.04838465232933
    Total Energy =                       -345.0483846523290481
  Basis Set: CC-PVTZ
  Basis Set:
  Basis Set: CC-PVTZ
  Basis Set:
  @DF-RHF Final Energy:  -345.04838708532003
    Total Energy =                       -345.0483870853199733
  Basis Set: CC-PVTZ
  Basis Set:
  Charge       = 0
  Multiplicity = 1
  Basis Set: CC-PVTZ
  Basis Set:

    Orbital Energies (a.u.)
    -----------------------

    Doubly Occupied:

       1A    -20.603722     2A    -20.540975     3A    -11.373741
       4A    -11.239359     5A    -11.221314     6A    -11.220681
       7A    -11.210704     8A     -1.477231     9A     -1.369366
      10A     -1.092900    11A     -1.019814    12A     -0.914834
      13A     -0.824971    14A     -0.791143    15A     -0.704122
      16A     -0.687925    17A     -0.671852    18A     -0.631777
      19A     -0.593307    20A     -0.585459    21A     -0.573742
      22A     -0.538694    23A     -0.509332    24A     -0.485438
      25A     -0.482536    26A     -0.478404    27A     -0.472669
      28A     -0.446280

  @DF-RHF Final Energy:  -345.04838806481985

   => Energetics <=

    Nuclear Repulsion Energy =            304.7732575121951868
    One-Electron Energy =               -1074.1187039017854659
    Two-Electron Energy =                 424.2970583247706600
    DFT Exchange-Correlation Energy =       0.0000000000000000
    Empirical Dispersion Energy =           0.0000000000000000
    PCM Polarization Energy =               0.0000000000000000
    EFP Energy =                            0.0000000000000000
    Total Energy =                       -345.0483880648196191
    Molecular point group: c1
  Basis Set: CC-PVTZ
  Basis Set:

  -Total Gradient:
     Atom            X                  Y                   Z
    ------   -----------------  -----------------  -----------------
       1        0.000260740140    -0.000631902707     0.003571744596
       2       -0.000284149305     0.000772586170    -0.005972296871
       3       -0.000108101184    -0.000237441679     0.005801224294
       4        0.000003215979     0.000000247070    -0.000044221667
       5        0.000131680161     0.000112135988    -0.003343029377
       6       -0.000001997695    -0.000008832357     0.000003080781
       7        0.000005562098    -0.000002656612    -0.000011913883
       8       -0.000005629247    -0.000008185516    -0.000008739821
       9       -0.000001109713    -0.000000541318     0.000006657358
      10        0.000000030924     0.000001837943     0.000000699643
      11        0.000003425431     0.000001835012     0.000002630035
      12       -0.000002121943     0.000000441753    -0.000007133236
      13        0.000000077093    -0.000001256189     0.000000712019
      14       -0.000001382455    -0.000000100919     0.000002402620
      15        0.000001687507     0.000003779714    -0.000000869066
      16       -0.000001044782    -0.000000891582    -0.000001797843
      17       -0.000000883010    -0.000001054772     0.000000850416

  **** Optimization is complete! (in 6 steps) ****
    Final optimized geometry and variables:
    Molecular point group: c1

    Geometry (in Angstrom), charge = 0, multiplicity = 1:

    H           -3.441030988848    -0.191970841421     0.099219231480
    O           -2.658802517926    -0.702734987562    -0.044832519192
    C           -1.605443706480     0.108260213465     0.019472432740
    C           -0.310843329638    -0.658369493895     0.009120626288
    O           -1.717909338902     1.284525036740     0.053472748450
    C            0.926595698416     0.227197245399    -0.004293371166
    H           -0.335652426618    -1.317240139947    -0.852603316089
    H           -0.320298273959    -1.308839504064     0.878035288005
    C            2.219863836036    -0.582526364229    -0.010794508084
    H            0.893909880056     0.874320552916    -0.873699490599
    H            0.907044692473     0.882361999937     0.859161390298
    C            3.466573975960     0.295140305889    -0.025601425316
    H            2.231710671719    -1.239024099147    -0.876806528842
    H            2.245883979506    -1.229871036744     0.861812789952
    H            3.486877597696     0.930101594295    -0.904763776172
    H            4.368505205941    -0.305688876359    -0.029962028756
    H            3.501287291261     0.939134919200     0.846507655682

  Mulliken Charges: (a.u.)
   Center  Symbol    Alpha    Beta     Spin     Total
       1     H     0.38214  0.38214  0.00000  0.23572
       2     O     4.16054  4.16054  0.00000 -0.32108
       3     C     2.80484  2.80484  0.00000  0.39033
       4     C     3.11078  3.11078  0.00000 -0.22156
       5     O     4.19030  4.19030  0.00000 -0.38059
       6     C     3.08210  3.08210  0.00000 -0.16419
       7     H     0.43764  0.43764  0.00000  0.12473
       8     H     0.43900  0.43900  0.00000  0.12200
       9     C     3.08600  3.08600  0.00000 -0.17199
      10     H     0.44653  0.44653  0.00000  0.10694
      11     H     0.44592  0.44592  0.00000  0.10816
      12     C     3.14924  3.14924  0.00000 -0.29847
      13     H     0.45477  0.45477  0.00000  0.09047
      14     H     0.45490  0.45490  0.00000  0.09019
      15     H     0.45365  0.45365  0.00000  0.09270
      16     H     0.44801  0.44801  0.00000  0.10398
      17     H     0.45367  0.45367  0.00000  0.09266

   Total alpha = 28.00000, Total beta = 28.00000, Total charge =  0.00000

*** Psi4 exiting successfully. Buy a developer a beer!
