  ==> Input File <==

--------------------------------------------------------------------------
set {
	reference rhf
	basis 6-31G*
}

set_num_threads( 1 )
memory 2 gb

molecule MOL {
0 1

O	 2.862325	 1.357334	 0.000267
C	 2.843464	 0.164689	 -0.000222
C	 1.546494	 -0.624492	 -0.000609
C	 4.124123	 -0.644674	 -0.000428
C	 0.291004	 0.242674	 0.000989
H	 1.557904	 -1.283758	 -0.867573
H	 1.558622	 -1.285963	 0.864672
C	 -0.994322	 -0.586602	 0.000262
H	 0.309117	 0.896430	 -0.865270
H	 0.309661	 0.894078	 0.869017
C	 -2.259874	 0.272531	 0.000494
H	 -1.004862	 -1.240012	 -0.870939
H	 -1.005220	 -1.241071	 0.870675
C	 -3.326317	 -0.220828	 0.979937
H	 -2.678387	 0.296251	 -1.004147
H	 -1.996523	 1.300303	 0.244067
C	 -4.587525	 0.642310	 0.974250
H	 -3.591244	 -1.247709	 0.736724
H	 -2.909608	 -0.243537	 1.984774
H	 -5.047399	 0.657857	 -0.009835
H	 -5.324561	 0.267291	 1.677699
H	 -4.361146	 1.668885	 1.248185
H	 4.165367	 -1.288615	 -0.874074
H	 4.976217	 0.020734	 -0.001915
H	 4.166763	 -1.286207	 0.874930

	symmetry c1
}
set optking {
	frozen_dihedral = ("
		9 5 8 12,
		15 11 14 18,
		1 2 3 6,
		9 5 3 6
	")
}

ee = energy('scf')
oeprop('DIPOLE', 'QUADRUPOLE', 'MULLIKEN_CHARGES')
f=open( 'psi4out.xyz', 'w' )
f.write( "25  " )
f.write( str(ee) + "\n" )
f.write( MOL.save_string_xyz() )
f.close()
--------------------------------------------------------------------------

    Molecular point group: c1

    Geometry (in Angstrom), charge = 0, multiplicity = 1:

       Center              X                  Y                   Z               Mass
    ------------   -----------------  -----------------  -----------------  -----------------
           O          2.811850416690     1.283041847523    -0.221208755122    15.994914619560
           C          2.792989416690     0.090396847523    -0.221697755122    12.000000000000
           C          1.496019416690    -0.698784152477    -0.222084755122    12.000000000000
           C          4.073648416690    -0.718966152477    -0.221903755122    12.000000000000
           C          0.240529416690     0.168381847523    -0.220486755122    12.000000000000
           H          1.507429416690    -1.358050152477    -1.089048755122     1.007825032070
           H          1.508147416690    -1.360255152477     0.643196244878     1.007825032070
           C         -1.044796583310    -0.660894152477    -0.221213755122    12.000000000000
           H          0.258642416690     0.822137847523    -1.086745755122     1.007825032070
           H          0.259186416690     0.819785847523     0.647541244878     1.007825032070
           C         -2.310348583310     0.198238847523    -0.220981755122    12.000000000000
           H         -1.055336583310    -1.314304152477    -1.092414755122     1.007825032070
           H         -1.055694583310    -1.315363152477     0.649199244878     1.007825032070
           C         -3.376791583310    -0.295120152477     0.758461244878    12.000000000000
           H         -2.728861583310     0.221958847523    -1.225622755122     1.007825032070
           H         -2.046997583310     1.226010847523     0.022591244878     1.007825032070
           C         -4.637999583310     0.568017847523     0.752774244878    12.000000000000
           H         -3.641718583310    -1.322001152477     0.515248244878     1.007825032070
           H         -2.960082583310    -0.317829152477     1.763298244878     1.007825032070
           H         -5.097873583310     0.583564847523    -0.231310755122     1.007825032070
           H         -5.375035583310     0.192998847523     1.456223244878     1.007825032070
           H         -4.411620583310     1.594592847523     1.026709244878     1.007825032070
           H          4.114892416690    -1.362907152477    -1.095549755122     1.007825032070
           H          4.925742416690    -0.053558152477    -0.223390755122     1.007825032070
           H          4.116288416690    -1.360499152477     0.653454244878     1.007825032070

  Charge       = 0
  Multiplicity = 1
  Basis Set: 6-31G*
  Basis Set:

    Orbital Energies (a.u.)
    -----------------------

    Doubly Occupied:

       1A    -20.550399     2A    -11.326235     3A    -11.231476
       4A    -11.228269     5A    -11.217164     6A    -11.215533
       7A    -11.215405     8A    -11.212115     9A    -11.207730
      10A     -1.395721    11A     -1.093686    12A     -1.055962
      13A     -1.014227    14A     -0.969031    15A     -0.890183
      16A     -0.816158    17A     -0.789973    18A     -0.730088
      19A     -0.657099    20A     -0.651884    21A     -0.633648
      22A     -0.621761    23A     -0.599397    24A     -0.582668
      25A     -0.566037    26A     -0.562772    27A     -0.538995
      28A     -0.529208    29A     -0.509308    30A     -0.489041
      31A     -0.487043    32A     -0.478110    33A     -0.464478
      34A     -0.455958    35A     -0.448852    36A     -0.399291

  @DF-RHF Final Energy:  -387.13187209944471

   => Energetics <=

    Nuclear Repulsion Energy =            439.6260330238230267
    One-Electron Energy =               -1395.8460820461232288
    Two-Electron Energy =                 569.0881769228567464
    DFT Exchange-Correlation Energy =       0.0000000000000000
    Empirical Dispersion Energy =           0.0000000000000000
    PCM Polarization Energy =               0.0000000000000000
    EFP Energy =                            0.0000000000000000
    Total Energy =                       -387.1318720994433988

  Mulliken Charges: (a.u.)
   Center  Symbol    Alpha    Beta     Spin     Total
       1     O     4.26128  4.26128  0.00000 -0.52256
       2     C     2.73569  2.73569  0.00000  0.52862
       3     C     3.21125  3.21125  0.00000 -0.42250
       4     C     3.28665  3.28665  0.00000 -0.57331
       5     C     3.15054  3.15054  0.00000 -0.30107
       6     H     0.41002  0.41002  0.00000  0.17996
       7     H     0.40995  0.40995  0.00000  0.18009
       8     C     3.15578  3.15578  0.00000 -0.31156
       9     H     0.41159  0.41159  0.00000  0.17683
      10     H     0.41200  0.41200  0.00000  0.17601
      11     C     3.15316  3.15316  0.00000 -0.30632
      12     H     0.42275  0.42275  0.00000  0.15450
      13     H     0.42282  0.42282  0.00000  0.15435
      14     C     3.15362  3.15362  0.00000 -0.30724
      15     H     0.42144  0.42144  0.00000  0.15712
      16     H     0.41897  0.41897  0.00000  0.16206
      17     C     3.23996  3.23996  0.00000 -0.47991
      18     H     0.42323  0.42323  0.00000  0.15354
      19     H     0.42301  0.42301  0.00000  0.15398
      20     H     0.42176  0.42176  0.00000  0.15647
      21     H     0.41966  0.41966  0.00000  0.16069
      22     H     0.42090  0.42090  0.00000  0.15820
      23     H     0.40875  0.40875  0.00000  0.18250
      24     H     0.39650  0.39650  0.00000  0.20700
      25     H     0.40871  0.40871  0.00000  0.18257

   Total alpha = 36.00000, Total beta = 36.00000, Total charge =  0.00000
