  ==> Input File <==

--------------------------------------------------------------------------
set {
	reference rhf
	basis 6-31G*
}

set_num_threads( 4 )
memory 2 gb

molecule MOL {
0 1

H	 2.339122	 -2.060219	 0.059233
N	 1.352298	 -1.894275	 0.060532
C	 0.945656	 -1.242394	 -1.170892
C	 0.970083	 -1.115875	 1.224455
H	 1.234131	 -1.865422	 -2.010765
H	 1.414190	 -0.263914	 -1.300101
C	 -0.565000	 -1.062658	 -1.164236
H	 1.276247	 -1.647281	 2.119239
H	 1.440096	 -0.129733	 1.240324
C	 -0.540588	 -0.936217	 1.229627
H	 -1.041628	 -2.047223	 -1.187795
H	 -0.870737	 -0.525825	 -2.056358
N	 -0.975995	 -0.298722	 0.000000
H	 -0.828696	 -0.308073	 2.066271
H	 -1.015581	 -1.912312	 1.366448
C	 -2.393863	 -0.024976	 0.000000
H	 -2.854032	 -0.467193	 -0.876721
H	 -2.854032	 -0.467193	 0.876721
H	 -2.623281	 1.044943	 0.000000

	symmetry c1
}
set optking {
	frozen_dihedral = ("
		7 13 16 19
	")
}

ee = optimize('scf')
oeprop('DIPOLE', 'QUADRUPOLE', 'MULLIKEN_CHARGES')
f=open( 'psi4out.xyz', 'w' )
f.write( "19  " )
f.write( str(ee) + "\n" )
f.write( MOL.save_string_xyz() )
f.close()
--------------------------------------------------------------------------

    Molecular point group: c1
  Charge       = 0
  Multiplicity = 1
  Basis Set: 6-31G*
  Basis Set:
  @DF-RHF Final Energy:  -305.19248745315730
    Total Energy =                       -305.1924874531573550
    Molecular point group: c1
  Basis Set: 6-31G*
  Basis Set:
  Basis Set: 6-31G*
  Basis Set:
  @DF-RHF Final Energy:  -305.19322479996140
    Total Energy =                       -305.1932247999617402
  Basis Set: 6-31G*
  Basis Set:
  Basis Set: 6-31G*
  Basis Set:
  @DF-RHF Final Energy:  -305.19339515819513
    Total Energy =                       -305.1933951581947895
  Basis Set: 6-31G*
  Basis Set:
  Basis Set: 6-31G*
  Basis Set:
  @DF-RHF Final Energy:  -305.19340307833738
    Total Energy =                       -305.1934030783377239
  Basis Set: 6-31G*
  Basis Set:
  Charge       = 0
  Multiplicity = 1
  Basis Set: 6-31G*
  Basis Set:

    Orbital Energies (a.u.)
    -----------------------

    Doubly Occupied:

       1A    -15.536749     2A    -15.535843     3A    -11.237610
       4A    -11.237584     5A    -11.236858     6A    -11.236791
       7A    -11.234748     8A     -1.243686     9A     -1.182514
      10A     -1.022370    11A     -0.963735    12A     -0.860085
      13A     -0.857869    14A     -0.755794    15A     -0.690057
      16A     -0.630423    17A     -0.623119    18A     -0.604321
      19A     -0.603177    20A     -0.580209    21A     -0.543949
      22A     -0.534896    23A     -0.511749    24A     -0.487914
      25A     -0.466142    26A     -0.456025    27A     -0.362572
      28A     -0.337027

  @DF-RHF Final Energy:  -305.19340401380100

   => Energetics <=

    Nuclear Repulsion Energy =            339.2288247650732274
    One-Electron Energy =               -1085.6968302660648078
    Two-Electron Energy =                 441.2746014871905800
    DFT Exchange-Correlation Energy =       0.0000000000000000
    Empirical Dispersion Energy =           0.0000000000000000
    PCM Polarization Energy =               0.0000000000000000
    EFP Energy =                            0.0000000000000000
    Total Energy =                       -305.1934040138010005
    Molecular point group: c1
  Basis Set: 6-31G*
  Basis Set:

  -Total Gradient:
     Atom            X                  Y                   Z
    ------   -----------------  -----------------  -----------------
       1        0.000006721908    -0.000002687949    -0.000001622243
       2       -0.000009193139     0.000001388537    -0.000001105503
       3        0.000009558715    -0.000014422210    -0.000016185865
       4        0.000008752394    -0.000003267573     0.000013890490
       5        0.000013568505    -0.000005002512    -0.000003411210
       6       -0.000013456494    -0.000001060587    -0.000002626580
       7        0.000215634107     0.000966490240    -0.000552624821
       8        0.000007455740    -0.000002451802     0.000001996745
       9       -0.000009040587     0.000001949938     0.000004263983
      10       -0.000014275945     0.000006027361     0.000023326747
      11       -0.000000298074     0.000010899448     0.000009960550
      12        0.000002273403    -0.000005120258     0.000000570201
      13       -0.000262187833    -0.001324124433     0.000356990765
      14        0.000000752181    -0.000004561903     0.000002044094
      15       -0.000004441194     0.000007321742    -0.000010437945
      16       -0.000015578786     0.000375454474     0.001650798034
      17        0.000004986510    -0.000011258183     0.000004375380
      18        0.000024167488    -0.000019012269    -0.000013081027
      19        0.000034601101     0.000023437938    -0.001467121796

  **** Optimization is complete! (in 5 steps) ****
    Final optimized geometry and variables:
    Molecular point group: c1

    Geometry (in Angstrom), charge = 0, multiplicity = 1:

    H            2.537713673965    -1.088721571727     0.032918273478
    N            1.548498869089    -0.937679312323     0.035480659894
    C            1.130684960957    -0.295379397120    -1.197203696047
    C            1.157307600505    -0.160612755327     1.197252226818
    H            1.434162140970    -0.912585159379    -2.036278290762
    H            1.579173264204     0.692698054768    -1.325234528214
    C           -0.383238661249    -0.145847862706    -1.195149913387
    H            1.478217718091    -0.681101321908     2.093456806157
    H            1.608731841856     0.834351283008     1.204803442906
    C           -0.356226797731    -0.008911312249     1.209426050164
    H           -0.838596152779    -1.140021207547    -1.235160326114
    H           -0.690717351598     0.395303975580    -2.083498524941
    N           -0.811143782273     0.598974031164    -0.026079371316
    H           -0.646610547206     0.628970066942     2.037734776313
    H           -0.811692540443    -0.990838713794     1.369640770478
    C           -2.225766609460     0.937161537916    -0.023073178000
    H           -2.716138803289     0.571193658914    -0.919553138492
    H           -2.744857935544     0.497120733873     0.824282847001
    H           -2.370680369160     2.013209558210     0.010430110881

  Mulliken Charges: (a.u.)
   Center  Symbol    Alpha    Beta     Spin     Total
       1     H     0.32959  0.32959  0.00000  0.34083
       2     N     3.85432  3.85432  0.00000 -0.70865
       3     C     3.06362  3.06362  0.00000 -0.12724
       4     C     3.06351  3.06351  0.00000 -0.12701
       5     H     0.41807  0.41807  0.00000  0.16387
       6     H     0.42811  0.42811  0.00000  0.14378
       7     C     3.05291  3.05291  0.00000 -0.10582
       8     H     0.41806  0.41806  0.00000  0.16389
       9     H     0.42811  0.42811  0.00000  0.14378
      10     C     3.05318  3.05318  0.00000 -0.10636
      11     H     0.42880  0.42880  0.00000  0.14241
      12     H     0.41853  0.41853  0.00000  0.16294
      13     N     3.79458  3.79458  0.00000 -0.58916
      14     H     0.41842  0.41842  0.00000  0.16317
      15     H     0.42866  0.42866  0.00000  0.14267
      16     C     3.13872  3.13872  0.00000 -0.27744
      17     H     0.42200  0.42200  0.00000  0.15600
      18     H     0.42387  0.42387  0.00000  0.15227
      19     H     0.41696  0.41696  0.00000  0.16608

   Total alpha = 28.00000, Total beta = 28.00000, Total charge =  0.00000
