  ==> Input File <==

--------------------------------------------------------------------------
set {
	reference rhf
	basis 6-31G*
}

set_num_threads( 4 )
memory 2 gb

molecule MOL {
0 1

H	 -3.476332	 0.261371	 -1.904148
C	 -2.798559	 -0.416465	 -1.422668
C	 -2.076860	 -0.007332	 -0.404944
H	 -2.729635	 -1.422325	 -1.792000
O	 -1.180634	 -0.819263	 0.215062
H	 -2.136358	 0.993613	 -0.015376
C	 0.051604	 -1.018856	 -0.387932
C	 1.043764	 0.054862	 -0.001873
H	 -0.017620	 -1.041351	 -1.469781
H	 0.437898	 -1.966374	 -0.042284
F	 2.212596	 -0.199467	 -0.571921
F	 0.652529	 1.252447	 -0.405055
F	 1.230877	 0.110694	 1.300533

	symmetry c1
}
set optking {
	frozen_dihedral = ("
		6 3 5 7
	")
}

ee = optimize('scf')
oeprop('DIPOLE', 'QUADRUPOLE', 'MULLIKEN_CHARGES')
f=open( 'psi4out.xyz', 'w' )
f.write( "13  " )
f.write( str(ee) + "\n" )
f.write( MOL.save_string_xyz() )
f.close()
--------------------------------------------------------------------------

    Molecular point group: c1
  Charge       = 0
  Multiplicity = 1
  Basis Set: 6-31G*
  Basis Set:
  @DF-RHF Final Energy:  -527.53218204176119
    Total Energy =                       -527.5321820417616436
    Molecular point group: c1
  Basis Set: 6-31G*
  Basis Set:
  Basis Set: 6-31G*
  Basis Set:
  @DF-RHF Final Energy:  -527.53249664312921
    Total Energy =                       -527.5324966431290932
  Basis Set: 6-31G*
  Basis Set:
  Basis Set: 6-31G*
  Basis Set:
  @DF-RHF Final Energy:  -527.53272301202742
    Total Energy =                       -527.5327230120271906
  Basis Set: 6-31G*
  Basis Set:
  Basis Set: 6-31G*
  Basis Set:
  @DF-RHF Final Energy:  -527.53273050026633
    Total Energy =                       -527.5327305002668936
  Basis Set: 6-31G*
  Basis Set:
  Charge       = 0
  Multiplicity = 1
  Basis Set: 6-31G*
  Basis Set:

    Orbital Energies (a.u.)
    -----------------------

    Doubly Occupied:

       1A    -26.342143     2A    -26.341426     3A    -26.338072
       4A    -20.598020     5A    -11.499906     6A    -11.313578
       7A    -11.296708     8A    -11.229995     9A     -1.739032
      10A     -1.637439    11A     -1.635408    12A     -1.426263
      13A     -1.078761    14A     -1.019846    15A     -0.925617
      16A     -0.833849    17A     -0.828465    18A     -0.826254
      19A     -0.765468    20A     -0.718039    21A     -0.712487
      22A     -0.700779    23A     -0.672308    24A     -0.656820
      25A     -0.650769    26A     -0.645183    27A     -0.640817
      28A     -0.592966    29A     -0.564348    30A     -0.528524
      31A     -0.465665    32A     -0.376899

  @DF-RHF Final Energy:  -527.53273125719102

   => Energetics <=

    Nuclear Repulsion Energy =            413.8627140675433793
    One-Electron Energy =               -1551.5871829529319257
    Two-Electron Energy =                 610.1917376281975294
    DFT Exchange-Correlation Energy =       0.0000000000000000
    Empirical Dispersion Energy =           0.0000000000000000
    PCM Polarization Energy =               0.0000000000000000
    EFP Energy =                            0.0000000000000000
    Total Energy =                       -527.5327312571909033
    Molecular point group: c1
  Basis Set: 6-31G*
  Basis Set:

  -Total Gradient:
     Atom            X                  Y                   Z
    ------   -----------------  -----------------  -----------------
       1        0.000002254793     0.000006445055     0.000005480626
       2        0.000062858865    -0.000038153810     0.000040439574
       3        0.000543720185     0.000079704523    -0.000694482459
       4       -0.000018204484     0.000009186661    -0.000010399229
       5        0.000106312077     0.000555959368     0.000477537524
       6       -0.000482388026    -0.000182939665     0.000426141295
       7       -0.000230801422    -0.000420886123    -0.000231353110
       8        0.000011488464    -0.000028085932    -0.000031380753
       9        0.000003871214     0.000003321325     0.000003320311
      10        0.000016229525     0.000006028849     0.000000360862
      11        0.000015701755     0.000006242665    -0.000011877355
      12       -0.000017729519    -0.000019982174     0.000025149717
      13       -0.000013313427     0.000023159259     0.000001062996

  **** Optimization is complete! (in 5 steps) ****
    Final optimized geometry and variables:
    Molecular point group: c1

    Geometry (in Angstrom), charge = 0, multiplicity = 1:

    H           -3.605551485739     0.317933561342    -1.719482022256
    C           -2.898342490223    -0.343235051094    -1.255776419195
    C           -2.121463966799     0.092228371673    -0.290596311636
    H           -2.856746319101    -1.360170512687    -1.601875159764
    O           -1.226123039475    -0.709374088317     0.366029047958
    H           -2.165461505017     1.097175793768     0.087087977603
    C            0.015342920816    -0.925327179211    -0.224968404862
    C            1.009756237235     0.135158918743     0.187967225694
    H           -0.045731038750    -0.934669882590    -1.305499715333
    H            0.386844171763    -1.878748790234     0.121711441577
    F            2.179446603273    -0.101007528550    -0.387368476642
    F            0.617902187885     1.345305777664    -0.178959220398
    F            1.197708555040     0.156900681360     1.492643043744

  Mulliken Charges: (a.u.)
   Center  Symbol    Alpha    Beta     Spin     Total
       1     H     0.40412  0.40412  0.00000  0.19175
       2     C     3.21665  3.21665  0.00000 -0.43330
       3     C     2.91393  2.91393  0.00000  0.17213
       4     H     0.40449  0.40449  0.00000  0.19103
       5     O     4.31116  4.31116  0.00000 -0.62231
       6     H     0.40024  0.40024  0.00000  0.19953
       7     C     3.05284  3.05284  0.00000 -0.10569
       8     C     2.45832  2.45832  0.00000  1.08335
       9     H     0.40405  0.40405  0.00000  0.19190
      10     H     0.39428  0.39428  0.00000  0.21145
      11     F     4.68282  4.68282  0.00000 -0.36563
      12     F     4.68096  4.68096  0.00000 -0.36191
      13     F     4.67615  4.67615  0.00000 -0.35231

   Total alpha = 32.00000, Total beta = 32.00000, Total charge = -0.00000
