                              Psi4 1.0.54 Driver

  ==> Input File <==

--------------------------------------------------------------------------
set {
	reference rhf
	basis cc-pvtz
}

set_num_threads( 4 )
memory 2 gb

molecule MOL {
0 1

H	 -3.268214	 -0.875720	 0.463107
C	 -2.806015	 0.000007	 0.024886
N	 -1.391133	 0.000016	 0.301321
H	 -3.029448	 0.000055	 -1.045738
H	 -3.268126	 0.875758	 0.463150
C	 -1.015845	 -1.025098	 1.250993
C	 -0.913922	 1.297344	 0.728803
H	 -1.501926	 -0.869508	 2.218653
H	 -1.339281	 -1.987963	 0.873681
C	 0.487943	 -1.046053	 1.451483
H	 -1.162942	 2.029954	 -0.029723
H	 -1.393051	 1.611251	 1.660868
C	 0.589866	 1.276389	 0.929293
H	 0.736963	 -1.778662	 2.210009
H	 0.967072	 -1.359960	 0.519418
N	 0.965154	 0.251275	 1.878965
H	 0.913302	 2.239254	 1.306605
H	 1.075947	 1.120799	 -0.038367
C	 2.380036	 0.251284	 2.155400
H	 2.608332	 -0.486502	 2.914423
H	 2.683206	 1.220759	 2.530590
H	 2.985130	 0.026277	 1.272569

	symmetry c1
}
set optking {
	frozen_dihedral = ("
		6 3 2 4
	")
}

ee,wfn = optimize('scf', return_wfn=True)
oeprop( wfn, 'DIPOLE', 'QUADRUPOLE', 'MULLIKEN_CHARGES')
f=open( 'psi4out.xyz', 'w' )
f.write( "22  " )
f.write( str(ee) + "\n" )
f.write( MOL.save_string_xyz() )
f.close()
--------------------------------------------------------------------------

    Molecular point group: c1
  Charge       = 0
  Multiplicity = 1
  Basis Set: CC-PVTZ
  Basis Set:
  @DF-RHF Final Energy:  -344.34452117977679
    Total Energy =                       -344.3445211797767342
    Molecular point group: c1
  Basis Set: CC-PVTZ
  Basis Set:
  Basis Set: CC-PVTZ
  Basis Set:
  @DF-RHF Final Energy:  -344.34535165900797
    Total Energy =                       -344.3453516590082018
  Basis Set: CC-PVTZ
  Basis Set:
  Basis Set: CC-PVTZ
  Basis Set:
  @DF-RHF Final Energy:  -344.34550199770575
    Total Energy =                       -344.3455019977059237
  Basis Set: CC-PVTZ
  Basis Set:
  Basis Set: CC-PVTZ
  Basis Set:
  @DF-RHF Final Energy:  -344.34551339374724
    Total Energy =                       -344.3455133937476376
  Basis Set: CC-PVTZ
  Basis Set:
  Charge       = 0
  Multiplicity = 1
  Basis Set: CC-PVTZ
  Basis Set:

    Orbital Energies (a.u.)
    -----------------------

    Doubly Occupied:

       1A    -15.537209     2A    -15.533552     3A    -11.237422
       4A    -11.237270     5A    -11.236373     6A    -11.236359
       7A    -11.234055     8A    -11.233922     9A     -1.255265
      10A     -1.203517    11A     -1.025806    12A     -0.991990
      13A     -0.912727    14A     -0.868040    15A     -0.836447
      16A     -0.753859    17A     -0.666013    18A     -0.636761
      19A     -0.631651    20A     -0.625329    21A     -0.621247
      22A     -0.580608    23A     -0.551729    24A     -0.549524
      25A     -0.542905    26A     -0.519622    27A     -0.497223
      28A     -0.488189    29A     -0.466803    30A     -0.456860
      31A     -0.351096    32A     -0.340783

  @DF-RHF Final Energy:  -344.34551432718240

   => Energetics <=

    Nuclear Repulsion Energy =            421.4246773666595800
    One-Electron Energy =               -1301.8200736984804280
    Two-Electron Energy =                 536.0498820046384481
    DFT Exchange-Correlation Energy =       0.0000000000000000
    Empirical Dispersion Energy =           0.0000000000000000
    PCM Polarization Energy =               0.0000000000000000
    EFP Energy =                            0.0000000000000000
    Total Energy =                       -344.3455143271823999
    Molecular point group: c1
  Basis Set: CC-PVTZ
  Basis Set:

  -Total Gradient:
     Atom            X                  Y                   Z
    ------   -----------------  -----------------  -----------------
       1       -0.000004193095    -0.000009772061     0.000006468933
       2        0.000013120322     0.003911060173    -0.000832514394
       3       -0.000597688325     0.001491981093     0.002967181869
       4        0.000097719868    -0.003626839362    -0.000038928275
       5        0.000030122226    -0.000026664848     0.000016441409
       6        0.000467957706    -0.001772050729    -0.002090640642
       7       -0.000008440480     0.000035516256    -0.000018884223
       8        0.000002283373     0.000007535021    -0.000017692031
       9        0.000007198230     0.000002510860     0.000003718609
      10        0.000007948828    -0.000002393682     0.000003461403
      11       -0.000000204845     0.000004425548     0.000002422437
      12        0.000001004730    -0.000012954103    -0.000006148888
      13       -0.000007367899     0.000009175063     0.000004833930
      14        0.000008003721    -0.000001611716     0.000002558966
      15       -0.000008180024    -0.000004002553    -0.000001799309
      16       -0.000018480326    -0.000006198257    -0.000013283271
      17        0.000005032037     0.000001376941     0.000000185834
      18       -0.000008847987     0.000005068308    -0.000003459071
      19        0.000002496276    -0.000004881176     0.000017925030
      20        0.000009124051     0.000000843485     0.000000270427
      21        0.000003170546    -0.000002480420    -0.000001069492
      22       -0.000001778935     0.000000356159    -0.000001049248

  **** Optimization is complete! (in 5 steps) ****
    Final optimized geometry and variables:
    Molecular point group: c1

    Geometry (in Angstrom), charge = 0, multiplicity = 1:

    H           -3.082349238128    -1.074604177792    -0.655087019961
    C           -2.626552407401    -0.164568829896    -1.026193888349
    N           -1.211947612782    -0.143953368525    -0.711640571993
    H           -2.788732282929    -0.149615384940    -2.098682180875
    H           -3.164274253370     0.667846658706    -0.577910216916
    C           -0.789518754521    -1.158679127195     0.226365555247
    C           -0.718276313451     1.165480316370    -0.356583576917
    H           -1.234274294173    -1.010875835502     1.215397134315
    H           -1.110385424526    -2.127596914261    -0.135640050687
    C            0.721885658275    -1.159143558490     0.363995591240
    H           -0.993871247263     1.868062043981    -1.134626962498
    H           -1.161964668403     1.520584802947     0.578583656632
    C            0.791989342762     1.151038919867    -0.212062755737
    H            1.010676793005    -1.876018588912     1.123611274047
    H            1.164631788336    -1.484099539466    -0.582415045924
    N            1.203872898915     0.149976410599     0.747939808365
    H            1.127739219062     2.123386946969     0.128739286557
    H            1.242354672468     0.971184217005    -1.192884742522
    C            2.626948442291     0.163985571223     0.977620181055
    H            2.884720063033    -0.555096587110     1.745173137369
    H            2.936435422402     1.143416238466     1.320543400815
    H            3.204378112287    -0.077795425968     0.080648268095

  Mulliken Charges: (a.u.)
   Center  Symbol    Alpha    Beta     Spin     Total
       1     H     0.45849  0.45849  0.00000  0.08303
       2     C     3.09354  3.09354  0.00000 -0.18708
       3     N     3.61484  3.61484  0.00000 -0.22968
       4     H     0.45015  0.45015  0.00000  0.09969
       5     H     0.46364  0.46364  0.00000  0.07272
       6     C     3.03443  3.03443  0.00000 -0.06886
       7     C     3.03491  3.03491  0.00000 -0.06983
       8     H     0.46913  0.46913  0.00000  0.06173
       9     H     0.45384  0.45384  0.00000  0.09231
      10     C     3.03662  3.03662  0.00000 -0.07324
      11     H     0.45357  0.45357  0.00000  0.09286
      12     H     0.46868  0.46868  0.00000  0.06264
      13     C     3.03706  3.03706  0.00000 -0.07412
      14     H     0.45409  0.45409  0.00000  0.09183
      15     H     0.46879  0.46879  0.00000  0.06242
      16     N     3.61304  3.61304  0.00000 -0.22608
      17     H     0.45410  0.45410  0.00000  0.09179
      18     H     0.46866  0.46866  0.00000  0.06268
      19     C     3.09824  3.09824  0.00000 -0.19649
      20     H     0.45197  0.45197  0.00000  0.09605
      21     H     0.45196  0.45196  0.00000  0.09608
      22     H     0.47023  0.47023  0.00000  0.05953

   Total alpha = 32.00000, Total beta = 32.00000, Total charge = -0.00000

*** Psi4 exiting successfully. Buy a developer a beer!
