                              Psi4 1.0.54 Driver

  ==> Input File <==

--------------------------------------------------------------------------
set {
	reference rhf
	basis cc-pvtz
}

set_num_threads( 4 )
memory 2 gb

molecule MOL {
0 1

H	 4.438418	 0.201330	 1.199664
C	 3.652818	 -0.383675	 0.736295
C	 2.348551	 0.403287	 0.671247
H	 3.991520	 -0.662895	 -0.255853
H	 3.536114	 -1.294881	 1.313444
C	 1.215950	 -0.382441	 0.027187
H	 2.494615	 1.321729	 0.113668
H	 2.054092	 0.695457	 1.676487
N	 0.000002	 0.398953	 -0.040851
H	 1.498674	 -0.653646	 -0.985573
H	 1.072919	 -1.322064	 0.569160
C	 -1.215959	 -0.382435	 0.027143
H	 -0.000012	 1.086078	 0.683841
C	 -2.451944	 0.502410	 -0.038737
H	 -1.221867	 -1.069392	 -0.813828
H	 -1.259993	 -0.999709	 0.929424
C	 -3.752217	 -0.292550	 0.005776
H	 -2.407325	 1.093801	 -0.946480
H	 -2.431979	 1.206234	 0.790023
H	 -3.817783	 -0.982946	 -0.828547
H	 -4.612613	 0.364348	 -0.042306
H	 -3.830160	 -0.871666	 0.919868

	symmetry c1
}
set optking {
	frozen_dihedral = ("
		10 6 9 12
	")
}

ee,wfn = optimize('scf', return_wfn=True)
oeprop( wfn, 'DIPOLE', 'QUADRUPOLE', 'MULLIKEN_CHARGES')
f=open( 'psi4out.xyz', 'w' )
f.write( "22  " )
f.write( str(ee) + "\n" )
f.write( MOL.save_string_xyz() )
f.close()
--------------------------------------------------------------------------

    Molecular point group: c1
  Charge       = 0
  Multiplicity = 1
  Basis Set: CC-PVTZ
  Basis Set:
  @DF-RHF Final Energy:  -290.48754625690680
    Total Energy =                       -290.4875462569071374
    Molecular point group: c1
  Basis Set: CC-PVTZ
  Basis Set:
  Basis Set: CC-PVTZ
  Basis Set:
  @DF-RHF Final Energy:  -290.48775537277470
    Total Energy =                       -290.4877553727747568
  Basis Set: CC-PVTZ
  Basis Set:
  Basis Set: CC-PVTZ
  Basis Set:
  @DF-RHF Final Energy:  -290.48779245370736
    Total Energy =                       -290.4877924537070726
  Basis Set: CC-PVTZ
  Basis Set:
  Basis Set: CC-PVTZ
  Basis Set:
  @DF-RHF Final Energy:  -290.48779408492999
    Total Energy =                       -290.4877940849301012
  Basis Set: CC-PVTZ
  Basis Set:
  Charge       = 0
  Multiplicity = 1
  Basis Set: CC-PVTZ
  Basis Set:

    Orbital Energies (a.u.)
    -----------------------

    Doubly Occupied:

       1A    -15.527270     2A    -11.236018     3A    -11.235905
       4A    -11.215400     5A    -11.211286     6A    -11.209347
       7A    -11.207275     8A     -1.206154     9A     -1.061289
      10A     -1.027524    11A     -0.929105    12A     -0.868525
      13A     -0.813521    14A     -0.795403    15A     -0.662672
      16A     -0.634447    17A     -0.615663    18A     -0.614624
      19A     -0.574077    20A     -0.561897    21A     -0.537841
      22A     -0.525803    23A     -0.515391    24A     -0.486026
      25A     -0.482048    26A     -0.474245    27A     -0.468493
      28A     -0.452034    29A     -0.361342

  @DF-RHF Final Energy:  -290.48779422097681

   => Energetics <=

    Nuclear Repulsion Energy =            313.9374802953328185
    One-Electron Energy =               -1013.8293037899111368
    Two-Electron Energy =                 409.4040292736013953
    DFT Exchange-Correlation Energy =       0.0000000000000000
    Empirical Dispersion Energy =           0.0000000000000000
    PCM Polarization Energy =               0.0000000000000000
    EFP Energy =                            0.0000000000000000
    Total Energy =                       -290.4877942209769799
    Molecular point group: c1
  Basis Set: CC-PVTZ
  Basis Set:

  -Total Gradient:
     Atom            X                  Y                   Z
    ------   -----------------  -----------------  -----------------
       1       -0.000003328643    -0.000001323449     0.000000605988
       2        0.000003323080    -0.000012951212    -0.000007550984
       3        0.000009718711     0.000024453972     0.000014426932
       4       -0.000000524863    -0.000002320550     0.000006772154
       5        0.000007062719     0.000003127293    -0.000001864986
       6       -0.002692718612    -0.003968723146     0.001561983020
       7       -0.000006526900    -0.000004642838     0.000002480981
       8       -0.000002635151     0.000000698169    -0.000008761276
       9        0.000552500765     0.000399832435    -0.004356396327
      10        0.002139949934     0.003273192935    -0.000250976164
      11        0.000002648393     0.000006358483    -0.000002745809
      12        0.000003905922     0.000281820135     0.003033122845
      13       -0.000005630228     0.000012427705     0.000004132259
      14       -0.000000142718     0.000003833652     0.000000980325
      15       -0.000006385394    -0.000008593012    -0.000003085582
      16       -0.000003820804    -0.000005438992     0.000003008092
      17        0.000000137188    -0.000002820018     0.000004376325
      18        0.000002369091    -0.000001588608    -0.000000207700
      19       -0.000002506053     0.000001680284     0.000000937128
      20        0.000000335914     0.000000947544    -0.000001088154
      21        0.000002916217     0.000000483362     0.000000322535
      22       -0.000000648571    -0.000000454144    -0.000000471600

  **** Optimization is complete! (in 5 steps) ****
    Final optimized geometry and variables:
    Molecular point group: c1

    Geometry (in Angstrom), charge = 0, multiplicity = 1:

    H            4.488034707536     0.249250345076     0.947318555631
    C            3.701934480302    -0.338866523279     0.488770568276
    C            2.380744569658     0.421490918310     0.482759404139
    H            4.017647109984    -0.582812872814    -0.519755656861
    H            3.618799010976    -1.267854859730     1.042835748823
    C            1.243165419645    -0.372398549097    -0.146659119693
    H            2.496535316240     1.354352676350    -0.060244316086
    H            2.111470817817     0.685530738034     1.502736596025
    N            0.026312055058     0.416296826761    -0.225699537616
    H            1.547326606644    -0.651526144521    -1.151608601392
    H            1.093605440962    -1.292897542920     0.419240889435
    C           -1.196357571064    -0.357392832065    -0.170394351746
    H            0.017678489900     1.087043533304     0.513484439989
    C           -2.425470780748     0.533875926447    -0.265642537403
    H           -1.195338092493    -1.054571127054    -1.003497389346
    H           -1.255722324281    -0.964097457361     0.737631868338
    C           -3.731446772550    -0.251797866767    -0.222824736187
    H           -2.366530910605     1.109968949314    -1.182280955571
    H           -2.409858676178     1.251391268866     0.551481110881
    H           -3.791715162528    -0.956244776551    -1.045732358317
    H           -4.586856809912     0.409688366437    -0.292549183902
    H           -3.824052326437    -0.814343721479     0.700244253009

  Mulliken Charges: (a.u.)
   Center  Symbol    Alpha    Beta     Spin     Total
       1     H     0.44764  0.44764  0.00000  0.10472
       2     C     3.15282  3.15282  0.00000 -0.30564
       3     C     3.08713  3.08713  0.00000 -0.17425
       4     H     0.45389  0.45389  0.00000  0.09222
       5     H     0.45528  0.45528  0.00000  0.08945
       6     C     3.01704  3.01704  0.00000 -0.03408
       7     H     0.44876  0.44876  0.00000  0.10247
       8     H     0.45938  0.45938  0.00000  0.08124
       9     N     3.63797  3.63797  0.00000 -0.27594
      10     H     0.45955  0.45955  0.00000  0.08089
      11     H     0.47448  0.47448  0.00000  0.05104
      12     C     3.02339  3.02339  0.00000 -0.04678
      13     H     0.44823  0.44823  0.00000  0.10355
      14     C     3.08120  3.08120  0.00000 -0.16241
      15     H     0.45846  0.45846  0.00000  0.08308
      16     H     0.47404  0.47404  0.00000  0.05191
      17     C     3.15327  3.15327  0.00000 -0.30654
      18     H     0.44889  0.44889  0.00000  0.10223
      19     H     0.45979  0.45979  0.00000  0.08041
      20     H     0.45474  0.45474  0.00000  0.09052
      21     H     0.44774  0.44774  0.00000  0.10452
      22     H     0.45631  0.45631  0.00000  0.08738

   Total alpha = 29.00000, Total beta = 29.00000, Total charge = -0.00000

*** Psi4 exiting successfully. Buy a developer a beer!
