  ==> Input File <==

--------------------------------------------------------------------------
set {
	reference rhf
	basis cc-pvtz
}

set_num_threads( 4 )
memory 2 gb

molecule MOL {
0 1

H	 1.412367	 0.887245	 -0.827863
C	 0.848385	 0.440008	 0.000011
C	 -0.623497	 0.751021	 0.000090
O	 1.401801	 -0.226942	 0.803847
C	 -1.523725	 -0.474323	 -0.000013
H	 -0.813143	 1.382932	 -0.864897
H	 -0.813071	 1.382716	 0.865253
H	 -1.342980	 -1.087348	 -0.873016
H	 -2.565269	 -0.177464	 0.000070
H	 -1.342898	 -1.087564	 0.872820

	symmetry c1
}
set optking {
	frozen_dihedral = ("
		4 2 3 6
	")
}

ee = optimize('scf')
oeprop('DIPOLE', 'QUADRUPOLE', 'MULLIKEN_CHARGES')
f=open( 'psi4out.xyz', 'w' )
f.write( "10  " )
f.write( str(ee) + "\n" )
f.write( MOL.save_string_xyz() )
f.close()
--------------------------------------------------------------------------

    Molecular point group: c1
  Charge       = 0
  Multiplicity = 1
  Basis Set: CC-PVTZ
  Basis Set:
  @DF-RHF Final Energy:  -192.02086794248359
    Total Energy =                       -192.0208679424835054
    Molecular point group: c1
  Basis Set: CC-PVTZ
  Basis Set:
  Basis Set: CC-PVTZ
  Basis Set:
  @DF-RHF Final Energy:  -192.02101511302772
    Total Energy =                       -192.0210151130276586
  Basis Set: CC-PVTZ
  Basis Set:
  Basis Set: CC-PVTZ
  Basis Set:
  @DF-RHF Final Energy:  -192.02143113015731
    Total Energy =                       -192.0214311301573673
  Basis Set: CC-PVTZ
  Basis Set:
  Basis Set: CC-PVTZ
  Basis Set:
  @DF-RHF Final Energy:  -192.02152313940030
    Total Energy =                       -192.0215231394003013
  Basis Set: CC-PVTZ
  Basis Set:
  Basis Set: CC-PVTZ
  Basis Set:
  @DF-RHF Final Energy:  -192.02152860992007
    Total Energy =                       -192.0215286099200966
  Basis Set: CC-PVTZ
  Basis Set:
  Charge       = 0
  Multiplicity = 1
  Basis Set: CC-PVTZ
  Basis Set:

    Orbital Energies (a.u.)
    -----------------------

    Doubly Occupied:

       1A    -20.553481     2A    -11.323557     3A    -11.237839
       4A    -11.224629     5A     -1.409100     6A     -1.061221
       7A     -0.906910     8A     -0.782990     9A     -0.686251
      10A     -0.641771    11A     -0.613604    12A     -0.567351
      13A     -0.538208    14A     -0.513155    15A     -0.494662
      16A     -0.414564

  @DF-RHF Final Energy:  -192.02152920956496

   => Energetics <=

    Nuclear Repulsion Energy =            118.8483485835316600
    One-Electron Energy =                -495.8011733337125406
    Two-Electron Energy =                 184.9312955406159062
    DFT Exchange-Correlation Energy =       0.0000000000000000
    Empirical Dispersion Energy =           0.0000000000000000
    PCM Polarization Energy =               0.0000000000000000
    EFP Energy =                            0.0000000000000000
    Total Energy =                       -192.0215292095649602
    Molecular point group: c1
  Basis Set: CC-PVTZ
  Basis Set:

  -Total Gradient:
     Atom            X                  Y                   Z
    ------   -----------------  -----------------  -----------------
       1       -0.000005488193    -0.000004310900     0.000004643740
       2       -0.000214502528    -0.000822962103    -0.000548068108
       3       -0.000144714994    -0.000543576357    -0.000366984931
       4        0.000191121147     0.000673049519     0.000477282026
       5        0.000035290714     0.000034258392    -0.000002357884
       6        0.000137576321     0.000671755400     0.000437746592
       7        0.000006190153    -0.000010944886    -0.000005428316
       8        0.000000740170     0.000000919628    -0.000001376744
       9       -0.000005929173     0.000003324817     0.000002132185
      10       -0.000000283616    -0.000001513510     0.000002411443

  **** Optimization is complete! (in 6 steps) ****
    Final optimized geometry and variables:
    Molecular point group: c1

    Geometry (in Angstrom), charge = 0, multiplicity = 1:

    H            1.442079838737     0.743658098090    -1.023677304573
    C            0.833839591612     0.324897341534    -0.213508987579
    C           -0.639383697141     0.664420020084    -0.228757537582
    O            1.341180266001    -0.343051098208     0.619876715234
    C           -1.521948254683    -0.583167278018    -0.209896681616
    H           -0.858999996702     1.285876102775    -1.088929011115
    H           -0.831019856250     1.262763136838     0.656561971937
    H           -1.369029386137    -1.184541027299    -1.098717239877
    H           -2.567592686951    -0.305357435174    -0.170591536295
    H           -1.294717892719    -1.193888465911     0.652655392609

  Mulliken Charges: (a.u.)
   Center  Symbol    Alpha    Beta     Spin     Total
       1     H     0.45667  0.45667  0.00000  0.08666
       2     C     2.90976  2.90976  0.00000  0.18049
       3     C     3.08415  3.08415  0.00000 -0.16830
       4     O     4.16784  4.16784  0.00000 -0.33568
       5     C     3.14338  3.14338  0.00000 -0.28677
       6     H     0.44952  0.44952  0.00000  0.10095
       7     H     0.44485  0.44485  0.00000  0.11029
       8     H     0.45376  0.45376  0.00000  0.09248
       9     H     0.44835  0.44835  0.00000  0.10330
      10     H     0.44171  0.44171  0.00000  0.11658

   Total alpha = 16.00000, Total beta = 16.00000, Total charge =  0.00000
