                              Psi4 1.0.54 Driver

  ==> Input File <==

--------------------------------------------------------------------------
set {
	reference rhf
	basis cc-pvtz
}

set_num_threads( 4 )
memory 2 gb

molecule MOL {
0 1

H	 2.828711	 -0.346904	 0.001083
C	 1.876752	 0.015931	 -0.363450
C	 0.776285	 -0.474665	 0.563092
H	 1.728113	 -0.357244	 -1.367440
H	 1.906171	 1.096574	 -0.386153
N	 -0.540022	 0.017605	 0.071630
H	 0.707111	 -1.548969	 0.573035
H	 0.886169	 -0.084184	 1.560432
O	 -1.500206	 -0.286315	 0.696029
O	 -0.541091	 0.656183	 -0.926675

	symmetry c1
}
set optking {
	frozen_dihedral = ("
		9 6 3 2
	")
}

ee,wfn = optimize('scf', return_wfn=True)
oeprop( wfn, 'DIPOLE', 'QUADRUPOLE', 'MULLIKEN_CHARGES')
f=open( 'psi4out.xyz', 'w' )
f.write( "10  " )
f.write( str(ee) + "\n" )
f.write( MOL.save_string_xyz() )
f.close()
--------------------------------------------------------------------------

    Molecular point group: c1
  Charge       = 0
  Multiplicity = 1
  Basis Set: CC-PVTZ
  Basis Set:
  @DF-RHF Final Energy:  -282.81096937932233
    Total Energy =                       -282.8109693793222732
    Molecular point group: c1
  Basis Set: CC-PVTZ
  Basis Set:
  Basis Set: CC-PVTZ
  Basis Set:
  @DF-RHF Final Energy:  -282.50437248043278
    Total Energy =                       -282.5043724804327212
  Basis Set: CC-PVTZ
  Basis Set:
  Basis Set: CC-PVTZ
  Basis Set:
  @DF-RHF Final Energy:  -282.66706059478111
    Total Energy =                       -282.6670605947811055
  Basis Set: CC-PVTZ
  Basis Set:
  Basis Set: CC-PVTZ
  Basis Set:
  @DF-RHF Final Energy:  -282.78844047119026
    Total Energy =                       -282.7884404711902562
  Basis Set: CC-PVTZ
  Basis Set:
  @DF-RHF Final Energy:  -282.79577168840945
    Total Energy =                       -282.7957716884095589
  @DF-RHF Final Energy:  -282.81238970792424
    Total Energy =                       -282.8123897079242965
  @DF-RHF Final Energy:  -282.81197786328391
    Total Energy =                       -282.8119778632840280
  @DF-RHF Final Energy:  -282.60765353120075
    Total Energy =                       -282.6076535312008104
  @DF-RHF Final Energy:  -282.68687014559379
    Total Energy =                       -282.6868701455938435
  @DF-RHF Final Energy:  -282.79656019037628
    Total Energy =                       -282.7965601903763400
  @DF-RHF Final Energy:  -282.80392829832260
    Total Energy =                       -282.8039282983226030
  @DF-RHF Final Energy:  -282.81216437825435
    Total Energy =                       -282.8121643782543515
  @DF-RHF Final Energy:  -282.80896230604242
    Total Energy =                       -282.8089623060423037
  Basis Set: CC-PVTZ
  Basis Set:
  @DF-RHF Final Energy:  -282.81270496095868
    Total Energy =                       -282.8127049609588539
  Basis Set: CC-PVTZ
  Basis Set:
  Basis Set: CC-PVTZ
  Basis Set:
  @DF-RHF Final Energy:  -282.81287193305650
    Total Energy =                       -282.8128719330564991
  Basis Set: CC-PVTZ
  Basis Set:
  Basis Set: CC-PVTZ
  Basis Set:
  @DF-RHF Final Energy:  -282.81287729761442
    Total Energy =                       -282.8128772976145342
  Basis Set: CC-PVTZ
  Basis Set:
  Charge       = 0
  Multiplicity = 1
  Basis Set: CC-PVTZ
  Basis Set:

    Orbital Energies (a.u.)
    -----------------------

    Doubly Occupied:

       1A    -20.595264     2A    -20.588464     3A    -15.839696
       4A    -11.303302     5A    -11.243431     6A     -1.638671
       7A     -1.422975     8A     -1.123863     9A     -0.966900
      10A     -0.834723    11A     -0.762124    12A     -0.754689
      13A     -0.732251    14A     -0.637617    15A     -0.595336
      16A     -0.564045    17A     -0.538758    18A     -0.490494
      19A     -0.479962    20A     -0.455086

  @DF-RHF Final Energy:  -282.81287764253011

   => Energetics <=

    Nuclear Repulsion Energy =            186.5794186990712262
    One-Electron Energy =                -755.6492919444697236
    Two-Electron Energy =                 286.2569956028683578
    DFT Exchange-Correlation Energy =       0.0000000000000000
    Empirical Dispersion Energy =           0.0000000000000000
    PCM Polarization Energy =               0.0000000000000000
    EFP Energy =                            0.0000000000000000
    Total Energy =                       -282.8128776425301680
    Molecular point group: c1
  Basis Set: CC-PVTZ
  Basis Set:

  -Total Gradient:
     Atom            X                  Y                   Z
    ------   -----------------  -----------------  -----------------
       1       -0.000007785174    -0.000001063137     0.000000875129
       2        0.000001302831    -0.000001528389    -0.000006169920
       3       -0.000031527532     0.000002908701     0.000002502912
       4        0.000002773337     0.000007338035     0.000000960725
       5        0.000006054231    -0.000009399553    -0.000001850115
       6        0.000128926363    -0.000093885491     0.000152420475
       7       -0.000018629193     0.000001553447     0.000009600084
       8       -0.000004819662    -0.000003490186     0.000006720311
       9       -0.000014938175     0.000063925271    -0.000106673636
      10       -0.000061357025     0.000033641300    -0.000058385965

  **** Optimization is complete! (in 17 steps) ****
    Final optimized geometry and variables:
    Molecular point group: c1

    Geometry (in Angstrom), charge = 0, multiplicity = 1:

    H            1.230190061277     1.399711203383    -2.196600123044
    C            0.383987986047     1.035859307506    -1.626461644345
    C            0.913084580412     0.276381917927    -0.432569314983
    H           -0.214808804577     0.402228514847    -2.264010391212
    H           -0.216342621952     1.880752790107    -1.322714086380
    N           -0.158753491512    -0.284339986731     0.446401958025
    H            1.507418285746    -0.580481757378    -0.710201625523
    H            1.505975113371     0.891401964475     0.226818204187
    O            0.215331471673    -0.888114169132     1.395476202868
    O           -1.289679084828    -0.099082328447     0.153335882740

  Mulliken Charges: (a.u.)
   Center  Symbol    Alpha    Beta     Spin     Total
       1     H     0.44932  0.44932  0.00000  0.10136
       2     C     3.13815  3.13815  0.00000 -0.27630
       3     C     3.04400  3.04400  0.00000 -0.08801
       4     H     0.44170  0.44170  0.00000  0.11659
       5     H     0.44171  0.44171  0.00000  0.11659
       6     N     3.27608  3.27608  0.00000  0.44784
       7     H     0.43307  0.43307  0.00000  0.13386
       8     H     0.43307  0.43307  0.00000  0.13386
       9     O     4.17370  4.17370  0.00000 -0.34740
      10     O     4.16920  4.16920  0.00000 -0.33840

   Total alpha = 20.00000, Total beta = 20.00000, Total charge = -0.00000

*** Psi4 exiting successfully. Buy a developer a beer!
