  ==> Input File <==

--------------------------------------------------------------------------
set {
	reference rhf
	basis cc-pvtz
}

set_num_threads( 4 )
memory 2 gb

molecule MOL {
0 1

O	 -2.440701	 -0.934798	 -0.415053
C	 -1.922978	 0.063265	 -0.045005
C	 -2.632749	 1.372204	 0.158357
O	 -0.637375	 0.157174	 0.243149
H	 -2.187724	 2.129143	 -0.474664
H	 -3.677681	 1.257276	 -0.079438
H	 -2.516788	 1.693160	 1.185542
C	 0.162530	 -1.009518	 0.097799
C	 1.587210	 -0.664190	 0.477086
H	 0.096803	 -1.356267	 -0.924704
H	 -0.233803	 -1.785900	 0.736810
C	 2.256770	 0.342732	 -0.454344
H	 2.154716	 -1.590834	 0.479041
H	 1.598751	 -0.289614	 1.496104
C	 2.656724	 1.629242	 0.260181
H	 3.138187	 -0.113206	 -0.897425
H	 1.586080	 0.576398	 -1.273136
H	 3.132692	 2.323666	 -0.422178
H	 3.352880	 1.430439	 1.068412
H	 1.790899	 2.125475	 0.685758

	symmetry c1
}
set optking {
	frozen_dihedral = ("
		16 12 9 8
	")
}

ee = optimize('scf')
oeprop('DIPOLE', 'QUADRUPOLE', 'MULLIKEN_CHARGES')
f=open( 'psi4out.xyz', 'w' )
f.write( "20  " )
f.write( str(ee) + "\n" )
f.write( MOL.save_string_xyz() )
f.close()
--------------------------------------------------------------------------

    Molecular point group: c1
  Charge       = 0
  Multiplicity = 1
  Basis Set: CC-PVTZ
  Basis Set:
  @DF-RHF Final Energy:  -384.08214558000191
    Total Energy =                       -384.0821455800017930
    Molecular point group: c1
  Basis Set: CC-PVTZ
  Basis Set:
  Basis Set: CC-PVTZ
  Basis Set:
  @DF-RHF Final Energy:  -384.08240209138688
    Total Energy =                       -384.0824020913863706
  Basis Set: CC-PVTZ
  Basis Set:
  Basis Set: CC-PVTZ
  Basis Set:
  @DF-RHF Final Energy:  -384.08239571865687
    Total Energy =                       -384.0823957186564712
  Basis Set: CC-PVTZ
  Basis Set:
  Basis Set: CC-PVTZ
  Basis Set:
  @DF-RHF Final Energy:  -384.08247933846872
    Total Energy =                       -384.0824793384687155
  Basis Set: CC-PVTZ
  Basis Set:
  Basis Set: CC-PVTZ
  Basis Set:
  @DF-RHF Final Energy:  -384.08248786702046
    Total Energy =                       -384.0824878670200633
  Basis Set: CC-PVTZ
  Basis Set:
  Basis Set: CC-PVTZ
  Basis Set:
  @DF-RHF Final Energy:  -384.08249352039195
    Total Energy =                       -384.0824935203920631
  Basis Set: CC-PVTZ
  Basis Set:
  Charge       = 0
  Multiplicity = 1
  Basis Set: CC-PVTZ
  Basis Set:

    Orbital Energies (a.u.)
    -----------------------

    Doubly Occupied:

       1A    -20.594800     2A    -20.533054     3A    -11.367044
       4A    -11.280440     5A    -11.232019     6A    -11.223358
       7A    -11.219432     8A    -11.209719     9A     -1.471367
      10A     -1.365571    11A     -1.084808    12A     -1.028283
      13A     -0.982132    14A     -0.882156    15A     -0.809966
      16A     -0.778480    17A     -0.693501    18A     -0.687583
      19A     -0.670128    20A     -0.621923    21A     -0.605796
      22A     -0.596236    23A     -0.576025    24A     -0.554528
      25A     -0.539492    26A     -0.534403    27A     -0.513843
      28A     -0.481010    29A     -0.476162    30A     -0.469601
      31A     -0.452624    32A     -0.441856

  @DF-RHF Final Energy:  -384.08249361659909

   => Energetics <=

    Nuclear Repulsion Energy =            390.3317439835063851
    One-Electron Energy =               -1296.8737948728144147
    Two-Electron Energy =                 522.4595572727088211
    DFT Exchange-Correlation Energy =       0.0000000000000000
    Empirical Dispersion Energy =           0.0000000000000000
    PCM Polarization Energy =               0.0000000000000000
    EFP Energy =                            0.0000000000000000
    Total Energy =                       -384.0824936165992085
    Molecular point group: c1
  Basis Set: CC-PVTZ
  Basis Set:

  -Total Gradient:
     Atom            X                  Y                   Z
    ------   -----------------  -----------------  -----------------
       1        0.000010546469    -0.000000788555     0.000011892091
       2       -0.000002087699     0.000019152240    -0.000032378870
       3       -0.000007297589    -0.000001138801     0.000011059776
       4       -0.000013882826    -0.000014057544     0.000008034374
       5        0.000000991920    -0.000002946471    -0.000000436052
       6       -0.000001134566     0.000001405086     0.000000684874
       7       -0.000001050442     0.000002228877     0.000000029181
       8        0.000086918084    -0.000185951408    -0.000145181524
       9       -0.000159312185     0.000212394625     0.000168612912
      10       -0.000005313988    -0.000011726793    -0.000011610320
      11        0.000008441156     0.000013226389    -0.000004376353
      12        0.000295034836     0.000072942716     0.000255666795
      13       -0.000000061319     0.000004103361     0.000006766004
      14        0.000000461310    -0.000005277086    -0.000000644889
      15       -0.000002513517     0.000009684758     0.000006201547
      16       -0.000210981381    -0.000113028181    -0.000271049777
      17       -0.000000482407     0.000000606869    -0.000006176751
      18       -0.000000558253    -0.000006180733     0.000000007366
      19        0.000002900509     0.000001791380     0.000002099771
      20       -0.000000618114     0.000003559271     0.000000799841

  **** Optimization is complete! (in 7 steps) ****
    Final optimized geometry and variables:
    Molecular point group: c1

    Geometry (in Angstrom), charge = 0, multiplicity = 1:

    O           -2.304647767378    -1.055737684689    -0.464634294435
    C           -1.781437201366    -0.062360705067    -0.090109892556
    C           -2.480516520191     1.253254326044     0.104880912669
    O           -0.497457332756     0.018940132358     0.209988932181
    H           -2.021736471999     2.005153472381    -0.524255297225
    H           -3.524086174959     1.148197847494    -0.143254087706
    H           -2.371719545384     1.573730057158     1.132949131467
    C            0.292847740591    -1.155702085087     0.072495010663
    C            1.721016415811    -0.810450260321     0.437097269643
    H            0.218339808615    -1.512303814389    -0.945797053374
    H           -0.103672825352    -1.922574409725     0.722977044367
    C            2.378799080053     0.229001120821    -0.493756095977
    H            2.283125265187    -1.737989258814     0.422313269787
    H            1.738897928504    -0.459118249665     1.462988964250
    C            2.779633438444     1.516937333202     0.218935975086
    H            3.254994847055    -0.206084731805    -0.961342661791
    H            1.698698994267     0.473146470531    -1.302220086457
    H            3.233051563810     2.220388849465    -0.470140520722
    H            3.496508852664     1.319198708520     1.009041053075
    H            1.916084178032     1.995267352803     0.666879047046

  Mulliken Charges: (a.u.)
   Center  Symbol    Alpha    Beta     Spin     Total
       1     O     4.19729  4.19729  0.00000 -0.39458
       2     C     2.80834  2.80834  0.00000  0.38332
       3     C     3.13892  3.13892  0.00000 -0.27784
       4     O     4.15427  4.15427  0.00000 -0.30853
       5     H     0.44594  0.44594  0.00000  0.10811
       6     H     0.43751  0.43751  0.00000  0.12499
       7     H     0.44562  0.44562  0.00000  0.10875
       8     C     2.99434  2.99434  0.00000  0.01132
       9     C     3.09179  3.09179  0.00000 -0.18358
      10     H     0.45041  0.45041  0.00000  0.09919
      11     H     0.44423  0.44423  0.00000  0.11154
      12     C     3.08708  3.08708  0.00000 -0.17417
      13     H     0.44563  0.44563  0.00000  0.10874
      14     H     0.45228  0.45228  0.00000  0.09544
      15     C     3.14810  3.14810  0.00000 -0.29621
      16     H     0.44804  0.44804  0.00000  0.10391
      17     H     0.45346  0.45346  0.00000  0.09308
      18     H     0.44987  0.44987  0.00000  0.10026
      19     H     0.45527  0.45527  0.00000  0.08946
      20     H     0.45160  0.45160  0.00000  0.09679

   Total alpha = 32.00000, Total beta = 32.00000, Total charge = -0.00000
