  ==> Input File <==

--------------------------------------------------------------------------
set {
	reference rhf
	basis cc-pvtz
}

set_num_threads( 4 )
memory 2 gb

molecule MOL {
0 1

H	 1.838450	 0.647802	 -1.143306
O	 1.061153	 0.112696	 -1.197510
C	 0.489979	 0.078084	 0.002623
C	 -0.763662	 -0.754014	 0.000816
O	 0.940465	 0.652599	 0.932627
C	 -2.038001	 0.074705	 -0.000833
H	 -0.712945	 -1.405886	 -0.864342
H	 -0.715137	 -1.405770	 0.866182
H	 -2.087267	 0.710831	 -0.874232
H	 -2.903419	 -0.576199	 -0.001922
H	 -2.089467	 0.710909	 0.872389

	symmetry c1
}
set optking {
	frozen_dihedral = ("
		2 3 4 7
	")
}

ee = optimize('scf')
oeprop('DIPOLE', 'QUADRUPOLE', 'MULLIKEN_CHARGES')
f=open( 'psi4out.xyz', 'w' )
f.write( "11  " )
f.write( str(ee) + "\n" )
f.write( MOL.save_string_xyz() )
f.close()
--------------------------------------------------------------------------

    Molecular point group: c1
  Charge       = 0
  Multiplicity = 1
  Basis Set: CC-PVTZ
  Basis Set:
  @DF-RHF Final Energy:  -266.95055412584145
    Total Energy =                       -266.9505541258416770
    Molecular point group: c1
  Basis Set: CC-PVTZ
  Basis Set:
  Basis Set: CC-PVTZ
  Basis Set:
  @DF-RHF Final Energy:  -266.95122350104822
    Total Energy =                       -266.9512235010483892
  Basis Set: CC-PVTZ
  Basis Set:
  Basis Set: CC-PVTZ
  Basis Set:
  @DF-RHF Final Energy:  -266.95026017078339
    Total Energy =                       -266.9502601707833946
  Basis Set: CC-PVTZ
  Basis Set:
  Basis Set: CC-PVTZ
  Basis Set:
  @DF-RHF Final Energy:  -266.95133633942231
    Total Energy =                       -266.9513363394224257
  Basis Set: CC-PVTZ
  Basis Set:
  Charge       = 0
  Multiplicity = 1
  Basis Set: CC-PVTZ
  Basis Set:

    Orbital Energies (a.u.)
    -----------------------

    Doubly Occupied:

       1A    -20.606904     2A    -20.538898     3A    -11.373782
       4A    -11.241416     5A    -11.228437     6A     -1.478723
       7A     -1.369081     8A     -1.068186     9A     -0.915207
      10A     -0.815631    11A     -0.706950    12A     -0.689994
      13A     -0.646621    14A     -0.617195    15A     -0.595885
      16A     -0.542478    17A     -0.527688    18A     -0.513393
      19A     -0.479337    20A     -0.444842

  @DF-RHF Final Energy:  -266.95134257702125

   => Energetics <=

    Nuclear Repulsion Energy =            180.2468148428494317
    One-Electron Energy =                -721.5950194163364131
    Two-Electron Energy =                 274.3968619964656455
    DFT Exchange-Correlation Energy =       0.0000000000000000
    Empirical Dispersion Energy =           0.0000000000000000
    PCM Polarization Energy =               0.0000000000000000
    EFP Energy =                            0.0000000000000000
    Total Energy =                       -266.9513425770213644
    Molecular point group: c1
  Basis Set: CC-PVTZ
  Basis Set:

  -Total Gradient:
     Atom            X                  Y                   Z
    ------   -----------------  -----------------  -----------------
       1        0.000043339352     0.000035642947    -0.000035541691
       2        0.000269241256    -0.000222121667     0.000097285746
       3       -0.000423966430     0.000461616766     0.000040207836
       4        0.000203777452    -0.000459052241     0.000221155102
       5        0.000069029323    -0.000070828115    -0.000162285937
       6        0.000099424855    -0.000047910079     0.000023451247
       7       -0.000176849700     0.000240481802    -0.000186078563
       8       -0.000007978887     0.000049647929    -0.000015427562
       9       -0.000002476394    -0.000005531675     0.000008138441
      10       -0.000040147207    -0.000005445305    -0.000002048683
      11       -0.000033393623     0.000023499637     0.000011144065

  **** Optimization is complete! (in 5 steps) ****
    Final optimized geometry and variables:
    Molecular point group: c1

    Geometry (in Angstrom), charge = 0, multiplicity = 1:

    H            1.845442215103     0.669579347962    -1.056843681787
    O            1.093843189106     0.099540588695    -1.125570427262
    C            0.519411908229     0.016793633469     0.069596165993
    C           -0.720795523056    -0.837162723966     0.068979519657
    O            0.947636632337     0.584235389175     1.015158657336
    C           -1.978601126141     0.035901167044     0.066363417387
    H           -0.711425546467    -1.488635655347    -0.792943988402
    H           -0.693287043538    -1.440571418959     0.965831359529
    H           -2.026302954556     0.649024560208    -0.825623322014
    H           -2.862867131443    -0.587720801214     0.091398510683
    H           -1.994620927029     0.686828166958     0.930321244108

  Mulliken Charges: (a.u.)
   Center  Symbol    Alpha    Beta     Spin     Total
       1     H     0.37978  0.37978  0.00000  0.24045
       2     O     4.16196  4.16196  0.00000 -0.32392
       3     C     2.79850  2.79850  0.00000  0.40301
       4     C     3.08950  3.08950  0.00000 -0.17900
       5     O     4.19922  4.19922  0.00000 -0.39844
       6     C     3.14832  3.14832  0.00000 -0.29664
       7     H     0.44106  0.44106  0.00000  0.11788
       8     H     0.44037  0.44037  0.00000  0.11926
       9     H     0.45047  0.45047  0.00000  0.09906
      10     H     0.44749  0.44749  0.00000  0.10503
      11     H     0.44334  0.44334  0.00000  0.11332

   Total alpha = 20.00000, Total beta = 20.00000, Total charge = -0.00000
