                              Psi4 1.0.54 Driver

  ==> Input File <==

--------------------------------------------------------------------------
set {
	reference rhf
	basis cc-pvtz
}

set_num_threads( 4 )
memory 2 gb

molecule MOL {
0 1

H	 3.083659	 -1.378387	 0.000000
O	 2.179005	 -1.633391	 0.000000
C	 1.366950	 -0.558201	 0.000000
C	 1.083063	 0.155438	 -1.154473
C	 0.810479	 -0.173247	 1.202568
H	 1.517416	 -0.145832	 -2.090424
C	 0.244709	 1.250687	 -1.104018
H	 1.027785	 -0.722342	 2.095942
C	 -0.028646	 0.925620	 1.244145
H	 0.032265	 1.795159	 -2.003597
C	 -0.316026	 1.642329	 0.094987
C	 -0.634502	 1.350660	 2.533198
H	 -0.968303	 2.493581	 0.137323
O	 -0.457222	 0.812167	 3.571474
H	 -1.283271	 2.229381	 2.465765

	symmetry c1
}
set optking {
	frozen_dihedral = ("
		4 3 2 1
	")
}

ee,wfn = optimize('scf', return_wfn=True)
oeprop( wfn, 'DIPOLE', 'QUADRUPOLE', 'MULLIKEN_CHARGES')
f=open( 'psi4out.xyz', 'w' )
f.write( "15  " )
f.write( str(ee) + "\n" )
f.write( MOL.save_string_xyz() )
f.close()
--------------------------------------------------------------------------

    Molecular point group: c1
  Charge       = 0
  Multiplicity = 1
  Basis Set: CC-PVTZ
  Basis Set:
  @DF-RHF Final Energy:  -418.43457608510931
    Total Energy =                       -418.4345760851090290
    Molecular point group: c1
  Basis Set: CC-PVTZ
  Basis Set:
  Basis Set: CC-PVTZ
  Basis Set:
  @DF-RHF Final Energy:  -418.43524972789163
    Total Energy =                       -418.4352497278913461
  Basis Set: CC-PVTZ
  Basis Set:
  Basis Set: CC-PVTZ
  Basis Set:
  @DF-RHF Final Energy:  -418.43465164000753
    Total Energy =                       -418.4346516400077007
  Basis Set: CC-PVTZ
  Basis Set:
  Basis Set: CC-PVTZ
  Basis Set:
  @DF-RHF Final Energy:  -418.43536006847881
    Total Energy =                       -418.4353600684792127
  Basis Set: CC-PVTZ
  Basis Set:
  Basis Set: CC-PVTZ
  Basis Set:
  @DF-RHF Final Energy:  -418.43537220802591
    Total Energy =                       -418.4353722080260241
  Basis Set: CC-PVTZ
  Basis Set:
  Charge       = 0
  Multiplicity = 1
  Basis Set: CC-PVTZ
  Basis Set:

    Orbital Energies (a.u.)
    -----------------------

    Doubly Occupied:

       1A    -20.582135     2A    -20.554990     3A    -11.328738
       4A    -11.303237     5A    -11.251087     6A    -11.249985
       7A    -11.249051     8A    -11.247602     9A    -11.241988
      10A     -1.411174    11A     -1.409843    12A     -1.175266
      13A     -1.052647    14A     -1.030436    15A     -0.900456
      16A     -0.849974    17A     -0.806285    18A     -0.745277
      19A     -0.701954    20A     -0.686779    21A     -0.654772
      22A     -0.639968    23A     -0.623086    24A     -0.610586
      25A     -0.562122    26A     -0.549179    27A     -0.536520
      28A     -0.503813    29A     -0.492387    30A     -0.427292
      31A     -0.357207    32A     -0.346482

  @DF-RHF Final Energy:  -418.43537402289184

   => Energetics <=

    Nuclear Repulsion Energy =            403.5299089711195961
    One-Electron Energy =               -1369.7659328456365984
    Two-Electron Energy =                 547.8006498516253941
    DFT Exchange-Correlation Energy =       0.0000000000000000
    Empirical Dispersion Energy =           0.0000000000000000
    PCM Polarization Energy =               0.0000000000000000
    EFP Energy =                            0.0000000000000000
    Total Energy =                       -418.4353740228916649
    Molecular point group: c1
  Basis Set: CC-PVTZ
  Basis Set:

  -Total Gradient:
     Atom            X                  Y                   Z
    ------   -----------------  -----------------  -----------------
       1       -0.000006191675    -0.000010792915     0.000556735548
       2       -0.000073064982    -0.000196649701    -0.000692308131
       3        0.000340289062     0.000523586134     0.000026882455
       4       -0.000207155283    -0.000412877009     0.000010255054
       5       -0.000041945426     0.000041636953     0.000070516323
       6       -0.000007590827    -0.000010664375     0.000006672948
       7       -0.000102589725     0.000215777306     0.000129185215
       8       -0.000009001093     0.000000949675    -0.000005692469
       9        0.000090371141    -0.000092989667     0.000189949893
      10        0.000008166014    -0.000015768457     0.000001691748
      11        0.000003285235    -0.000044211051    -0.000272850569
      12       -0.000042952171     0.000043233916     0.000073119026
      13       -0.000006275402    -0.000001775592     0.000027612613
      14       -0.000022889868     0.000067069091    -0.000138865807
      15        0.000077545000    -0.000106524313     0.000017096151

  **** Optimization is complete! (in 6 steps) ****
    Final optimized geometry and variables:
    Molecular point group: c1

    Geometry (in Angstrom), charge = 0, multiplicity = 1:

    H            2.583320333813    -1.788837663406    -0.818497551649
    O            1.674821801195    -2.032679834144    -0.784238730977
    C            0.876968242057    -0.926484304041    -0.734135971908
    C            0.590255915108    -0.223254989199    -1.894804886566
    C            0.313480342998    -0.546672756211     0.461202970531
    H            1.023831160122    -0.547689038353    -2.821206794470
    C           -0.250225195432     0.868915752383    -1.853152227651
    H            0.522964908238    -1.096927260641     1.356158301216
    C           -0.536437781580     0.550139601839     0.500405832889
    H           -0.467972259342     1.409618004217    -2.753576338259
    C           -0.816814039487     1.258212743588    -0.652764651484
    C           -1.150916585399     0.974063432415     1.783432859495
    H           -1.475688500322     2.105335179239    -0.616396751670
    O           -0.967939068971     0.444738188279     2.825709851430
    H           -1.811648249525     1.843395691696     1.709021581069

  Mulliken Charges: (a.u.)
   Center  Symbol    Alpha    Beta     Spin     Total
       1     H     0.38730  0.38730  0.00000  0.22541
       2     O     4.18765  4.18765  0.00000 -0.37529
       3     C     2.86213  2.86213  0.00000  0.27574
       4     C     3.10596  3.10596  0.00000 -0.21192
       5     C     3.11830  3.11830  0.00000 -0.23661
       6     H     0.41480  0.41480  0.00000  0.17040
       7     C     3.06740  3.06740  0.00000 -0.13481
       8     H     0.40202  0.40202  0.00000  0.19595
       9     C     2.98012  2.98012  0.00000  0.03976
      10     H     0.41870  0.41870  0.00000  0.16260
      11     C     3.09751  3.09751  0.00000 -0.19502
      12     C     2.90893  2.90893  0.00000  0.18213
      13     H     0.42232  0.42232  0.00000  0.15536
      14     O     4.17035  4.17035  0.00000 -0.34070
      15     H     0.45650  0.45650  0.00000  0.08701

   Total alpha = 32.00000, Total beta = 32.00000, Total charge =  0.00000

*** Psi4 exiting successfully. Buy a developer a beer!
