  ==> Input File <==

--------------------------------------------------------------------------
set {
	reference rhf
	basis 6-31G*
}

set_num_threads( 4 )
memory 2 gb

molecule MOL {
0 1

H	 -0.677946	 -1.400689	 -0.668964
N	 -0.626943	 -0.667432	 -0.000092
C	 -1.726641	 -0.507348	 0.923896
C	 0.469286	 0.129090	 0.000148
H	 -2.652994	 -0.310112	 0.394770
H	 -1.506660	 0.328484	 1.567885
H	 -1.855881	 -1.396216	 1.532372
C	 1.788933	 -0.616240	 -0.000037
O	 0.411098	 1.327768	 -0.000049
H	 1.872803	 -1.245775	 -0.880381
H	 2.595421	 0.101576	 0.003713
H	 1.870096	 -1.252171	 0.875943

	symmetry c1
}
set optking {
	frozen_dihedral = ("
		3 2 4 9
	")
}

ee = optimize('scf')
oeprop('DIPOLE', 'QUADRUPOLE', 'MULLIKEN_CHARGES')
f=open( 'psi4out.xyz', 'w' )
f.write( "12  " )
f.write( str(ee) + "\n" )
f.write( MOL.save_string_xyz() )
f.close()
--------------------------------------------------------------------------

    Molecular point group: c1
  Charge       = 0
  Multiplicity = 1
  Basis Set: 6-31G*
  Basis Set:
  @DF-RHF Final Energy:  -246.98198243586830
    Total Energy =                       -246.9819824358684173
    Molecular point group: c1
  Basis Set: 6-31G*
  Basis Set:
  Basis Set: 6-31G*
  Basis Set:
  @DF-RHF Final Energy:  -246.98674957884788
    Total Energy =                       -246.9867495788478209
  Basis Set: 6-31G*
  Basis Set:
  Basis Set: 6-31G*
  Basis Set:
  @DF-RHF Final Energy:  -246.99252754821703
    Total Energy =                       -246.9925275482169695
  Basis Set: 6-31G*
  Basis Set:
  Basis Set: 6-31G*
  Basis Set:
  @DF-RHF Final Energy:  -246.99483378072065
    Total Energy =                       -246.9948337807205689
  Basis Set: 6-31G*
  Basis Set:
  @DF-RHF Final Energy:  -246.99553483340392
    Total Energy =                       -246.9955348334039513
  @DF-RHF Final Energy:  -246.99580847491254
    Total Energy =                       -246.9958084749127920
  Basis Set: 6-31G*
  Basis Set:
  @DF-RHF Final Energy:  -246.99599298618844
    Total Energy =                       -246.9959929861882983
  Basis Set: 6-31G*
  Basis Set:
  Basis Set: 6-31G*
  Basis Set:
  @DF-RHF Final Energy:  -246.99609376436501
    Total Energy =                       -246.9960937643649004
  Basis Set: 6-31G*
  Basis Set:
  Basis Set: 6-31G*
  Basis Set:
  @DF-RHF Final Energy:  -246.99610508833652
    Total Energy =                       -246.9961050883364351
  Basis Set: 6-31G*
  Basis Set:
  Charge       = 0
  Multiplicity = 1
  Basis Set: 6-31G*
  Basis Set:

    Orbital Energies (a.u.)
    -----------------------

    Doubly Occupied:

       1A    -20.530563     2A    -15.577049     3A    -11.346907
       4A    -11.257896     5A    -11.234013     6A     -1.394730
       7A     -1.227385     8A     -1.016115     9A     -0.930817
      10A     -0.774957    11A     -0.690859    12A     -0.649749
      13A     -0.632203    14A     -0.591844    15A     -0.585311
      16A     -0.557102    17A     -0.546819    18A     -0.506593
      19A     -0.422747    20A     -0.392178

  @DF-RHF Final Energy:  -246.99610544808269

   => Energetics <=

    Nuclear Repulsion Energy =            180.9387647821898213
    One-Electron Energy =                -694.1380661313032761
    Two-Electron Energy =                 266.2031959010305968
    DFT Exchange-Correlation Energy =       0.0000000000000000
    Empirical Dispersion Energy =           0.0000000000000000
    PCM Polarization Energy =               0.0000000000000000
    EFP Energy =                            0.0000000000000000
    Total Energy =                       -246.9961054480829148
    Molecular point group: c1
  Basis Set: 6-31G*
  Basis Set:

  -Total Gradient:
     Atom            X                  Y                   Z
    ------   -----------------  -----------------  -----------------
       1       -0.000003432565     0.000011868013    -0.000011016946
       2       -0.004314511108     0.013707451298    -0.012021254333
       3        0.003227261517    -0.008033430302     0.004427813207
       4        0.000007075664    -0.009312330717     0.019377294898
       5       -0.000007304977     0.000002964938     0.000006610894
       6       -0.000009468721    -0.000000856225     0.000004901807
       7        0.000001011732     0.000007830730    -0.000013137551
       8        0.000017565046     0.000012092836     0.000020360502
       9        0.001086429673     0.003619155216    -0.011772754444
      10        0.000003095439    -0.000009690461    -0.000006458417
      11       -0.000009090202     0.000000758989    -0.000002575954
      12        0.000001368501    -0.000005814316    -0.000009783662

  **** Optimization is complete! (in 10 steps) ****
    Final optimized geometry and variables:
    Molecular point group: c1

    Geometry (in Angstrom), charge = 0, multiplicity = 1:

    H           -0.587087706476    -1.406021850282    -0.698957703936
    N           -0.738603863584    -0.465218526791    -0.400357290022
    C           -1.837725732198    -0.386775814376     0.553178099892
    C            0.443475816128     0.183092366103    -0.092215833981
    H           -2.735576970827    -0.776803410173     0.091601157557
    H           -2.005715267773     0.647329472640     0.812598408710
    H           -1.637505093281    -0.949018249865     1.462049954365
    C            1.705126375566    -0.606920473490    -0.369197005869
    O            0.471768181353     1.324139450510     0.258875955375
    H            1.678982682752    -1.034744837702    -1.366724388265
    H            2.561759625005     0.044253179805    -0.279114628066
    H            1.798707383966    -1.424417099015     0.340069115802

  Mulliken Charges: (a.u.)
   Center  Symbol    Alpha    Beta     Spin     Total
       1     H     0.32081  0.32081  0.00000  0.35837
       2     N     3.86845  3.86845  0.00000 -0.73690
       3     C     3.15533  3.15533  0.00000 -0.31067
       4     C     2.64345  2.64345  0.00000  0.71310
       5     H     0.41082  0.41082  0.00000  0.17837
       6     H     0.39196  0.39196  0.00000  0.21608
       7     H     0.42152  0.42152  0.00000  0.15696
       8     C     3.29880  3.29880  0.00000 -0.59761
       9     O     4.28262  4.28262  0.00000 -0.56523
      10     H     0.40625  0.40625  0.00000  0.18749
      11     H     0.39190  0.39190  0.00000  0.21621
      12     H     0.40809  0.40809  0.00000  0.18383

   Total alpha = 20.00000, Total beta = 20.00000, Total charge = -0.00000
