                              Psi4 1.0.54 Driver

  ==> Input File <==

--------------------------------------------------------------------------
set {
	reference rhf
	basis cc-pvtz
}

set_num_threads( 4 )
memory 2 gb

molecule MOL {
0 1

O	 1.847685	 1.294399	 -0.000190
C	 1.704209	 0.119472	 -0.000093
C	 0.380337	 -0.600947	 -0.000234
O	 2.715427	 -0.733672	 0.000025
C	 -0.824290	 0.329213	 -0.000115
H	 0.371455	 -1.255476	 -0.865660
H	 0.371410	 -1.255787	 0.864952
C	 -2.146151	 -0.432825	 -0.000068
H	 -0.773936	 0.979158	 -0.866319
H	 -0.773838	 0.979034	 0.866186
C	 -3.366283	 0.483552	 0.000557
H	 -2.189286	 -1.084450	 -0.869996
H	 -2.188867	 -1.085083	 0.869399
C	 -4.191725	 0.382895	 -1.277694
H	 -3.042159	 1.510926	 0.140569
H	 -3.993397	 0.243903	 0.854639
H	 -3.600962	 0.650351	 -2.147579
H	 -5.048858	 1.045428	 -1.244424
H	 -4.560056	 -0.626598	 -1.427664
C	 4.020999	 -0.192556	 0.000019
H	 4.182809	 0.412891	 -0.879449
H	 4.692590	 -1.035653	 0.000152
H	 4.182726	 0.413087	 0.879368

	symmetry c1
}
set optking {
	frozen_dihedral = ("
		15 11 8 12
	")
}

ee,wfn = optimize('scf', return_wfn=True)
oeprop( wfn, 'DIPOLE', 'QUADRUPOLE', 'MULLIKEN_CHARGES')
f=open( 'psi4out.xyz', 'w' )
f.write( "23  " )
f.write( str(ee) + "\n" )
f.write( MOL.save_string_xyz() )
f.close()
--------------------------------------------------------------------------

    Molecular point group: c1
  Charge       = 0
  Multiplicity = 1
  Basis Set: CC-PVTZ
  Basis Set:
  @DF-RHF Final Energy:  -423.12531198878600
    Total Energy =                       -423.1253119887861658
    Molecular point group: c1
  Basis Set: CC-PVTZ
  Basis Set:
  Basis Set: CC-PVTZ
  Basis Set:
  @DF-RHF Final Energy:  -423.12556844112021
    Total Energy =                       -423.1255684411200946
  Basis Set: CC-PVTZ
  Basis Set:
  Basis Set: CC-PVTZ
  Basis Set:
  @DF-RHF Final Energy:  -423.12564408230554
    Total Energy =                       -423.1256440823059393
  Basis Set: CC-PVTZ
  Basis Set:
  Basis Set: CC-PVTZ
  Basis Set:
  @DF-RHF Final Energy:  -423.12552823641477
    Total Energy =                       -423.1255282364151071
  Basis Set: CC-PVTZ
  Basis Set:
  Basis Set: CC-PVTZ
  Basis Set:
  @DF-RHF Final Energy:  -423.12564674545951
    Total Energy =                       -423.1256467454594485
  Basis Set: CC-PVTZ
  Basis Set:
  Charge       = 0
  Multiplicity = 1
  Basis Set: CC-PVTZ
  Basis Set:

    Orbital Energies (a.u.)
    -----------------------

    Doubly Occupied:

       1A    -20.596324     2A    -20.534137     3A    -11.364619
       4A    -11.278491     5A    -11.233571     6A    -11.217627
       7A    -11.215596     8A    -11.214262     9A    -11.207847
      10A     -1.472211    11A     -1.365797    12A     -1.093225
      13A     -1.043052    14A     -0.987582    15A     -0.932071
      16A     -0.846811    17A     -0.793918    18A     -0.769600
      19A     -0.698972    20A     -0.686591    21A     -0.675850
      22A     -0.644935    23A     -0.614667    24A     -0.599296
      25A     -0.582071    26A     -0.565840    27A     -0.541872
      28A     -0.528377    29A     -0.523190    30A     -0.503336
      31A     -0.495133    32A     -0.468823    33A     -0.462826
      34A     -0.461044    35A     -0.456267    36A     -0.438153

  @DF-RHF Final Energy:  -423.12564696108058

   => Energetics <=

    Nuclear Repulsion Energy =            454.5883935928138158
    One-Electron Energy =               -1477.2001105292667944
    Two-Electron Energy =                 599.4860699753721747
    DFT Exchange-Correlation Energy =       0.0000000000000000
    Empirical Dispersion Energy =           0.0000000000000000
    PCM Polarization Energy =               0.0000000000000000
    EFP Energy =                            0.0000000000000000
    Total Energy =                       -423.1256469610807471
    Molecular point group: c1
  Basis Set: CC-PVTZ
  Basis Set:

  -Total Gradient:
     Atom            X                  Y                   Z
    ------   -----------------  -----------------  -----------------
       1       -0.000021961404     0.000014566556    -0.000002535697
       2        0.000011852990    -0.000004355998     0.000010950129
       3        0.000012703830    -0.000006241093    -0.000021012199
       4        0.000009001305    -0.000022594577    -0.000006872857
       5       -0.000031807119    -0.000011059294     0.000026069720
       6        0.000005293147    -0.000001550539     0.000004506583
       7        0.000003805716     0.000006179686     0.000001224592
       8       -0.000784154701    -0.001028493960     0.000553360349
       9       -0.000006669942     0.000003496763     0.000003520247
      10       -0.000000155262     0.000002956350    -0.000001202608
      11       -0.000013650494     0.000025308520     0.001404372770
      12        0.000671487564     0.000879650796    -0.000699079152
      13       -0.000001891182     0.000003001790     0.000002401757
      14        0.000008470432     0.000005699463     0.000021992063
      15        0.000134513444     0.000136493588    -0.001302467981
      16        0.000004889947    -0.000001673791     0.000000921114
      17       -0.000002897687    -0.000004396655     0.000004703200
      18       -0.000003030011     0.000001117102    -0.000001043376
      19        0.000003064857     0.000001363264    -0.000001093728
      20        0.000001160078     0.000006600511     0.000001915095
      21        0.000001499887    -0.000001687162     0.000001470597
      22       -0.000003174347    -0.000002628412    -0.000000195407
      23        0.000001648950    -0.000001752903    -0.000001905209

  **** Optimization is complete! (in 6 steps) ****
    Final optimized geometry and variables:
    Molecular point group: c1

    Geometry (in Angstrom), charge = 0, multiplicity = 1:

    O            1.786283133645     1.220471787931     0.151957553383
    C            1.646757412981     0.045042317620     0.149363619103
    C            0.325256213426    -0.679644813392     0.153469720084
    O            2.660849060263    -0.804708663400     0.141895412459
    C           -0.882087102134     0.246377233920     0.164677974436
    H            0.313736264684    -1.330532269565    -0.714705584288
    H            0.323057085419    -1.338339743299     1.015851802407
    C           -2.203609873244    -0.519692777674     0.170727672777
    H           -0.840599792179     0.899829040757    -0.699839723003
    H           -0.829142962898     0.893603730793     1.032619015570
    C           -3.439270445934     0.402729165219     0.142611121760
    H           -2.225741606435    -1.179849049314    -0.691833039237
    H           -2.237130523778    -1.161990144062     1.045083357720
    C           -4.235546382044     0.308476600844    -1.156426246283
    H           -3.124063199231     1.431938061337     0.279232484741
    H           -4.094017126608     0.172110222223     0.975385044183
    H           -3.616375100682     0.556924354511    -2.012407952894
    H           -5.079532641684     0.988901345275    -1.150593284342
    H           -4.619144097882    -0.694951009585    -1.307936279449
    C            3.964542920063    -0.259288692079     0.136938192646
    H            4.120046970017     0.349251448680    -0.741546733002
    H            4.638932246049    -1.100150766696     0.131220732245
    H            4.128791998798     0.344317657086     1.017231481812

  Mulliken Charges: (a.u.)
   Center  Symbol    Alpha    Beta     Spin     Total
       1     O     4.19698  4.19698  0.00000 -0.39396
       2     C     2.80607  2.80607  0.00000  0.38785
       3     C     3.10305  3.10305  0.00000 -0.20610
       4     O     4.14649  4.14649  0.00000 -0.29298
       5     C     3.08409  3.08409  0.00000 -0.16818
       6     H     0.43978  0.43978  0.00000  0.12044
       7     H     0.44017  0.44017  0.00000  0.11967
       8     C     3.09773  3.09773  0.00000 -0.19547
       9     H     0.44587  0.44587  0.00000  0.10826
      10     H     0.44555  0.44555  0.00000  0.10890
      11     C     3.09045  3.09045  0.00000 -0.18090
      12     H     0.45578  0.45578  0.00000  0.08844
      13     H     0.44906  0.44906  0.00000  0.10189
      14     C     3.14722  3.14722  0.00000 -0.29445
      15     H     0.45194  0.45194  0.00000  0.09612
      16     H     0.44879  0.44879  0.00000  0.10241
      17     H     0.45498  0.45498  0.00000  0.09004
      18     H     0.44907  0.44907  0.00000  0.10185
      19     H     0.45516  0.45516  0.00000  0.08968
      20     C     3.03771  3.03771  0.00000 -0.07541
      21     H     0.45436  0.45436  0.00000  0.09128
      22     H     0.44535  0.44535  0.00000  0.10931
      23     H     0.45435  0.45435  0.00000  0.09130

   Total alpha = 36.00000, Total beta = 36.00000, Total charge = -0.00000

*** Psi4 exiting successfully. Buy a developer a beer!
