  ==> Input File <==

--------------------------------------------------------------------------
set {
	reference rhf
	basis 6-31G*
}

set_num_threads( 4 )
memory 2 gb

molecule MOL {
0 1

H	 -3.135461	 -1.215070	 0.001379
O	 -2.310168	 -0.871793	 -0.309793
C	 -2.026376	 0.340750	 0.341611
C	 -0.673256	 0.843270	 -0.132153
H	 -2.792215	 1.080697	 0.115987
H	 -2.013526	 0.200402	 1.421792
C	 0.486613	 -0.083066	 0.235839
H	 -0.715586	 0.970948	 -1.210718
H	 -0.508072	 1.829858	 0.297090
C	 0.793056	 -1.114939	 -0.850966
H	 0.254561	 -0.591121	 1.166186
H	 1.377506	 0.515251	 0.423367
C	 1.955944	 -2.036880	 -0.485742
H	 -0.095694	 -1.713772	 -1.038690
H	 1.018509	 -0.603244	 -1.784659
H	 1.745760	 -2.588980	 0.425795
H	 2.148955	 -2.759080	 -1.273219
H	 2.869396	 -1.470983	 -0.324883

	symmetry c1
}
set optking {
	frozen_dihedral = ("
		10 7 4 8
	")
}

ee = optimize('scf')
oeprop('DIPOLE', 'QUADRUPOLE', 'MULLIKEN_CHARGES')
f=open( 'psi4out.xyz', 'w' )
f.write( "18  " )
f.write( str(ee) + "\n" )
f.write( MOL.save_string_xyz() )
f.close()
--------------------------------------------------------------------------

    Molecular point group: c1
  Charge       = 0
  Multiplicity = 1
  Basis Set: 6-31G*
  Basis Set:
  @DF-RHF Final Energy:  -271.17623608000702
    Total Energy =                       -271.1762360800070724
    Molecular point group: c1
  Basis Set: 6-31G*
  Basis Set:
  Basis Set: 6-31G*
  Basis Set:
  @DF-RHF Final Energy:  -271.17661219123306
    Total Energy =                       -271.1766121912330618
  Basis Set: 6-31G*
  Basis Set:
  Basis Set: 6-31G*
  Basis Set:
  @DF-RHF Final Energy:  -271.17667782680439
    Total Energy =                       -271.1766778268046210
  Basis Set: 6-31G*
  Basis Set:
  Basis Set: 6-31G*
  Basis Set:
  @DF-RHF Final Energy:  -271.17668114761688
    Total Energy =                       -271.1766811476171597
  Basis Set: 6-31G*
  Basis Set:
  Charge       = 0
  Multiplicity = 1
  Basis Set: 6-31G*
  Basis Set:

    Orbital Energies (a.u.)
    -----------------------

    Doubly Occupied:

       1A    -20.554772     2A    -11.268759     3A    -11.212865
       4A    -11.208122     5A    -11.201312     6A    -11.199849
       7A     -1.361343     8A     -1.070510     9A     -1.005758
      10A     -0.911483    11A     -0.819908    12A     -0.777682
      13A     -0.704507    14A     -0.646718    15A     -0.615460
      16A     -0.576179    17A     -0.569700    18A     -0.556094
      19A     -0.523572    20A     -0.504955    21A     -0.484960
      22A     -0.461846    23A     -0.449692    24A     -0.446522
      25A     -0.428493

  @DF-RHF Final Energy:  -271.17668153404111

   => Energetics <=

    Nuclear Repulsion Energy =            253.8608083278425340
    One-Electron Energy =                -870.9528576551908827
    Two-Electron Energy =                 345.9153677933072686
    DFT Exchange-Correlation Energy =       0.0000000000000000
    Empirical Dispersion Energy =           0.0000000000000000
    PCM Polarization Energy =               0.0000000000000000
    EFP Energy =                            0.0000000000000000
    Total Energy =                       -271.1766815340411085
    Molecular point group: c1
  Basis Set: 6-31G*
  Basis Set:

  -Total Gradient:
     Atom            X                  Y                   Z
    ------   -----------------  -----------------  -----------------
       1        0.000016867481     0.000033700264     0.000011182798
       2       -0.000002510866    -0.000020195460     0.000053904330
       3       -0.000115744673     0.000059001800    -0.000194668436
       4        0.001336864895     0.001561194707     0.000060091938
       5       -0.000044292189     0.000034190663     0.000033469265
       6        0.000088901457    -0.000022279622    -0.000056582275
       7       -0.001145113396    -0.001131184622     0.000601844756
       8       -0.000910394378    -0.001154911633    -0.000079380499
       9        0.000011064585     0.000008551222     0.000023237447
      10        0.000801322053     0.000821851541    -0.000335733102
      11       -0.000035077938     0.000012933581    -0.000084945355
      12        0.000092073432    -0.000042848312     0.000011252545
      13        0.000047124290    -0.000040156656    -0.000032589529
      14       -0.000113143550    -0.000097705771     0.000018672070
      15       -0.000039332804    -0.000001260708     0.000010286321
      16       -0.000018905580     0.000025106282    -0.000042156565
      17        0.000064407121    -0.000044556788    -0.000003041406
      18       -0.000034109937    -0.000001430489     0.000005155698

  **** Optimization is complete! (in 5 steps) ****
    Final optimized geometry and variables:
    Molecular point group: c1

    Geometry (in Angstrom), charge = 0, multiplicity = 1:

    H           -2.836620730757    -0.670699269407     0.233846088611
    O           -2.005991795585    -0.350016436848    -0.087392780898
    C           -1.693923847307     0.866442237467     0.542978482588
    C           -0.333768491649     1.349413831890     0.065547456523
    H           -2.447977158556     1.617027470767     0.311571163450
    H           -1.678214445515     0.739989634100     1.624687519443
    C            0.835530808424     0.411117961229     0.413238273636
    H           -0.386274682716     1.495771351486    -1.009910655607
    H           -0.167508214631     2.327309057636     0.510828623806
    C            1.163210910846    -0.619592436724    -0.670513878169
    H            0.623842516967    -0.101033265670     1.349702353329
    H            1.725651248114     1.010440576482     0.593626192832
    C            2.331662759574    -1.526099470455    -0.284489602448
    H            0.284090638207    -1.219155066855    -0.876470540821
    H            1.405331229301    -0.095291704204    -1.592940476162
    H            2.106862415366    -2.093701517359     0.614407329747
    H            2.556410729156    -2.236539875934    -1.074428142722
    H            3.232953005876    -0.949646329518    -0.092841203944

  Mulliken Charges: (a.u.)
   Center  Symbol    Alpha    Beta     Spin     Total
       1     H     0.28044  0.28044  0.00000  0.43911
       2     O     4.36890  4.36890  0.00000 -0.73781
       3     C     2.99643  2.99643  0.00000  0.00713
       4     C     3.16386  3.16386  0.00000 -0.32773
       5     H     0.43003  0.43003  0.00000  0.13995
       6     H     0.43257  0.43257  0.00000  0.13486
       7     C     3.15162  3.15162  0.00000 -0.30323
       8     H     0.41416  0.41416  0.00000  0.17169
       9     H     0.42133  0.42133  0.00000  0.15734
      10     C     3.15428  3.15428  0.00000 -0.30856
      11     H     0.42311  0.42311  0.00000  0.15378
      12     H     0.42403  0.42403  0.00000  0.15194
      13     C     3.24041  3.24041  0.00000 -0.48082
      14     H     0.40357  0.40357  0.00000  0.19286
      15     H     0.42687  0.42687  0.00000  0.14626
      16     H     0.42307  0.42307  0.00000  0.15387
      17     H     0.42059  0.42059  0.00000  0.15883
      18     H     0.42474  0.42474  0.00000  0.15052

   Total alpha = 25.00000, Total beta = 25.00000, Total charge =  0.00000
