  ==> Input File <==

--------------------------------------------------------------------------
set {
	reference rhf
	basis cc-pvtz
}

set_num_threads( 4 )
memory 2 gb

molecule MOL {
0 1

H	 -2.698799	 -0.000846	 0.036018
C	 -1.694291	 -0.000483	 0.434279
O	 -0.828718	 -0.000608	 -0.655022
H	 -1.576855	 0.881100	 1.056504
H	 -1.576401	 -0.881658	 1.057001
C	 0.332083	 0.791447	 -0.599622
C	 0.020906	 2.281792	 -0.520179
C	 1.295971	 0.342280	 0.492815
H	 0.805614	 0.603664	 -1.555197
H	 -0.694206	 2.558857	 -1.284973
H	 0.927012	 2.855271	 -0.677784
H	 -0.381079	 2.565725	 0.445416
H	 1.465180	 -0.725675	 0.430488
H	 2.248414	 0.845331	 0.372119
H	 0.927768	 0.574651	 1.485272

	symmetry c1
}
set optking {
	frozen_dihedral = ("
		6 3 2 1
	")
}

ee = optimize('scf')
oeprop('DIPOLE', 'QUADRUPOLE', 'MULLIKEN_CHARGES')
f=open( 'psi4out.xyz', 'w' )
f.write( "15  " )
f.write( str(ee) + "\n" )
f.write( MOL.save_string_xyz() )
f.close()
--------------------------------------------------------------------------

    Molecular point group: c1
  Charge       = 0
  Multiplicity = 1
  Basis Set: CC-PVTZ
  Basis Set:
  @DF-RHF Final Energy:  -232.22408770734333
    Total Energy =                       -232.2240877073435286
    Molecular point group: c1
  Basis Set: CC-PVTZ
  Basis Set:
  Basis Set: CC-PVTZ
  Basis Set:
  @DF-RHF Final Energy:  -232.22387820220712
    Total Energy =                       -232.2238782022071177
  Basis Set: CC-PVTZ
  Basis Set:
  Basis Set: CC-PVTZ
  Basis Set:
  @DF-RHF Final Energy:  -232.22447203476264
    Total Energy =                       -232.2244720347626412
  Basis Set: CC-PVTZ
  Basis Set:
  Basis Set: CC-PVTZ
  Basis Set:
  @DF-RHF Final Energy:  -232.22451467112569
    Total Energy =                       -232.2245146711255757
  Basis Set: CC-PVTZ
  Basis Set:
  Charge       = 0
  Multiplicity = 1
  Basis Set: CC-PVTZ
  Basis Set:

    Orbital Energies (a.u.)
    -----------------------

    Doubly Occupied:

       1A    -20.539996     2A    -11.273097     3A    -11.258919
       4A    -11.209075     5A    -11.208230     6A     -1.371759
       7A     -1.051077     8A     -0.940496     9A     -0.931576
      10A     -0.781784    11A     -0.676735    12A     -0.641355
      13A     -0.633859    14A     -0.570726    15A     -0.564055
      16A     -0.552301    17A     -0.537451    18A     -0.500600
      19A     -0.498489    20A     -0.443610    21A     -0.406965

  @DF-RHF Final Energy:  -232.22451557182913

   => Energetics <=

    Nuclear Repulsion Energy =            198.9347566927410469
    One-Electron Energy =                -709.1342285636269480
    Two-Electron Energy =                 277.9749562990565437
    DFT Exchange-Correlation Energy =       0.0000000000000000
    Empirical Dispersion Energy =           0.0000000000000000
    PCM Polarization Energy =               0.0000000000000000
    EFP Energy =                            0.0000000000000000
    Total Energy =                       -232.2245155718293290
    Molecular point group: c1
  Basis Set: CC-PVTZ
  Basis Set:

  -Total Gradient:
     Atom            X                  Y                   Z
    ------   -----------------  -----------------  -----------------
       1        0.000051400307     0.001810464523     0.000087533962
       2       -0.000382881426    -0.001778451095    -0.000439749368
       3        0.001091547546    -0.001418571257     0.000769608201
       4        0.000016630317     0.000017010110    -0.000009188755
       5       -0.000048016684     0.000017921983     0.000014489573
       6       -0.000962593148     0.001262860437    -0.000284904596
       7        0.000110225212     0.000061073832    -0.000071768947
       8        0.000119993787     0.000000379689    -0.000054904921
       9       -0.000011832339     0.000033460223     0.000027520585
      10       -0.000018956976     0.000016054158     0.000013948010
      11       -0.000010440914     0.000045649066    -0.000014621680
      12        0.000031401849    -0.000041231073    -0.000034219770
      13       -0.000014445718    -0.000016205484     0.000045789556
      14        0.000029001970    -0.000029977677     0.000012324310
      15       -0.000001033784     0.000019562566    -0.000061856162

  **** Optimization is complete! (in 5 steps) ****
    Final optimized geometry and variables:
    Molecular point group: c1

    Geometry (in Angstrom), charge = 0, multiplicity = 1:

    H           -2.510497989645    -0.671414266181     0.269607868690
    C           -1.483888119616    -0.709072862711     0.609935176691
    O           -0.651392195568    -0.652470859972    -0.507502909719
    H           -1.335502471497     0.122419549452     1.288392723311
    H           -1.329797880437    -1.629578581991     1.163585801836
    C            0.524751344121     0.115569243089    -0.448510074384
    C            0.237276274728     1.611839166172    -0.392955592809
    C            1.466356486140    -0.344172765981     0.658555742218
    H            1.004932937423    -0.089920339223    -1.397110735305
    H           -0.446105356922     1.889808736354    -1.185634407111
    H            1.157033420459     2.170730013576    -0.523477721767
    H           -0.196117656316     1.913621013004     0.553340332094
    H            1.643706589329    -1.410040449771     0.582877712262
    H            2.418810139819     0.166198068659     0.574087834498
    H            1.067018961590    -0.133778442847     1.644253538715

  Mulliken Charges: (a.u.)
   Center  Symbol    Alpha    Beta     Spin     Total
       1     H     0.44752  0.44752  0.00000  0.10495
       2     C     3.03906  3.03906  0.00000 -0.07812
       3     O     4.18664  4.18664  0.00000 -0.37329
       4     H     0.47006  0.47006  0.00000  0.05988
       5     H     0.45983  0.45983  0.00000  0.08035
       6     C     2.93899  2.93899  0.00000  0.12201
       7     C     3.15439  3.15439  0.00000 -0.30879
       8     C     3.15631  3.15631  0.00000 -0.31262
       9     H     0.44632  0.44632  0.00000  0.10736
      10     H     0.44476  0.44476  0.00000  0.11049
      11     H     0.45097  0.45097  0.00000  0.09806
      12     H     0.45551  0.45551  0.00000  0.08898
      13     H     0.44476  0.44476  0.00000  0.11049
      14     H     0.44932  0.44932  0.00000  0.10136
      15     H     0.45556  0.45556  0.00000  0.08888

   Total alpha = 21.00000, Total beta = 21.00000, Total charge = -0.00000
