  ==> Input File <==

--------------------------------------------------------------------------
set {
	reference rhf
	basis 6-31G*
}

set_num_threads( 4 )
memory 2 gb

molecule MOL {
0 1

O	 -0.287652	 -2.138251	 -0.803190
C	 -1.325716	 -1.697223	 -0.425656
C	 -2.607236	 -2.488932	 -0.379031
O	 -1.481751	 -0.454642	 0.000584
H	 -2.457092	 -3.357128	 0.251488
H	 -3.431129	 -1.900263	 -0.003387
H	 -2.833270	 -2.844103	 -1.377350
C	 -0.334255	 0.388708	 0.000906
C	 0.891947	 -0.504646	 0.000751
H	 -0.365390	 1.025305	 -0.873475
H	 -0.365484	 1.024911	 0.875569
C	 2.191998	 0.301789	 0.000897
H	 0.855148	 -1.151283	 -0.871571
H	 0.855132	 -1.151660	 0.872805
C	 3.441114	 -0.581407	 0.000108
H	 2.215074	 0.954890	 -0.869742
H	 2.215465	 0.953923	 0.872248
C	 4.739576	 0.224112	 -0.001102
H	 3.419457	 -1.233487	 -0.870178
H	 3.420834	 -1.233096	 0.870717
H	 4.804918	 0.861552	 -0.878265
H	 5.606527	 -0.429058	 -0.001824
H	 4.806469	 0.861674	 0.875853

	symmetry c1
}
set optking {
	frozen_dihedral = ("
		2 4 8 10
	")
}

ee = optimize('scf')
oeprop('DIPOLE', 'QUADRUPOLE', 'MULLIKEN_CHARGES')
f=open( 'psi4out.xyz', 'w' )
f.write( "23  " )
f.write( str(ee) + "\n" )
f.write( MOL.save_string_xyz() )
f.close()
--------------------------------------------------------------------------

    Molecular point group: c1
  Charge       = 0
  Multiplicity = 1
  Basis Set: 6-31G*
  Basis Set:
  @DF-RHF Final Energy:  -422.90406032364893
    Total Energy =                       -422.9040603236485367
    Molecular point group: c1
  Basis Set: 6-31G*
  Basis Set:
  Basis Set: 6-31G*
  Basis Set:
  @DF-RHF Final Energy:  -422.95203889337699
    Total Energy =                       -422.9520388933772210
  Basis Set: 6-31G*
  Basis Set:
  Basis Set: 6-31G*
  Basis Set:
  @DF-RHF Final Energy:  -422.96295743524649
    Total Energy =                       -422.9629574352468353
  Basis Set: 6-31G*
  Basis Set:
  Basis Set: 6-31G*
  Basis Set:
  @DF-RHF Final Energy:  -422.96558554481766
    Total Energy =                       -422.9655855448180546
  Basis Set: 6-31G*
  Basis Set:
  @DF-RHF Final Energy:  -422.96800932259782
    Total Energy =                       -422.9680093225983910
  @DF-RHF Final Energy:  -422.96904912904694
    Total Energy =                       -422.9690491290473346
  @DF-RHF Final Energy:  -422.96914510607689
    Total Energy =                       -422.9691451060768941
  @DF-RHF Final Energy:  -422.96917616347588
    Total Energy =                       -422.9691761634758222
  @DF-RHF Final Energy:  -422.96918206093454
    Total Energy =                       -422.9691820609340311
  @DF-RHF Final Energy:  -422.96918381844972
    Total Energy =                       -422.9691838184501194
  @DF-RHF Final Energy:  -422.96918746233291
    Total Energy =                       -422.9691874623332524
  @DF-RHF Final Energy:  -422.96816975363726
    Total Energy =                       -422.9681697536366300
  @DF-RHF Final Energy:  -422.96712741195216
    Total Energy =                       -422.9671274119516511
  @DF-RHF Final Energy:  -422.96913103230662
    Total Energy =                       -422.9691310323070184
  @DF-RHF Final Energy:  -422.96921874122961
    Total Energy =                       -422.9692187412297244
  @DF-RHF Final Energy:  -422.96929284280623
    Total Energy =                       -422.9692928428063396
  @DF-RHF Final Energy:  -422.96935479963406
    Total Energy =                       -422.9693547996341749
  @DF-RHF Final Energy:  -422.96938775629178
    Total Energy =                       -422.9693877562915532
  @DF-RHF Final Energy:  -422.96942140604017
    Total Energy =                       -422.9694214060401691
  @DF-RHF Final Energy:  -422.96942756944827
    Total Energy =                       -422.9694275694475891
  @DF-RHF Final Energy:  -422.97007789675621
    Total Energy =                       -422.9700778967560382
  @DF-RHF Final Energy:  -422.97007710807964
    Total Energy =                       -422.9700771080796358
  @DF-RHF Final Energy:  -422.97007695287869
    Total Energy =                       -422.9700769528787987
  @DF-RHF Final Energy:  -422.96575167316848
    Total Energy =                       -422.9657516731691658
  @DF-RHF Final Energy:  -422.97003950194159
    Total Energy =                       -422.9700395019408461
  @DF-RHF Final Energy:  -422.97007437817740
    Total Energy =                       -422.9700743781768324
  @DF-RHF Final Energy:  -422.96677387141187
    Total Energy =                       -422.9667738714121015
  @DF-RHF Final Energy:  -422.97004171941990
    Total Energy =                       -422.9700417194203510
  @DF-RHF Final Energy:  -422.97005839201415
    Total Energy =                       -422.9700583920135841
  @DF-RHF Final Energy:  -422.97008191786603
    Total Energy =                       -422.9700819178656275
  @DF-RHF Final Energy:  -422.97008308403593
    Total Energy =                       -422.9700830840363324
  @DF-RHF Final Energy:  -422.97008289855671
    Total Energy =                       -422.9700828985562566
  @DF-RHF Final Energy:  -422.96995666489829
    Total Energy =                       -422.9699566648985183
  @DF-RHF Final Energy:  -422.97008295606042
    Total Energy =                       -422.9700829560609918
  @DF-RHF Final Energy:  -422.97008278344811
    Total Energy =                       -422.9700827834481061
  @DF-RHF Final Energy:  -422.96902192765367
    Total Energy =                       -422.9690219276536709
  Basis Set: 6-31G*
  Basis Set:
  @DF-RHF Final Energy:  -422.96694910143867
    Total Energy =                       -422.9669491014383311
  Basis Set: 6-31G*
  Basis Set:
  Basis Set: 6-31G*
  Basis Set:
  @DF-RHF Final Energy:  -422.97002463566054
    Total Energy =                       -422.9700246356605930
  Basis Set: 6-31G*
  Basis Set:
  Basis Set: 6-31G*
  Basis Set:
  @DF-RHF Final Energy:  -422.97007583682478
    Total Energy =                       -422.9700758368242077
  Basis Set: 6-31G*
  Basis Set:
  Charge       = 0
  Multiplicity = 1
  Basis Set: 6-31G*
  Basis Set:

    Orbital Energies (a.u.)
    -----------------------

    Doubly Occupied:

       1A    -20.599119     2A    -20.540749     3A    -11.374846
       4A    -11.286896     5A    -11.230405     6A    -11.221566
       7A    -11.218720     8A    -11.218551     9A    -11.210969
      10A     -1.461421    11A     -1.361533    12A     -1.091580
      13A     -1.040691    14A     -1.001049    15A     -0.932546
      16A     -0.857784    17A     -0.798941    18A     -0.749541
      19A     -0.692172    20A     -0.676703    21A     -0.667967
      22A     -0.644638    23A     -0.605898    24A     -0.589144
      25A     -0.580649    26A     -0.565690    27A     -0.555555
      28A     -0.537073    29A     -0.523124    30A     -0.512343
      31A     -0.494056    32A     -0.476066    33A     -0.469300
      34A     -0.459150    35A     -0.441062    36A     -0.427671

  @DF-RHF Final Energy:  -422.97007981956904

   => Energetics <=

    Nuclear Repulsion Energy =            457.7955391214162546
    One-Electron Energy =               -1483.3009034070341841
    Two-Electron Energy =                 602.5352844660492337
    DFT Exchange-Correlation Energy =       0.0000000000000000
    Empirical Dispersion Energy =           0.0000000000000000
    PCM Polarization Energy =               0.0000000000000000
    EFP Energy =                            0.0000000000000000
    Total Energy =                       -422.9700798195685820
    Molecular point group: c1
  Basis Set: 6-31G*
  Basis Set:

  -Total Gradient:
     Atom            X                  Y                   Z
    ------   -----------------  -----------------  -----------------
       1       -0.000254276117     0.000035286217     0.000197681141
       2        0.002217842601    -0.002027262146     0.004147491655
       3        0.000081443200     0.000098250522     0.000288638624
       4       -0.003565906965     0.004828981737    -0.004115394759
       5        0.000067816235     0.000059313922    -0.000180137614
       6       -0.000013261824    -0.000008859076     0.000005684894
       7       -0.000088949281    -0.000026958173    -0.000069424568
       8        0.003031950545    -0.008432647563    -0.004884372129
       9        0.001086100830     0.000717515616     0.000953156363
      10       -0.001264606729     0.004938686434     0.004587710538
      11       -0.000968963800     0.000080206041    -0.000449692083
      12       -0.000268871275    -0.000156634157    -0.000237315010
      13        0.000070981862    -0.000084319404    -0.000365898459
      14       -0.000124626116    -0.000098786969    -0.000040932946
      15       -0.000133033166    -0.000030456346     0.000047745833
      16        0.000117239013     0.000071746636     0.000050749114
      17       -0.000013944121    -0.000071765462     0.000066196692
      18        0.000049739042     0.000052137410    -0.000028024640
      19       -0.000026830529     0.000004811671    -0.000047279647
      20        0.000031999808     0.000069684782     0.000073452729
      21       -0.000014494737     0.000003310453     0.000016366872
      22       -0.000023100540    -0.000037114951    -0.000012206976
      23        0.000005752070     0.000014872810    -0.000004195617

    Molecular point group: c1

    Geometry (in Angstrom), charge = 0, multiplicity = 1:

    O           -1.393780977656    -1.553813609274    -1.054958845539
    C           -2.147161050512    -0.979460301699    -0.338323898316
    C           -3.483338502641    -1.521486158979     0.098099295373
    O           -1.948577771177     0.225546960893     0.173617983606
    H           -3.491554667655    -1.643472922496     1.175381805499
    H           -4.267929958643    -0.819498902814    -0.158201044235
    H           -3.662805873851    -2.471927587038    -0.381970244499
    C           -0.714552886763     0.943710714554     0.100147507292
    C            0.589119792725     0.157554578394     0.040385832070
    H           -0.798247788067     1.667560307831    -0.701971709465
    H           -0.732522884514     1.522001622374     1.015268983358
    C            1.774732233344     1.090711819482     0.304024825016
    H            0.701503008317    -0.326625653809    -0.918482991320
    H            0.568945296453    -0.628387168966     0.789827462786
    C            3.122181763396     0.371853300052     0.214986659877
    H            1.761433092793     1.910677566455    -0.412854783336
    H            1.675729175922     1.544260865557     1.288883436332
    C            4.309550168815     1.300693969637     0.465387686415
    H            3.220901860680    -0.085482732059    -0.766481194277
    H            3.142436562623    -0.442905356439     0.935199827592
    H            4.335814154451     2.108540803362    -0.260500349109
    H            5.249608752504     0.762597412304     0.394970291450
    H            4.257460446094     1.747328647450     1.454384068998

  Mulliken Charges: (a.u.)
   Center  Symbol    Alpha    Beta     Spin     Total
       1     O     4.28276  4.28276  0.00000 -0.56551
       2     C     2.61899  2.61899  0.00000  0.76203
       3     C     3.28080  3.28080  0.00000 -0.56160
       4     O     4.31927  4.31927  0.00000 -0.63854
       5     H     0.40207  0.40207  0.00000  0.19587
       6     H     0.40076  0.40076  0.00000  0.19847
       7     H     0.39814  0.39814  0.00000  0.20372
       8     C     2.98410  2.98410  0.00000  0.03181
       9     C     3.17514  3.17514  0.00000 -0.35028
      10     H     0.41435  0.41435  0.00000  0.17131
      11     H     0.41317  0.41317  0.00000  0.17366
      12     C     3.16146  3.16146  0.00000 -0.32293
      13     H     0.39456  0.39456  0.00000  0.21089
      14     H     0.41631  0.41631  0.00000  0.16738
      15     C     3.15092  3.15092  0.00000 -0.30185
      16     H     0.42252  0.42252  0.00000  0.15496
      17     H     0.42329  0.42329  0.00000  0.15343
      18     C     3.23982  3.23982  0.00000 -0.47964
      19     H     0.41930  0.41930  0.00000  0.16140
      20     H     0.42107  0.42107  0.00000  0.15786
      21     H     0.42144  0.42144  0.00000  0.15712
      22     H     0.41793  0.41793  0.00000  0.16414
      23     H     0.42185  0.42185  0.00000  0.15630

   Total alpha = 36.00000, Total beta = 36.00000, Total charge = -0.00000
