  ==> Input File <==

--------------------------------------------------------------------------
set {
	reference rhf
	basis 6-31G*
}

set_num_threads( 4 )
memory 2 gb

molecule MOL {
0 1

H	 -0.216825	 0.021369	 -3.357402
C	 0.374198	 0.036393	 -2.447010
C	 -0.521757	 -0.028637	 -1.217342
H	 0.969602	 0.942322	 -2.434777
H	 1.053364	 -0.811668	 -2.481329
N	 0.263400	 0.031178	 0.000000
H	 -1.199035	 0.820290	 -1.219355
H	 -1.147901	 -0.924895	 -1.265384
C	 -0.521757	 -0.028637	 1.217342
H	 0.935769	 -0.712709	 0.000000
C	 -1.496038	 -1.198439	 1.180077
H	 0.163452	 -0.156428	 2.050135
H	 -1.069079	 0.900087	 1.405894
H	 -0.962800	 -2.131530	 1.037387
H	 -2.062328	 -1.259717	 2.104149
H	 -2.206871	 -1.089554	 0.364900

	symmetry c1
}
set optking {
	frozen_dihedral = ("
		12 9 6 3
	")
}

ee = optimize('scf')
oeprop('DIPOLE', 'QUADRUPOLE', 'MULLIKEN_CHARGES')
f=open( 'psi4out.xyz', 'w' )
f.write( "16  " )
f.write( str(ee) + "\n" )
f.write( MOL.save_string_xyz() )
f.close()
--------------------------------------------------------------------------

    Molecular point group: c1
  Charge       = 0
  Multiplicity = 1
  Basis Set: 6-31G*
  Basis Set:
  @DF-RHF Final Energy:  -212.30592150095828
    Total Energy =                       -212.3059215009584477
    Molecular point group: c1
  Basis Set: 6-31G*
  Basis Set:
  Basis Set: 6-31G*
  Basis Set:
  @DF-RHF Final Energy:  -212.30755844632588
    Total Energy =                       -212.3075584463259133
  Basis Set: 6-31G*
  Basis Set:
  Basis Set: 6-31G*
  Basis Set:
  @DF-RHF Final Energy:  -212.31022259191869
    Total Energy =                       -212.3102225919185457
  Basis Set: 6-31G*
  Basis Set:
  Basis Set: 6-31G*
  Basis Set:
  @DF-RHF Final Energy:  -212.31054701609506
    Total Energy =                       -212.3105470160952564
  Basis Set: 6-31G*
  Basis Set:
  Basis Set: 6-31G*
  Basis Set:
  @DF-RHF Final Energy:  -212.31058010885940
    Total Energy =                       -212.3105801088595399
  Basis Set: 6-31G*
  Basis Set:
  Basis Set: 6-31G*
  Basis Set:
  @DF-RHF Final Energy:  -212.31058584343387
    Total Energy =                       -212.3105858434338984
  Basis Set: 6-31G*
  Basis Set:
  Charge       = 0
  Multiplicity = 1
  Basis Set: 6-31G*
  Basis Set:

    Orbital Energies (a.u.)
    -----------------------

    Doubly Occupied:

       1A    -15.533656     2A    -11.241443     3A    -11.240031
       4A    -11.208232     5A    -11.206522     6A     -1.202536
       7A     -1.023710     8A     -0.966152     9A     -0.850396
      10A     -0.803876    11A     -0.660699    12A     -0.625444
      13A     -0.608775    14A     -0.575607    15A     -0.547179
      16A     -0.533574    17A     -0.511611    18A     -0.489582
      19A     -0.480328    20A     -0.473915    21A     -0.355677

  @DF-RHF Final Energy:  -212.31058653815265

   => Energetics <=

    Nuclear Repulsion Energy =            191.3542585950955583
    One-Electron Energy =                -665.0518022056894551
    Two-Electron Energy =                 261.3869570724414189
    DFT Exchange-Correlation Energy =       0.0000000000000000
    Empirical Dispersion Energy =           0.0000000000000000
    PCM Polarization Energy =               0.0000000000000000
    EFP Energy =                            0.0000000000000000
    Total Energy =                       -212.3105865381525064
    Molecular point group: c1
  Basis Set: 6-31G*
  Basis Set:

  -Total Gradient:
     Atom            X                  Y                   Z
    ------   -----------------  -----------------  -----------------
       1       -0.000000156991    -0.000002178215     0.000002501701
       2       -0.000004162847    -0.000006125595    -0.000010727423
       3        0.000201107834    -0.002808651834     0.000045288809
       4        0.000000241536     0.000000392515     0.000000368933
       5        0.000005601652    -0.000000334813    -0.000002334775
       6       -0.000396459229     0.003371893305    -0.000103889145
       7       -0.000004143923     0.000000898405    -0.000004804149
       8       -0.000010636251    -0.000012761771     0.000000723541
       9        0.000526465630     0.002980021434     0.000374978045
      10       -0.000013959408     0.000010513710     0.000033781196
      11       -0.000028908360    -0.000005573782    -0.000005847050
      12       -0.000291259789    -0.003518347154    -0.000280470750
      13        0.000022046808    -0.000013221821    -0.000033406805
      14        0.000005313805     0.000008612727     0.000000426316
      15        0.000001948787     0.000004593954    -0.000001860323
      16       -0.000013039254    -0.000009731065    -0.000014728120

  **** Optimization is complete! (in 7 steps) ****
    Final optimized geometry and variables:
    Molecular point group: c1

    Geometry (in Angstrom), charge = 0, multiplicity = 1:

    H            0.252593179178     0.372923183350    -3.140205044377
    C            0.810321141937     0.395749485529    -2.208845839628
    C           -0.111605389965     0.170620715449    -1.017253299863
    H            1.311111537173     1.353395333055    -2.125594398599
    H            1.572734758359    -0.377307950922    -2.262542718150
    N            0.639872145591     0.228848674610     0.222827089402
    H           -0.862651682788     0.955562850476    -0.989452494041
    H           -0.649468107711    -0.769588962945    -1.149581986582
    C           -0.132954352689     0.191618252440     1.453894108639
    H            1.317155001445    -0.509563423880     0.232185667736
    C           -1.189555595062    -0.912692474750     1.574026220010
    H            0.575885712502     0.062543523359     2.265395500358
    H           -0.606467080515     1.159556747164     1.590339644551
    H           -0.747392978649    -1.894788082361     1.426124375594
    H           -1.635666926065    -0.895121151655     2.564323989130
    H           -1.991030507699    -0.795281430442     0.852650984381

  Mulliken Charges: (a.u.)
   Center  Symbol    Alpha    Beta     Spin     Total
       1     H     0.42165  0.42165  0.00000  0.15671
       2     C     3.23850  3.23850  0.00000 -0.47699
       3     C     3.05876  3.05876  0.00000 -0.11752
       4     H     0.41235  0.41235  0.00000  0.17531
       5     H     0.42520  0.42520  0.00000  0.14960
       6     N     3.84741  3.84741  0.00000 -0.69481
       7     H     0.42138  0.42138  0.00000  0.15724
       8     H     0.43183  0.43183  0.00000  0.13635
       9     C     3.05684  3.05684  0.00000 -0.11368
      10     H     0.33570  0.33570  0.00000  0.32860
      11     C     3.24861  3.24861  0.00000 -0.49721
      12     H     0.41952  0.41952  0.00000  0.16097
      13     H     0.41905  0.41905  0.00000  0.16190
      14     H     0.42427  0.42427  0.00000  0.15146
      15     H     0.42016  0.42016  0.00000  0.15967
      16     H     0.41879  0.41879  0.00000  0.16242

   Total alpha = 21.00000, Total beta = 21.00000, Total charge = -0.00000
