                              Psi4 1.0.54 Driver

  ==> Input File <==

--------------------------------------------------------------------------
set {
	reference rhf
	basis cc-pvtz
}

set_num_threads( 4 )
memory 2 gb

molecule MOL {
0 1

H	 3.273419	 0.176595	 -0.102789
N	 2.433987	 -0.362316	 -0.080024
C	 1.263552	 0.494993	 0.021953
H	 2.497638	 -0.973615	 0.707122
C	 -0.016533	 -0.325589	 -0.026925
H	 1.280915	 1.180773	 -0.818522
H	 1.263064	 1.106893	 0.925038
C	 -1.280353	 0.525521	 0.047747
H	 -0.016686	 -0.912532	 -0.939714
H	 -0.014099	 -1.037598	 0.796369
C	 -1.059870	 1.962748	 -0.412426
H	 -1.650740	 0.529051	 1.069396
H	 -2.060438	 0.070851	 -0.556916
H	 -0.308617	 2.456462	 0.194693
H	 -1.973592	 2.541882	 -0.344111
H	 -0.723539	 1.996091	 -1.443421

	symmetry c1
}
set optking {
	frozen_dihedral = ("
		12 8 5 9
	")
}

ee,wfn = optimize('scf', return_wfn=True)
oeprop( wfn, 'DIPOLE', 'QUADRUPOLE', 'MULLIKEN_CHARGES')
f=open( 'psi4out.xyz', 'w' )
f.write( "16  " )
f.write( str(ee) + "\n" )
f.write( MOL.save_string_xyz() )
f.close()
--------------------------------------------------------------------------

    Molecular point group: c1
  Charge       = 0
  Multiplicity = 1
  Basis Set: CC-PVTZ
  Basis Set:
  @DF-RHF Final Energy:  -212.39036230950597
    Total Energy =                       -212.3903623095059174
    Molecular point group: c1
  Basis Set: CC-PVTZ
  Basis Set:
  Basis Set: CC-PVTZ
  Basis Set:
  @DF-RHF Final Energy:  -212.39083488298365
    Total Energy =                       -212.3908348829838246
  Basis Set: CC-PVTZ
  Basis Set:
  Basis Set: CC-PVTZ
  Basis Set:
  @DF-RHF Final Energy:  -212.39360174098366
    Total Energy =                       -212.3936017409837405
  Basis Set: CC-PVTZ
  Basis Set:
  Basis Set: CC-PVTZ
  Basis Set:
  @DF-RHF Final Energy:  -212.39379900988192
    Total Energy =                       -212.3937990098817181
  Basis Set: CC-PVTZ
  Basis Set:
  Basis Set: CC-PVTZ
  Basis Set:
  @DF-RHF Final Energy:  -212.39382030463557
    Total Energy =                       -212.3938203046358240
  Basis Set: CC-PVTZ
  Basis Set:
  Basis Set: CC-PVTZ
  Basis Set:
  @DF-RHF Final Energy:  -212.39382294408853
    Total Energy =                       -212.3938229440885266
  Basis Set: CC-PVTZ
  Basis Set:
  Charge       = 0
  Multiplicity = 1
  Basis Set: CC-PVTZ
  Basis Set:

    Orbital Energies (a.u.)
    -----------------------

    Doubly Occupied:

       1A    -15.526375     2A    -11.237878     3A    -11.213361
       4A    -11.208215     5A    -11.206591     6A     -1.178293
       7A     -1.057019     8A     -0.955572     9A     -0.864591
      10A     -0.774956    11A     -0.664297    12A     -0.635051
      13A     -0.609442    14A     -0.587969    15A     -0.547618
      16A     -0.530154    17A     -0.516910    18A     -0.467824
      19A     -0.460042    20A     -0.453816    21A     -0.383640

  @DF-RHF Final Energy:  -212.39382437549145

   => Energetics <=

    Nuclear Repulsion Energy =            189.2134892376492701
    One-Electron Energy =                -661.0553962265584005
    Two-Electron Energy =                 259.4480826134177391
    DFT Exchange-Correlation Energy =       0.0000000000000000
    Empirical Dispersion Energy =           0.0000000000000000
    PCM Polarization Energy =               0.0000000000000000
    EFP Energy =                            0.0000000000000000
    Total Energy =                       -212.3938243754914197
    Molecular point group: c1
  Basis Set: CC-PVTZ
  Basis Set:

  -Total Gradient:
     Atom            X                  Y                   Z
    ------   -----------------  -----------------  -----------------
       1        0.000011075330    -0.000010304543     0.000002363189
       2        0.000031440029    -0.000009863750    -0.000001828112
       3       -0.000016477290    -0.000000331037     0.000003203054
       4        0.000007208812    -0.000001275991     0.000000428634
       5        0.002579498392     0.004743490105    -0.003990099396
       6       -0.000012877597     0.000003786270     0.000003073514
       7       -0.000006169327     0.000001790830    -0.000001965718
       8        0.003493998172     0.005079610624     0.002228246118
       9       -0.002728004885    -0.004751124717     0.002979430676
      10        0.000002543890     0.000008681130    -0.000003107185
      11        0.000008217152    -0.000002906834    -0.000003471478
      12       -0.003374802201    -0.005061151634    -0.001218839427
      13       -0.000002359485     0.000003289740     0.000003097092
      14        0.000000937857     0.000001077172    -0.000001297644
      15        0.000008366310    -0.000007437417     0.000003731772
      16       -0.000002595158     0.000002670055    -0.000002965088

  **** Optimization is complete! (in 7 steps) ****
    Final optimized geometry and variables:
    Molecular point group: c1

    Geometry (in Angstrom), charge = 0, multiplicity = 1:

    H            3.023144829846    -0.402520174944     0.053299506327
    N            2.155542726958    -0.894567911563     0.026500014982
    C            1.030255472906     0.021684476182     0.125270514650
    H            2.158646102958    -1.540494805684     0.788063412716
    C           -0.280163439397    -0.742618323961     0.013256276365
    H            1.116710069923     0.734615857556    -0.685433675853
    H            1.034054330658     0.597639800108     1.051897736213
    C           -1.571624738958     0.085647465646     0.154836521680
    H           -0.296376082181    -1.311078920329    -0.909888524295
    H           -0.288591763237    -1.500683144976     0.793927692204
    C           -1.520692098579     1.521592272234    -0.358732757662
    H           -1.908841501693     0.062657809233     1.186395104330
    H           -2.352460846755    -0.437273365722    -0.389520961373
    H           -0.817649470306     2.130271634237     0.197026520660
    H           -2.495580404148     1.987090291124    -0.271015291637
    H           -1.234451451519     1.556122526683    -1.404609227188

  Mulliken Charges: (a.u.)
   Center  Symbol    Alpha    Beta     Spin     Total
       1     H     0.43013  0.43013  0.00000  0.13974
       2     N     3.69004  3.69004  0.00000 -0.38007
       3     C     3.02778  3.02778  0.00000 -0.05555
       4     H     0.43099  0.43099  0.00000  0.13801
       5     C     3.08834  3.08834  0.00000 -0.17668
       6     H     0.45415  0.45415  0.00000  0.09171
       7     H     0.46675  0.46675  0.00000  0.06649
       8     C     3.09257  3.09257  0.00000 -0.18514
       9     H     0.44697  0.44697  0.00000  0.10605
      10     H     0.45909  0.45909  0.00000  0.08182
      11     C     3.15761  3.15761  0.00000 -0.31521
      12     H     0.45332  0.45332  0.00000  0.09335
      13     H     0.45149  0.45149  0.00000  0.09702
      14     H     0.45350  0.45350  0.00000  0.09300
      15     H     0.44495  0.44495  0.00000  0.11010
      16     H     0.45232  0.45232  0.00000  0.09536

   Total alpha = 21.00000, Total beta = 21.00000, Total charge =  0.00000

*** Psi4 exiting successfully. Buy a developer a beer!
