  ==> Input File <==

--------------------------------------------------------------------------
set {
	reference rhf
	basis 6-31G*
}

set_num_threads( 1 )
memory 2 gb

molecule MOL {
0 1

H	 -3.420663	 1.227371	 -1.044276
O	 -3.452007	 0.283848	 -0.965577
C	 -3.181085	 -0.079926	 0.364119
C	 -1.765924	 0.277073	 0.805136
H	 -3.327791	 -1.152017	 0.410903
H	 -3.905698	 0.375695	 1.036898
C	 -0.677594	 -0.417312	 -0.014550
H	 -1.637766	 1.358238	 0.744969
H	 -1.659588	 0.017670	 1.857098
C	 0.738335	 -0.034840	 0.421385
H	 -0.814977	 -0.178223	 -1.064632
H	 -0.802730	 -1.495410	 0.071702
C	 1.816273	 -0.579637	 -0.519534
H	 0.809658	 1.048609	 0.480301
H	 0.920420	 -0.407984	 1.428466
C	 3.256605	 -0.297996	 -0.076501
H	 1.662064	 -0.171928	 -1.517376
H	 1.687527	 -1.656266	 -0.609596
C	 3.645431	 1.181599	 -0.080787
H	 3.931496	 -0.837071	 -0.736963
H	 3.413834	 -0.709798	 0.918437
H	 3.486635	 1.623703	 -1.060821
H	 4.694501	 1.305216	 0.170228
H	 3.069915	 1.755256	 0.638145

	symmetry c1
}
set optking {
	frozen_dihedral = ("
		20 16 13 17,
		17 13 10 7,
		11 7 4 3,
		1 2 3 5,
		7 4 3 2
	")
}

ee = energy('scf')
oeprop('DIPOLE', 'QUADRUPOLE', 'MULLIKEN_CHARGES')
f=open( 'psi4out.xyz', 'w' )
f.write( "24  " )
f.write( str(ee) + "\n" )
f.write( MOL.save_string_xyz() )
f.close()
--------------------------------------------------------------------------

    Molecular point group: c1

    Geometry (in Angstrom), charge = 0, multiplicity = 1:

       Center              X                  Y                   Z               Mass
    ------------   -----------------  -----------------  -----------------  -----------------
           H         -3.411536312773     1.164959986745    -1.019162897412     1.007825032070
           O         -3.442880312773     0.221436986745    -0.940463897412    15.994914619560
           C         -3.171958312773    -0.142337013255     0.389232102588    12.000000000000
           C         -1.756797312773     0.214661986745     0.830249102588    12.000000000000
           H         -3.318664312773    -1.214428013255     0.436016102588     1.007825032070
           H         -3.896571312773     0.313283986745     1.062011102588     1.007825032070
           C         -0.668467312773    -0.479723013255     0.010563102588    12.000000000000
           H         -1.628639312773     1.295826986745     0.770082102588     1.007825032070
           H         -1.650461312773    -0.044741013255     1.882211102588     1.007825032070
           C          0.747461687227    -0.097251013255     0.446498102588    12.000000000000
           H         -0.805850312773    -0.240634013255    -1.039518897412     1.007825032070
           H         -0.793603312773    -1.557821013255     0.096815102588     1.007825032070
           C          1.825399687227    -0.642048013255    -0.494420897412    12.000000000000
           H          0.818784687227     0.986197986745     0.505414102588     1.007825032070
           H          0.929546687227    -0.470395013255     1.453579102588     1.007825032070
           C          3.265731687227    -0.360407013255    -0.051387897412    12.000000000000
           H          1.671190687227    -0.234339013255    -1.492262897412     1.007825032070
           H          1.696653687227    -1.718677013255    -0.584482897412     1.007825032070
           C          3.654557687227     1.119187986745    -0.055673897412    12.000000000000
           H          3.940622687227    -0.899482013255    -0.711849897412     1.007825032070
           H          3.422960687227    -0.772209013255     0.943550102588     1.007825032070
           H          3.495761687227     1.561291986745    -1.035707897412     1.007825032070
           H          4.703627687227     1.242804986745     0.195341102588     1.007825032070
           H          3.079041687227     1.692844986745     0.663258102588     1.007825032070

  Charge       = 0
  Multiplicity = 1
  Basis Set: 6-31G*
  Basis Set:

    Orbital Energies (a.u.)
    -----------------------

    Doubly Occupied:

       1A    -20.553582     2A    -11.267706     3A    -11.217490
       4A    -11.214042     5A    -11.212379     6A    -11.211575
       7A    -11.211067     8A    -11.207435     9A     -1.360166
      10A     -1.088560    11A     -1.048310    12A     -0.985648
      13A     -0.914999    14A     -0.850423    15A     -0.800899
      16A     -0.776277    17A     -0.679232    18A     -0.652620
      19A     -0.626144    20A     -0.619182    21A     -0.597371
      22A     -0.585724    23A     -0.555466    24A     -0.542805
      25A     -0.514168    26A     -0.507498    27A     -0.501037
      28A     -0.471772    29A     -0.467758    30A     -0.459062
      31A     -0.456404    32A     -0.450892    33A     -0.418827

  @DF-RHF Final Energy:  -349.24738846496854

   => Energetics <=

    Nuclear Repulsion Energy =            384.6802950911744006
    One-Electron Energy =               -1235.8021426749294278
    Two-Electron Energy =                 501.8744591187860351
    DFT Exchange-Correlation Energy =       0.0000000000000000
    Empirical Dispersion Energy =           0.0000000000000000
    PCM Polarization Energy =               0.0000000000000000
    EFP Energy =                            0.0000000000000000
    Total Energy =                       -349.2473884649689353

  Mulliken Charges: (a.u.)
   Center  Symbol    Alpha    Beta     Spin     Total
       1     H     0.28338  0.28338  0.00000  0.43323
       2     O     4.36827  4.36827  0.00000 -0.73655
       3     C     2.99621  2.99621  0.00000  0.00757
       4     C     3.16915  3.16915  0.00000 -0.33829
       5     H     0.41634  0.41634  0.00000  0.16732
       6     H     0.42817  0.42817  0.00000  0.14367
       7     C     3.15194  3.15194  0.00000 -0.30388
       8     H     0.42827  0.42827  0.00000  0.14345
       9     H     0.42237  0.42237  0.00000  0.15526
      10     C     3.15368  3.15368  0.00000 -0.30736
      11     H     0.41214  0.41214  0.00000  0.17572
      12     H     0.42322  0.42322  0.00000  0.15355
      13     C     3.15239  3.15239  0.00000 -0.30477
      14     H     0.42323  0.42323  0.00000  0.15354
      15     H     0.42492  0.42492  0.00000  0.15016
      16     C     3.15238  3.15238  0.00000 -0.30475
      17     H     0.42372  0.42372  0.00000  0.15257
      18     H     0.42194  0.42194  0.00000  0.15613
      19     C     3.24103  3.24103  0.00000 -0.48206
      20     H     0.42106  0.42106  0.00000  0.15788
      21     H     0.42375  0.42375  0.00000  0.15251
      22     H     0.42239  0.42239  0.00000  0.15521
      23     H     0.41951  0.41951  0.00000  0.16097
      24     H     0.42055  0.42055  0.00000  0.15889

   Total alpha = 33.00000, Total beta = 33.00000, Total charge = -0.00000
