                              Psi4 1.0.54 Driver

  ==> Input File <==

--------------------------------------------------------------------------
set {
	reference rhf
	basis cc-pvtz
}

set_num_threads( 4 )
memory 2 gb

molecule MOL {
0 1

H	 3.131213	 0.049120	 -0.663278
N	 2.433987	 -0.362316	 -0.080024
C	 1.263552	 0.494993	 0.021953
H	 2.848480	 -0.507683	 0.816859
C	 -0.016533	 -0.325589	 -0.026925
H	 1.280915	 1.180773	 -0.818522
H	 1.263064	 1.106893	 0.925038
C	 -1.280353	 0.525521	 0.047747
H	 -0.016686	 -0.912532	 -0.939714
H	 -0.014099	 -1.037598	 0.796369
C	 -2.560681	 -0.301323	 -0.007747
H	 -1.279957	 1.241025	 -0.770189
H	 -1.270445	 1.110526	 0.963468
H	 -2.617064	 -0.872870	 -0.928010
H	 -3.439525	 0.331102	 0.043462
H	 -2.609427	 -1.002736	 0.818585

	symmetry c1
}
set optking {
	frozen_dihedral = ("
		1 2 3 6
	")
}

ee,wfn = optimize('scf', return_wfn=True)
oeprop( wfn, 'DIPOLE', 'QUADRUPOLE', 'MULLIKEN_CHARGES')
f=open( 'psi4out.xyz', 'w' )
f.write( "16  " )
f.write( str(ee) + "\n" )
f.write( MOL.save_string_xyz() )
f.close()
--------------------------------------------------------------------------

    Molecular point group: c1
  Charge       = 0
  Multiplicity = 1
  Basis Set: CC-PVTZ
  Basis Set:
  @DF-RHF Final Energy:  -212.39795691311753
    Total Energy =                       -212.3979569131174685
    Molecular point group: c1
  Basis Set: CC-PVTZ
  Basis Set:
  Basis Set: CC-PVTZ
  Basis Set:
  @DF-RHF Final Energy:  -212.39825173760352
    Total Energy =                       -212.3982517376036299
  Basis Set: CC-PVTZ
  Basis Set:
  Basis Set: CC-PVTZ
  Basis Set:
  @DF-RHF Final Energy:  -212.39832907310412
    Total Energy =                       -212.3983290731039233
  Basis Set: CC-PVTZ
  Basis Set:
  Basis Set: CC-PVTZ
  Basis Set:
  @DF-RHF Final Energy:  -212.39833281655163
    Total Energy =                       -212.3983328165516582
  Basis Set: CC-PVTZ
  Basis Set:
  Charge       = 0
  Multiplicity = 1
  Basis Set: CC-PVTZ
  Basis Set:

    Orbital Energies (a.u.)
    -----------------------

    Doubly Occupied:

       1A    -15.524697     2A    -11.238655     3A    -11.210624
       4A    -11.204154     5A    -11.202916     6A     -1.175304
       7A     -1.058748     8A     -0.958861     9A     -0.843223
      10A     -0.788439    11A     -0.676080    12A     -0.626587
      13A     -0.610413    14A     -0.578286    15A     -0.554605
      16A     -0.531645    17A     -0.490677    18A     -0.474246
      19A     -0.466253    20A     -0.459529    21A     -0.378817

  @DF-RHF Final Energy:  -212.39833322788451

   => Energetics <=

    Nuclear Repulsion Energy =            186.2010702795750490
    One-Electron Energy =                -655.0932853700535361
    Two-Electron Energy =                 256.4938818625938666
    DFT Exchange-Correlation Energy =       0.0000000000000000
    Empirical Dispersion Energy =           0.0000000000000000
    PCM Polarization Energy =               0.0000000000000000
    EFP Energy =                            0.0000000000000000
    Total Energy =                       -212.3983332278846206
    Molecular point group: c1
  Basis Set: CC-PVTZ
  Basis Set:

  -Total Gradient:
     Atom            X                  Y                   Z
    ------   -----------------  -----------------  -----------------
       1       -0.000944654327    -0.001082299625    -0.001918944864
       2        0.001490238805     0.001663512452     0.002686607267
       3       -0.001638163238    -0.002015559683    -0.001973111006
       4       -0.000013920437    -0.000004711638    -0.000000571724
       5        0.000048617678     0.000038504132     0.000027279676
       6        0.001094014700     0.001412260797     0.001178273522
       7       -0.000008614120    -0.000001691440     0.000010832497
       8       -0.000009854644    -0.000019249278    -0.000015085799
       9       -0.000003411743     0.000004178101     0.000010101353
      10        0.000007236918     0.000003404083    -0.000001214443
      11       -0.000023387889     0.000015944475    -0.000001257557
      12        0.000001434244     0.000000557699     0.000004765624
      13        0.000002231922    -0.000012475004    -0.000004625047
      14        0.000001125809     0.000000652158    -0.000000838521
      15       -0.000006026776    -0.000006638406    -0.000001917397
      16        0.000003133099     0.000003611175    -0.000000293582

  **** Optimization is complete! (in 5 steps) ****
    Final optimized geometry and variables:
    Molecular point group: c1

    Geometry (in Angstrom), charge = 0, multiplicity = 1:

    H            3.151738119897     0.052972290675    -0.663324939171
    N            2.443022202559    -0.355194666833    -0.096583254081
    C            1.258283604384     0.488081883073    -0.004101322306
    H            2.832302002512    -0.563991927988     0.795770564682
    C           -0.023626204662    -0.332382760588    -0.029505041333
    H            1.264442660943     1.185935500191    -0.834712250295
    H            1.271065707712     1.102991998778     0.894863330425
    C           -1.285815928135     0.518076291072     0.072010033710
    H           -0.040798192836    -0.917978862524    -0.943201642986
    H            0.001785091636    -1.047197302087     0.789428463361
    C           -2.567320004208    -0.308352614053     0.041920047849
    H           -1.303458978482     1.235995337335    -0.744155999738
    H           -1.257391821148     1.101796090838     0.988509327958
    H           -2.643520366134    -0.877129837924    -0.878667362972
    H           -3.445330704697     0.323357493689     0.114382014787
    H           -2.597264415233    -1.012578337379     0.866669307690

  Mulliken Charges: (a.u.)
   Center  Symbol    Alpha    Beta     Spin     Total
       1     H     0.42463  0.42463  0.00000  0.15073
       2     N     3.69773  3.69773  0.00000 -0.39546
       3     C     3.04081  3.04081  0.00000 -0.08161
       4     H     0.42767  0.42767  0.00000  0.14465
       5     C     3.06453  3.06453  0.00000 -0.12906
       6     H     0.45658  0.45658  0.00000  0.08684
       7     H     0.46277  0.46277  0.00000  0.07446
       8     C     3.09078  3.09078  0.00000 -0.18156
       9     H     0.45389  0.45389  0.00000  0.09221
      10     H     0.45946  0.45946  0.00000  0.08108
      11     C     3.14912  3.14912  0.00000 -0.29824
      12     H     0.45640  0.45640  0.00000  0.08720
      13     H     0.45682  0.45682  0.00000  0.08635
      14     H     0.45446  0.45446  0.00000  0.09109
      15     H     0.44923  0.44923  0.00000  0.10154
      16     H     0.45511  0.45511  0.00000  0.08977

   Total alpha = 21.00000, Total beta = 21.00000, Total charge = -0.00000

*** Psi4 exiting successfully. Buy a developer a beer!
