  ==> Input File <==

--------------------------------------------------------------------------
set {
	reference rhf
	basis 6-31G*
}

set_num_threads( 1 )
memory 2 gb

molecule MOL {
0 1

H	 -4.236494	 0.538104	 0.039757
O	 -3.517110	 -0.026191	 -0.205115
C	 -2.306886	 0.532354	 0.237577
C	 -1.177863	 -0.397191	 -0.171080
H	 -2.156308	 1.517575	 -0.201710
H	 -2.315015	 0.655684	 1.319734
C	 0.198102	 0.111031	 0.262842
H	 -1.208843	 -0.518759	 -1.250427
H	 -1.368741	 -1.376554	 0.258909
C	 1.331804	 -0.827780	 -0.158768
H	 0.361943	 1.100838	 -0.156218
H	 0.217265	 0.229072	 1.345532
C	 2.723619	 -0.410569	 0.329459
H	 1.342964	 -0.912588	 -1.244120
H	 1.116806	 -1.824343	 0.220779
C	 3.416902	 0.636321	 -0.544449
H	 3.351539	 -1.296971	 0.375230
H	 2.650345	 -0.038668	 1.349501
H	 3.493006	 0.296598	 -1.573932
H	 2.884354	 1.581607	 -0.546568
H	 4.423251	 0.831414	 -0.186741

	symmetry c1
}
set optking {
	frozen_dihedral = ("
		2 3 4 8,
		8 4 7 10,
		4 7 10 14,
		1 2 3 5
	")
}

ee = energy('scf')
oeprop('DIPOLE', 'QUADRUPOLE', 'MULLIKEN_CHARGES')
f=open( 'psi4out.xyz', 'w' )
f.write( "21  " )
f.write( str(ee) + "\n" )
f.write( MOL.save_string_xyz() )
f.close()
--------------------------------------------------------------------------

    Molecular point group: c1

    Geometry (in Angstrom), charge = 0, multiplicity = 1:

       Center              X                  Y                   Z               Mass
    ------------   -----------------  -----------------  -----------------  -----------------
           H         -4.261911942090     0.576298164532     0.079579522076     1.007825032070
           O         -3.542527942090     0.012003164532    -0.165292477924    15.994914619560
           C         -2.332303942090     0.570548164532     0.277399522076    12.000000000000
           C         -1.203280942090    -0.358996835468    -0.131257477924    12.000000000000
           H         -2.181725942090     1.555769164532    -0.161887477924     1.007825032070
           H         -2.340432942090     0.693878164532     1.359556522076     1.007825032070
           C          0.172684057910     0.149225164532     0.302664522076    12.000000000000
           H         -1.234260942090    -0.480564835468    -1.210604477924     1.007825032070
           H         -1.394158942090    -1.338359835468     0.298731522076     1.007825032070
           C          1.306386057910    -0.789585835468    -0.118945477924    12.000000000000
           H          0.336525057910     1.139032164532    -0.116395477924     1.007825032070
           H          0.191847057910     0.267266164532     1.385354522076     1.007825032070
           C          2.698201057910    -0.372374835468     0.369281522076    12.000000000000
           H          1.317546057910    -0.874393835468    -1.204297477924     1.007825032070
           H          1.091388057910    -1.786148835468     0.260601522076     1.007825032070
           C          3.391484057910     0.674515164532    -0.504626477924    12.000000000000
           H          3.326121057910    -1.258776835468     0.415052522076     1.007825032070
           H          2.624927057910    -0.000473835468     1.389323522076     1.007825032070
           H          3.467588057910     0.334792164532    -1.534109477924     1.007825032070
           H          2.858936057910     1.619801164532    -0.506745477924     1.007825032070
           H          4.397833057910     0.869608164532    -0.146918477924     1.007825032070

  Charge       = 0
  Multiplicity = 1
  Basis Set: 6-31G*
  Basis Set:

    Orbital Energies (a.u.)
    -----------------------

    Doubly Occupied:

       1A    -20.551851     2A    -11.267080     3A    -11.216006
       4A    -11.214643     5A    -11.213123     6A    -11.210626
       7A    -11.208268     8A     -1.358676     9A     -1.085870
      10A     -1.033488    11A     -0.955189    12A     -0.873470
      13A     -0.805905    14A     -0.782522    15A     -0.692498
      16A     -0.661175    17A     -0.618398    18A     -0.610819
      19A     -0.586623    20A     -0.567134    21A     -0.536915
      22A     -0.521029    23A     -0.510146    24A     -0.486734
      25A     -0.479261    26A     -0.462478    27A     -0.454373
      28A     -0.442549    29A     -0.434000

  @DF-RHF Final Energy:  -310.21174198081746

   => Energetics <=

    Nuclear Repulsion Energy =            311.4140349923479789
    One-Electron Energy =               -1037.5698645133218179
    Two-Electron Energy =                 415.9440875401557491
    DFT Exchange-Correlation Energy =       0.0000000000000000
    Empirical Dispersion Energy =           0.0000000000000000
    PCM Polarization Energy =               0.0000000000000000
    EFP Energy =                            0.0000000000000000
    Total Energy =                       -310.2117419808180898

  Mulliken Charges: (a.u.)
   Center  Symbol    Alpha    Beta     Spin     Total
       1     H     0.28118  0.28118  0.00000  0.43764
       2     O     4.37177  4.37177  0.00000 -0.74355
       3     C     2.98976  2.98976  0.00000  0.02047
       4     C     3.15934  3.15934  0.00000 -0.31868
       5     H     0.43293  0.43293  0.00000  0.13414
       6     H     0.43287  0.43287  0.00000  0.13427
       7     C     3.16086  3.16086  0.00000 -0.32173
       8     H     0.41474  0.41474  0.00000  0.17051
       9     H     0.41472  0.41472  0.00000  0.17055
      10     C     3.15267  3.15267  0.00000 -0.30533
      11     H     0.42259  0.42259  0.00000  0.15482
      12     H     0.42366  0.42366  0.00000  0.15268
      13     C     3.15374  3.15374  0.00000 -0.30749
      14     H     0.42228  0.42228  0.00000  0.15544
      15     H     0.42079  0.42079  0.00000  0.15843
      16     C     3.23988  3.23988  0.00000 -0.47976
      17     H     0.42052  0.42052  0.00000  0.15897
      18     H     0.42306  0.42306  0.00000  0.15389
      19     H     0.42158  0.42158  0.00000  0.15685
      20     H     0.42145  0.42145  0.00000  0.15711
      21     H     0.41962  0.41962  0.00000  0.16077

   Total alpha = 29.00000, Total beta = 29.00000, Total charge = -0.00000
