  ==> Input File <==

--------------------------------------------------------------------------
set {
	reference rhf
	basis 6-31G*
}

set_num_threads( 4 )
memory 2 gb

molecule MOL {
0 1

O	 3.225979	 0.970355	 -0.599647
C	 2.701189	 0.057885	 -0.047330
C	 1.245376	 -0.013843	 0.345420
O	 3.347903	 -1.046386	 0.304773
C	 0.455112	 1.231400	 -0.050772
H	 0.838542	 -0.913825	 -0.103701
H	 1.208210	 -0.175333	 1.419774
C	 -0.998893	 1.219485	 0.433193
H	 0.482531	 1.345121	 -1.130325
H	 0.957290	 2.103070	 0.354729
C	 -1.883438	 0.145884	 -0.207175
H	 -1.431207	 2.195402	 0.224832
H	 -1.019646	 1.105716	 1.516076
C	 -1.095999	 -1.091280	 -0.643484
H	 -2.655470	 -0.150750	 0.501200
H	 -2.402407	 0.554451	 -1.071303
C	 -1.968933	 -2.168659	 -1.289527
H	 -0.583863	 -1.514403	 0.219023
H	 -0.316905	 -0.793814	 -1.343645
C	 -1.175556	 -3.402313	 -1.718889
H	 -2.748615	 -2.466342	 -0.591585
H	 -2.478306	 -1.748814	 -2.154426
H	 -1.821424	 -4.147430	 -2.173049
H	 -0.681959	 -3.866128	 -0.869517
H	 -0.409206	 -3.142869	 -2.443920
C	 4.728119	 -1.109107	 -0.004993
H	 4.882018	 -1.033965	 -1.071845
H	 5.068212	 -2.067527	 0.355250
H	 5.265056	 -0.311663	 0.488280

	symmetry c1
}
set optking {
	frozen_dihedral = ("
		15 11 8 5
	")
}

ee = optimize('scf')
oeprop('DIPOLE', 'QUADRUPOLE', 'MULLIKEN_CHARGES')
f=open( 'psi4out.xyz', 'w' )
f.write( "29  " )
f.write( str(ee) + "\n" )
f.write( MOL.save_string_xyz() )
f.close()
--------------------------------------------------------------------------

    Molecular point group: c1
  Charge       = 0
  Multiplicity = 1
  Basis Set: 6-31G*
  Basis Set:
  @DF-RHF Final Energy:  -501.01107036654491
    Total Energy =                       -501.0110703665443452
    Molecular point group: c1
  Basis Set: 6-31G*
  Basis Set:
  Basis Set: 6-31G*
  Basis Set:
  @DF-RHF Final Energy:  -501.02869553009305
    Total Energy =                       -501.0286955300932732
  Basis Set: 6-31G*
  Basis Set:
  Basis Set: 6-31G*
  Basis Set:
  @DF-RHF Final Energy:  -501.03272264084762
    Total Energy =                       -501.0327226408472825
  Basis Set: 6-31G*
  Basis Set:
  Basis Set: 6-31G*
  Basis Set:
  @DF-RHF Final Energy:  -501.03166996404457
    Total Energy =                       -501.0316699640454772
  Basis Set: 6-31G*
  Basis Set:
  @DF-RHF Final Energy:  -501.03398246723907
    Total Energy =                       -501.0339824672405484
  Basis Set: 6-31G*
  Basis Set:
  @DF-RHF Final Energy:  -501.03456299859454
    Total Energy =                       -501.0345629985940832
  Basis Set: 6-31G*
  Basis Set:
  Basis Set: 6-31G*
  Basis Set:
  @DF-RHF Final Energy:  -501.03467287189551
    Total Energy =                       -501.0346728718959639
  Basis Set: 6-31G*
  Basis Set:
  Basis Set: 6-31G*
  Basis Set:
  @DF-RHF Final Energy:  -501.03468777550870
    Total Energy =                       -501.0346877755079049
  Basis Set: 6-31G*
  Basis Set:
  Charge       = 0
  Multiplicity = 1
  Basis Set: 6-31G*
  Basis Set:

    Orbital Energies (a.u.)
    -----------------------

    Doubly Occupied:

       1A    -20.603090     2A    -20.544880     3A    -11.371512
       4A    -11.280458     5A    -11.233534     6A    -11.219112
       7A    -11.218408     8A    -11.216551     9A    -11.216345
      10A    -11.215289    11A    -11.209584    12A     -1.468738
      13A     -1.362224    14A     -1.095721    15A     -1.065017
      16A     -1.017910    17A     -0.975851    18A     -0.931492
      19A     -0.864788    20A     -0.808387    21A     -0.777344
      22A     -0.763545    23A     -0.697988    24A     -0.682376
      25A     -0.671933    26A     -0.650490    27A     -0.630048
      28A     -0.605225    29A     -0.593254    30A     -0.580576
      31A     -0.564194    32A     -0.554884    33A     -0.537614
      34A     -0.526018    35A     -0.520086    36A     -0.506081
      37A     -0.492760    38A     -0.483980    39A     -0.472958
      40A     -0.457818    41A     -0.455919    42A     -0.452414
      43A     -0.439167    44A     -0.434302

  @DF-RHF Final Energy:  -501.03468857580390

   => Energetics <=

    Nuclear Repulsion Energy =            629.0092574710328108
    One-Electron Energy =               -1929.1481613249916336
    Two-Electron Energy =                 799.1042152781551522
    DFT Exchange-Correlation Energy =       0.0000000000000000
    Empirical Dispersion Energy =           0.0000000000000000
    PCM Polarization Energy =               0.0000000000000000
    EFP Energy =                            0.0000000000000000
    Total Energy =                       -501.0346885758035569
    Molecular point group: c1
  Basis Set: 6-31G*
  Basis Set:

  -Total Gradient:
     Atom            X                  Y                   Z
    ------   -----------------  -----------------  -----------------
       1       -0.000124747954     0.000027987501     0.000146004987
       2        0.000103000356    -0.000152839005    -0.000269345961
       3        0.000168299211     0.000006608780    -0.000095087596
       4       -0.000017495359    -0.000020514839     0.000085863059
       5        0.001362941548    -0.003237631066     0.003301693326
       6        0.000018793105    -0.000006437488    -0.000002323014
       7       -0.000045910487     0.000055467462    -0.000022529443
       8       -0.001124999827     0.003873545035    -0.004471792620
       9        0.000038241253     0.000016029720     0.000148775963
      10        0.000042076068     0.000135338789    -0.000060438240
      11       -0.003877732618     0.004153183748    -0.000476779364
      12       -0.000041552768    -0.000000051187     0.000022547313
      13       -0.000049068206    -0.000031836043    -0.000036063670
      14       -0.000212126790    -0.000119340941     0.000080815696
      15        0.003636847396    -0.004861773902     0.001619988745
      16        0.000081374966     0.000110960813    -0.000007038856
      17       -0.000067893673    -0.000090779301     0.000101324224
      18       -0.000021735782     0.000029602212    -0.000114076949
      19        0.000061209098     0.000018351934    -0.000002707769
      20        0.000051424150     0.000007451076     0.000024296396
      21        0.000003426705     0.000008269407     0.000006522601
      22        0.000035043200     0.000053298663     0.000016659077
      23       -0.000011296630     0.000022415427     0.000004890674
      24        0.000007232771    -0.000009088882    -0.000006751756
      25        0.000011634618    -0.000011239801    -0.000008204974
      26       -0.000024143920     0.000026958395     0.000027786373
      27       -0.000003291075    -0.000000605513    -0.000009059473
      28       -0.000003710976     0.000000020474    -0.000000884310
      29        0.000004161611    -0.000003351471    -0.000004084441

  **** Optimization is complete! (in 9 steps) ****
    Final optimized geometry and variables:
    Molecular point group: c1

    Geometry (in Angstrom), charge = 0, multiplicity = 1:

    O            2.469869741597     1.462037178638    -0.442901501110
    C            2.077476284620     0.659835006858     0.341689365722
    C            0.654157854949     0.524349106779     0.826540975845
    O            2.865064460495    -0.244650392756     0.910554098656
    C           -0.291463979563     1.542609923846     0.191936212936
    H            0.350453095736    -0.498553935205     0.642152725596
    H            0.671453476932     0.637694913310     1.907336229500
    C           -1.733135072576     1.497506700087     0.729638860281
    H           -0.277406362421     1.432016169348    -0.887092859942
    H            0.113532841184     2.530354347072     0.384840427383
    C           -2.727154174675     0.488805988370     0.102726251132
    H           -2.165712151525     2.487525405861     0.624347514931
    H           -1.682995451447     1.318577354965     1.801986365571
    C           -2.159283110764    -0.822616359141    -0.454040364603
    H           -3.441964355135     0.205004715818     0.870994247132
    H           -3.283123977119     0.982798738861    -0.689643443864
    C           -3.244468602843    -1.699771451045    -1.083479355828
    H           -1.678324552765    -1.384268535860     0.343570135535
    H           -1.394290087890    -0.622959443540    -1.200067313029
    C           -2.702637392755    -3.021296358750    -1.627316422401
    H           -4.017287758960    -1.903349207581    -0.345305695004
    H           -3.728460542711    -1.150079604818    -1.887844830095
    H           -3.494309627355    -3.618821960841    -2.068644949009
    H           -2.243503347848    -3.611588357623    -0.839203302547
    H           -1.950722205729    -2.851821242872    -2.392927168000
    C            4.233005482970    -0.225719784413     0.545807923651
    H            4.345993698848    -0.397274028942    -0.515020699153
    H            4.698646632670    -1.022270685857     1.104995610237
    H            4.681670544410     0.723353755970     0.801762308501

  Mulliken Charges: (a.u.)
   Center  Symbol    Alpha    Beta     Spin     Total
       1     O     4.28615  4.28615  0.00000 -0.57230
       2     C     2.60574  2.60574  0.00000  0.78852
       3     C     3.20950  3.20950  0.00000 -0.41900
       4     O     4.30745  4.30745  0.00000 -0.61490
       5     C     3.15830  3.15830  0.00000 -0.31660
       6     H     0.39641  0.39641  0.00000  0.20719
       7     H     0.40133  0.40133  0.00000  0.19733
       8     C     3.15943  3.15943  0.00000 -0.31887
       9     H     0.41064  0.41064  0.00000  0.17871
      10     H     0.40926  0.40926  0.00000  0.18147
      11     C     3.15281  3.15281  0.00000 -0.30563
      12     H     0.41575  0.41575  0.00000  0.16850
      13     H     0.42387  0.42387  0.00000  0.15226
      14     C     3.15706  3.15706  0.00000 -0.31412
      15     H     0.42130  0.42130  0.00000  0.15739
      16     H     0.42103  0.42103  0.00000  0.15794
      17     C     3.15075  3.15075  0.00000 -0.30150
      18     H     0.42498  0.42498  0.00000  0.15004
      19     H     0.42173  0.42173  0.00000  0.15655
      20     C     3.23944  3.23944  0.00000 -0.47887
      21     H     0.42305  0.42305  0.00000  0.15391
      22     H     0.42229  0.42229  0.00000  0.15541
      23     H     0.41889  0.41889  0.00000  0.16222
      24     H     0.42218  0.42218  0.00000  0.15565
      25     H     0.42140  0.42140  0.00000  0.15720
      26     C     3.09236  3.09236  0.00000 -0.18471
      27     H     0.40915  0.40915  0.00000  0.18170
      28     H     0.40856  0.40856  0.00000  0.18288
      29     H     0.40919  0.40919  0.00000  0.18162

   Total alpha = 44.00000, Total beta = 44.00000, Total charge = -0.00000
