  ==> Input File <==

--------------------------------------------------------------------------
set {
	reference rhf
	basis cc-pvtz
}

set_num_threads( 4 )
memory 2 gb

molecule MOL {
0 1

H	 -2.168959	 -1.087986	 0.542348
O	 -2.346257	 -0.289210	 0.080372
C	 -1.183935	 0.486039	 -0.009831
C	 0.062853	 -0.375310	 0.027457
H	 -1.178881	 1.094526	 -0.908634
H	 -1.184406	 1.155156	 0.838676
O	 1.172093	 0.457955	 -0.054438
H	 0.052476	 -1.081302	 -0.804627
H	 0.076323	 -0.955658	 0.947560
C	 2.395478	 -0.199028	 -0.000366
H	 2.505946	 -0.901710	 -0.823354
H	 3.174616	 0.545641	 -0.071768
H	 2.513730	 -0.742241	 0.934223

	symmetry c1
}
set optking {
	frozen_dihedral = ("
		1 2 3 5
	")
}

ee = optimize('scf')
oeprop('DIPOLE', 'QUADRUPOLE', 'MULLIKEN_CHARGES')
f=open( 'psi4out.xyz', 'w' )
f.write( "13  " )
f.write( str(ee) + "\n" )
f.write( MOL.save_string_xyz() )
f.close()
--------------------------------------------------------------------------

    Molecular point group: c1
  Charge       = 0
  Multiplicity = 1
  Basis Set: CC-PVTZ
  Basis Set:
  @DF-RHF Final Energy:  -268.05881219797533
    Total Energy =                       -268.0588121979751577
    Molecular point group: c1
  Basis Set: CC-PVTZ
  Basis Set:
  Basis Set: CC-PVTZ
  Basis Set:
  @DF-RHF Final Energy:  -268.05997462585538
    Total Energy =                       -268.0599746258554319
  Basis Set: CC-PVTZ
  Basis Set:
  Basis Set: CC-PVTZ
  Basis Set:
  @DF-RHF Final Energy:  -268.06020023755764
    Total Energy =                       -268.0602002375576376
  Basis Set: CC-PVTZ
  Basis Set:
  Basis Set: CC-PVTZ
  Basis Set:
  @DF-RHF Final Energy:  -268.06020353354472
    Total Energy =                       -268.0602035335448363
  Basis Set: CC-PVTZ
  Basis Set:
  Charge       = 0
  Multiplicity = 1
  Basis Set: CC-PVTZ
  Basis Set:

    Orbital Energies (a.u.)
    -----------------------

    Doubly Occupied:

       1A    -20.560245     2A    -20.551494     3A    -11.276221
       4A    -11.270923     5A    -11.267246     6A     -1.396342
       7A     -1.368227     8A     -1.022144     9A     -0.916038
      10A     -0.850383    11A     -0.702610    12A     -0.683875
      13A     -0.671045    14A     -0.631401    15A     -0.604927
      16A     -0.580556    17A     -0.546287    18A     -0.498794
      19A     -0.474886    20A     -0.443801    21A     -0.428957

  @DF-RHF Final Energy:  -268.06020381302909

   => Energetics <=

    Nuclear Repulsion Energy =            190.6950191909846808
    One-Electron Energy =                -744.0176424163756792
    Two-Electron Energy =                 285.2624194123619645
    DFT Exchange-Correlation Energy =       0.0000000000000000
    Empirical Dispersion Energy =           0.0000000000000000
    PCM Polarization Energy =               0.0000000000000000
    EFP Energy =                            0.0000000000000000
    Total Energy =                       -268.0602038130290339
    Molecular point group: c1
  Basis Set: CC-PVTZ
  Basis Set:

  -Total Gradient:
     Atom            X                  Y                   Z
    ------   -----------------  -----------------  -----------------
       1        0.000733856296    -0.001266185187    -0.002224275506
       2       -0.000681909264     0.001142013301     0.002531663105
       3       -0.001181671159     0.001845318203     0.000723508333
       4       -0.000016921597     0.000013210498    -0.000008197393
       5        0.001113925637    -0.001715968347    -0.001012233551
       6        0.000010493331    -0.000020362806    -0.000007950800
       7        0.000026186429     0.000005060432    -0.000002115549
       8        0.000001902108    -0.000009309062     0.000003382189
       9       -0.000003156027     0.000008934700    -0.000010102353
      10       -0.000004972699    -0.000003147973     0.000013582929
      11        0.000000306989     0.000002001200    -0.000003201687
      12       -0.000004502338     0.000001486086    -0.000004417639
      13        0.000006462295    -0.000003051047     0.000000357922

  **** Optimization is complete! (in 5 steps) ****
    Final optimized geometry and variables:
    Molecular point group: c1

    Geometry (in Angstrom), charge = 0, multiplicity = 1:

    H           -2.214481064471    -1.071643514730     0.525525546959
    O           -2.355845516427    -0.285862216374     0.030164262873
    C           -1.187895185849     0.486834029461    -0.020468401774
    C            0.062127196328    -0.370102011553     0.019700244129
    H           -1.201255823279     1.031800122861    -0.954060675125
    H           -1.160420429808     1.201981914484     0.794496729382
    O            1.168728539458     0.465251005425    -0.035364385263
    H            0.057197548666    -1.065344737493    -0.818593384427
    H            0.077472510375    -0.961736219246     0.937971333727
    C            2.393457890574    -0.192673812511    -0.026790092507
    H            2.493290199182    -0.856912304875    -0.881928664003
    H            3.170327556000     0.555943353823    -0.074031882992
    H            2.524110921524    -0.776892938041     0.881282075807

  Mulliken Charges: (a.u.)
   Center  Symbol    Alpha    Beta     Spin     Total
       1     H     0.39410  0.39410  0.00000  0.21180
       2     O     4.20289  4.20289  0.00000 -0.40579
       3     C     2.95576  2.95576  0.00000  0.08849
       4     C     2.97517  2.97517  0.00000  0.04966
       5     H     0.45975  0.45975  0.00000  0.08050
       6     H     0.46942  0.46942  0.00000  0.06117
       7     O     4.17251  4.17251  0.00000 -0.34502
       8     H     0.46918  0.46918  0.00000  0.06163
       9     H     0.48266  0.48266  0.00000  0.03468
      10     C     3.03300  3.03300  0.00000 -0.06600
      11     H     0.46985  0.46985  0.00000  0.06031
      12     H     0.44491  0.44491  0.00000  0.11018
      13     H     0.47080  0.47080  0.00000  0.05840

   Total alpha = 21.00000, Total beta = 21.00000, Total charge = -0.00000
