  ==> Input File <==

--------------------------------------------------------------------------
set {
	reference rhf
	basis cc-pvtz
}

set_num_threads( 4 )
memory 2 gb

molecule MOL {
0 1

H	 2.253592	 -3.139569	 1.876871
C	 2.370463	 -2.343016	 1.151645
C	 1.096027	 -1.513927	 1.037300
H	 3.208845	 -1.730832	 1.466898
H	 2.632701	 -2.797478	 0.202060
C	 1.215950	 -0.382441	 0.027187
H	 0.837952	 -1.091811	 2.002173
H	 0.270033	 -2.161247	 0.752190
N	 0.000002	 0.398953	 -0.040851
H	 2.024560	 0.278737	 0.324110
H	 1.496788	 -0.794459	 -0.946699
C	 -1.215959	 -0.382435	 0.027143
H	 -0.000012	 1.086078	 0.683841
C	 -2.451944	 0.502410	 -0.038737
H	 -1.221867	 -1.069392	 -0.813828
H	 -1.259993	 -0.999709	 0.929424
C	 -3.752217	 -0.292550	 0.005776
H	 -2.407325	 1.093801	 -0.946480
H	 -2.431979	 1.206234	 0.790023
H	 -3.817783	 -0.982946	 -0.828547
H	 -4.612613	 0.364348	 -0.042306
H	 -3.830160	 -0.871666	 0.919868

	symmetry c1
}
set optking {
	frozen_dihedral = ("
		10 6 9 12
	")
}

ee = optimize('scf')
oeprop('DIPOLE', 'QUADRUPOLE', 'MULLIKEN_CHARGES')
f=open( 'psi4out.xyz', 'w' )
f.write( "22  " )
f.write( str(ee) + "\n" )
f.write( MOL.save_string_xyz() )
f.close()
--------------------------------------------------------------------------

    Molecular point group: c1
  Charge       = 0
  Multiplicity = 1
  Basis Set: CC-PVTZ
  Basis Set:
  @DF-RHF Final Energy:  -290.47950065981485
    Total Energy =                       -290.4795006598147893
    Molecular point group: c1
  Basis Set: CC-PVTZ
  Basis Set:
  Basis Set: CC-PVTZ
  Basis Set:
  @DF-RHF Final Energy:  -290.48057559019094
    Total Energy =                       -290.4805755901910516
  Basis Set: CC-PVTZ
  Basis Set:
  Basis Set: CC-PVTZ
  Basis Set:
  @DF-RHF Final Energy:  -290.48424468127388
    Total Energy =                       -290.4842446812737080
  Basis Set: CC-PVTZ
  Basis Set:
  Basis Set: CC-PVTZ
  Basis Set:
  @DF-RHF Final Energy:  -290.48484266469177
    Total Energy =                       -290.4848426646917687
  Basis Set: CC-PVTZ
  Basis Set:
  Basis Set: CC-PVTZ
  Basis Set:
  @DF-RHF Final Energy:  -290.48491786111686
    Total Energy =                       -290.4849178611171965
  Basis Set: CC-PVTZ
  Basis Set:
  Basis Set: CC-PVTZ
  Basis Set:
  @DF-RHF Final Energy:  -290.48493667829126
    Total Energy =                       -290.4849366782910920
  Basis Set: CC-PVTZ
  Basis Set:
  Basis Set: CC-PVTZ
  Basis Set:
  @DF-RHF Final Energy:  -290.48493956953075
    Total Energy =                       -290.4849395695308658
  Basis Set: CC-PVTZ
  Basis Set:
  Charge       = 0
  Multiplicity = 1
  Basis Set: CC-PVTZ
  Basis Set:

    Orbital Energies (a.u.)
    -----------------------

    Doubly Occupied:

       1A    -15.526946     2A    -11.237144     3A    -11.235397
       4A    -11.211412     5A    -11.210139     6A    -11.208487
       7A    -11.206666     8A     -1.203006     9A     -1.057587
      10A     -1.028109    11A     -0.930005    12A     -0.873736
      13A     -0.812236    14A     -0.788206    15A     -0.670340
      16A     -0.630069    17A     -0.617894    18A     -0.604766
      19A     -0.578065    20A     -0.557122    21A     -0.540926
      22A     -0.525832    23A     -0.502092    24A     -0.495479
      25A     -0.483828    26A     -0.470444    27A     -0.463706
      28A     -0.462835    29A     -0.354831

  @DF-RHF Final Energy:  -290.48493969651577

   => Energetics <=

    Nuclear Repulsion Energy =            318.1452620598439580
    One-Electron Energy =               -1022.2857875536521988
    Two-Electron Energy =                 413.6555857972922468
    DFT Exchange-Correlation Energy =       0.0000000000000000
    Empirical Dispersion Energy =           0.0000000000000000
    PCM Polarization Energy =               0.0000000000000000
    EFP Energy =                            0.0000000000000000
    Total Energy =                       -290.4849396965159940
    Molecular point group: c1
  Basis Set: CC-PVTZ
  Basis Set:

  -Total Gradient:
     Atom            X                  Y                   Z
    ------   -----------------  -----------------  -----------------
       1        0.000000433289    -0.000002446384    -0.000000142555
       2       -0.000003903158     0.000004766125     0.000001397856
       3        0.000012536182    -0.000011070190     0.000000059287
       4        0.000003869056    -0.000000702315     0.000000569153
       5       -0.000002255309     0.000002951600     0.000002571468
       6        0.001138387870     0.001494010178    -0.004110804848
       7        0.000003293034     0.000003116957    -0.000001584629
       8       -0.000006027558     0.000001770449    -0.000002552479
       9       -0.000229393407    -0.000694103291    -0.004996615594
      10       -0.000937979393    -0.001119665225     0.004937139641
      11        0.000014722154    -0.000012273549     0.000004285796
      12        0.000022675762     0.000327063660     0.004169842384
      13       -0.000022181115     0.000009791251     0.000004911624
      14        0.000006398278    -0.000000890952     0.000002974592
      15        0.000002833791    -0.000000096167    -0.000005099952
      16       -0.000004475373    -0.000002722591    -0.000003265082
      17        0.000002229500    -0.000002285029    -0.000000820082
      18       -0.000001078655     0.000001657703    -0.000002337781
      19        0.000000079472     0.000001092798     0.000000752848
      20       -0.000001254753    -0.000000169720    -0.000000282986
      21        0.000000616429    -0.000000014018    -0.000000104722
      22        0.000000473906     0.000000218708    -0.000000893941

  **** Optimization is complete! (in 8 steps) ****
    Final optimized geometry and variables:
    Molecular point group: c1

    Geometry (in Angstrom), charge = 0, multiplicity = 1:

    H            2.984077855036    -2.553862379524     1.455261551571
    C            2.970787850860    -1.711268254941     0.773994545026
    C            1.597244957887    -1.048316225630     0.742011202796
    H            3.737466133286    -1.014203794552     1.095940626915
    H            3.251310456488    -2.077457901065    -0.208124890555
    C            1.561168749029     0.135739531743    -0.228362476960
    H            1.335855693145    -0.704623242324     1.739723132776
    H            0.853493088222    -1.786940672744     0.464491774157
    N            0.335168945681     0.916155291426    -0.283212984714
    H            2.351586885887     0.813918436665     0.074405514323
    H            1.799894648506    -0.219514564099    -1.226833012762
    C           -0.920806069588     0.196771283008    -0.225379713543
    H            0.348838419368     1.607356535277     0.435658452270
    C           -2.095104815315     1.140824300691    -0.441930855117
    H           -0.919490519863    -0.554088254074    -1.010896944132
    H           -1.063798628889    -0.338429980994     0.713720463912
    C           -3.443035828932     0.429563587078    -0.398509588326
    H           -1.966911788618     1.642109895255    -1.394547888630
    H           -2.072615462911     1.916630185677     0.319913915314
    H           -3.508963729139    -0.332355988396    -1.168194640763
    H           -4.257314345214     1.127039023529    -0.555705970099
    H           -3.604164353178    -0.054549022890     0.559038510851

  Mulliken Charges: (a.u.)
   Center  Symbol    Alpha    Beta     Spin     Total
       1     H     0.44730  0.44730  0.00000  0.10539
       2     C     3.15241  3.15241  0.00000 -0.30481
       3     C     3.09061  3.09061  0.00000 -0.18122
       4     H     0.45506  0.45506  0.00000  0.08988
       5     H     0.45486  0.45486  0.00000  0.09027
       6     C     3.04127  3.04127  0.00000 -0.08254
       7     H     0.45645  0.45645  0.00000  0.08710
       8     H     0.45150  0.45150  0.00000  0.09700
       9     N     3.64195  3.64195  0.00000 -0.28390
      10     H     0.45486  0.45486  0.00000  0.09028
      11     H     0.45304  0.45304  0.00000  0.09393
      12     C     3.02634  3.02634  0.00000 -0.05268
      13     H     0.44490  0.44490  0.00000  0.11020
      14     C     3.08053  3.08053  0.00000 -0.16107
      15     H     0.45897  0.45897  0.00000  0.08206
      16     H     0.46842  0.46842  0.00000  0.06315
      17     C     3.15382  3.15382  0.00000 -0.30763
      18     H     0.44879  0.44879  0.00000  0.10241
      19     H     0.45960  0.45960  0.00000  0.08080
      20     H     0.45504  0.45504  0.00000  0.08992
      21     H     0.44764  0.44764  0.00000  0.10472
      22     H     0.45663  0.45663  0.00000  0.08673

   Total alpha = 29.00000, Total beta = 29.00000, Total charge =  0.00000
