  ==> Input File <==

--------------------------------------------------------------------------
set {
	reference rhf
	basis 6-31G*
}

set_num_threads( 1 )
memory 2 gb

molecule MOL {
0 1

H	 -3.161837	 0.500524	 -0.000234
C	 -2.367097	 -0.232926	 -0.000000
O	 -1.158440	 0.455814	 -0.000122
H	 -2.468853	 -0.861886	 -0.882833
H	 -2.468942	 -0.861421	 0.883154
C	 -0.029776	 -0.365156	 0.000148
C	 1.212217	 0.508981	 0.000007
H	 -0.036772	 -1.013236	 -0.877259
H	 -0.036869	 -1.012778	 0.877897
C	 1.734107	 0.782624	 -1.409827
H	 0.975734	 1.443126	 0.500117
H	 1.977445	 0.020031	 0.595030
H	 0.991025	 1.294163	 -2.015286
H	 2.620236	 1.407715	 -1.380137
H	 1.999236	 -0.139204	 -1.920065

	symmetry c1
}
set optking {
	frozen_dihedral = ("
		6 3 2 4,
		8 6 3 2
	")
}

ee = energy('scf')
oeprop('DIPOLE', 'QUADRUPOLE', 'MULLIKEN_CHARGES')
f=open( 'psi4out.xyz', 'w' )
f.write( "15  " )
f.write( str(ee) + "\n" )
f.write( MOL.save_string_xyz() )
f.close()
--------------------------------------------------------------------------

    Molecular point group: c1

    Geometry (in Angstrom), charge = 0, multiplicity = 1:

       Center              X                  Y                   Z               Mass
    ------------   -----------------  -----------------  -----------------  -----------------
           H         -3.006014321366     0.279173982870     0.285573282937     1.007825032070
           C         -2.211274321366    -0.454276017130     0.285807282937    12.000000000000
           O         -1.002617321366     0.234463982870     0.285685282937    15.994914619560
           H         -2.313030321366    -1.083236017130    -0.597025717063     1.007825032070
           H         -2.313119321366    -1.082771017130     1.168961282937     1.007825032070
           C          0.126046678634    -0.586506017130     0.285955282937    12.000000000000
           C          1.368039678634     0.287630982870     0.285814282937    12.000000000000
           H          0.119050678634    -1.234586017130    -0.591451717063     1.007825032070
           H          0.118953678634    -1.234128017130     1.163704282937     1.007825032070
           C          1.889929678634     0.561273982870    -1.124019717063    12.000000000000
           H          1.131556678634     1.221775982870     0.785924282937     1.007825032070
           H          2.133267678634    -0.201319017130     0.880837282937     1.007825032070
           H          1.146847678634     1.072812982870    -1.729478717063     1.007825032070
           H          2.776058678634     1.186364982870    -1.094329717063     1.007825032070
           H          2.155058678634    -0.360554017130    -1.634257717063     1.007825032070

  Charge       = 0
  Multiplicity = 1
  Basis Set: 6-31G*
  Basis Set:

    Orbital Energies (a.u.)
    -----------------------

    Doubly Occupied:

       1A    -20.553537     2A    -11.265369     3A    -11.263765
       4A    -11.213336     5A    -11.207446     6A     -1.378557
       7A     -1.055324     8A     -0.952072     9A     -0.882087
      10A     -0.804832    11A     -0.667733    12A     -0.662730
      13A     -0.632041    14A     -0.582377    15A     -0.579463
      16A     -0.546357    17A     -0.492392    18A     -0.487652
      19A     -0.481706    20A     -0.460441    21A     -0.411489

  @DF-RHF Final Energy:  -232.13591785653270

   => Energetics <=

    Nuclear Repulsion Energy =            191.6779457503018023
    One-Electron Energy =                -694.4663091535659305
    Two-Electron Energy =                 270.6524455467309735
    DFT Exchange-Correlation Energy =       0.0000000000000000
    Empirical Dispersion Energy =           0.0000000000000000
    PCM Polarization Energy =               0.0000000000000000
    EFP Energy =                            0.0000000000000000
    Total Energy =                       -232.1359178565331831

  Mulliken Charges: (a.u.)
   Center  Symbol    Alpha    Beta     Spin     Total
       1     H     0.41237  0.41237  0.00000  0.17527
       2     C     3.07940  3.07940  0.00000 -0.15879
       3     O     4.30419  4.30419  0.00000 -0.60838
       4     H     0.43046  0.43046  0.00000  0.13908
       5     H     0.43037  0.43037  0.00000  0.13926
       6     C     2.98857  2.98857  0.00000  0.02286
       7     C     3.16228  3.16228  0.00000 -0.32456
       8     H     0.43177  0.43177  0.00000  0.13647
       9     H     0.43112  0.43112  0.00000  0.13776
      10     C     3.24399  3.24399  0.00000 -0.48798
      11     H     0.40679  0.40679  0.00000  0.18642
      12     H     0.42188  0.42188  0.00000  0.15623
      13     H     0.41389  0.41389  0.00000  0.17223
      14     H     0.41948  0.41948  0.00000  0.16105
      15     H     0.42346  0.42346  0.00000  0.15309

   Total alpha = 21.00000, Total beta = 21.00000, Total charge =  0.00000
