  ==> Input File <==

--------------------------------------------------------------------------
set {
	reference rhf
	basis cc-pvtz
}

set_num_threads( 4 )
memory 2 gb

molecule MOL {
0 1

H	 -0.000319	 0.067706	 -2.122744
C	 -0.000184	 -0.484932	 -1.207800
C	 -0.000181	 -1.865032	 -1.200230
C	 0.000000	 0.179985	 0.000046
H	 -0.000325	 -2.400757	 -2.128946
C	 0.000003	 -2.552036	 -0.000010
N	 0.000000	 1.644631	 0.000076
C	 0.000183	 -0.484981	 1.207864
H	 0.000000	 -3.625035	 -0.000032
C	 0.000184	 -1.865081	 1.200238
O	 1.050559	 2.194174	 -0.000073
O	 -1.050559	 2.194174	 -0.000074
H	 0.000326	 0.067619	 2.122832
H	 0.000323	 -2.400844	 2.128932

	symmetry c1
}
set optking {
	frozen_dihedral = ("
		2 4 7 11
	")
}

ee = optimize('scf')
oeprop('DIPOLE', 'QUADRUPOLE', 'MULLIKEN_CHARGES')
f=open( 'psi4out.xyz', 'w' )
f.write( "14  " )
f.write( str(ee) + "\n" )
f.write( MOL.save_string_xyz() )
f.close()
--------------------------------------------------------------------------

    Molecular point group: c1
  Charge       = 0
  Multiplicity = 1
  Basis Set: CC-PVTZ
  Basis Set:
  @DF-RHF Final Energy:  -434.31969762752487
    Total Energy =                       -434.3196976275252155
    Molecular point group: c1
  Basis Set: CC-PVTZ
  Basis Set:
  Basis Set: CC-PVTZ
  Basis Set:
  @DF-RHF Final Energy:  -434.31986782898076
    Total Energy =                       -434.3198678289803638
  Basis Set: CC-PVTZ
  Basis Set:
  Basis Set: CC-PVTZ
  Basis Set:
  @DF-RHF Final Energy:  -434.31947510339245
    Total Energy =                       -434.3194751033926195
  Basis Set: CC-PVTZ
  Basis Set:
  Basis Set: CC-PVTZ
  Basis Set:
  @DF-RHF Final Energy:  -434.31988437557766
    Total Energy =                       -434.3198843755777716
  Basis Set: CC-PVTZ
  Basis Set:
  Basis Set: CC-PVTZ
  Basis Set:
  @DF-RHF Final Energy:  -434.31988948218981
    Total Energy =                       -434.3198894821899785
  Basis Set: CC-PVTZ
  Basis Set:
  Charge       = 0
  Multiplicity = 1
  Basis Set: CC-PVTZ
  Basis Set:

    Orbital Energies (a.u.)
    -----------------------

    Doubly Occupied:

       1A    -20.598815     2A    -20.598758     3A    -15.848444
       4A    -11.308460     5A    -11.267274     6A    -11.267236
       7A    -11.260924     8A    -11.260647     9A    -11.257718
      10A     -1.646075    11A     -1.429254    12A     -1.206534
      13A     -1.096644    14A     -1.056897    15A     -0.959224
      16A     -0.875167    17A     -0.831653    18A     -0.786431
      19A     -0.740730    20A     -0.738954    21A     -0.718381
      22A     -0.651705    23A     -0.650433    24A     -0.625844
      25A     -0.561892    26A     -0.553449    27A     -0.533677
      28A     -0.501174    29A     -0.485302    30A     -0.459752
      31A     -0.371402    32A     -0.370595

  @DF-RHF Final Energy:  -434.31992003903292

   => Energetics <=

    Nuclear Repulsion Energy =            417.2452847745296367
    One-Electron Energy =               -1418.0915219308149062
    Two-Electron Energy =                 566.5263171172523471
    DFT Exchange-Correlation Energy =       0.0000000000000000
    Empirical Dispersion Energy =           0.0000000000000000
    PCM Polarization Energy =               0.0000000000000000
    EFP Energy =                            0.0000000000000000
    Total Energy =                       -434.3199200390329224
    Molecular point group: c1
  Basis Set: CC-PVTZ
  Basis Set:

  -Total Gradient:
     Atom            X                  Y                   Z
    ------   -----------------  -----------------  -----------------
       1       -0.000002106487     0.000004821895    -0.000021319899
       2       -0.000005047446    -0.000003864482     0.000012198122
       3        0.000000021088     0.000002032297    -0.000015522307
       4        0.000016239140     0.000039937971     0.000024133620
       5        0.000000992500    -0.000007262865    -0.000010341085
       6       -0.000000081271    -0.000027493333     0.000000838531
       7        0.000004102177    -0.000139256628    -0.000052287706
       8       -0.000005798459    -0.000004020395    -0.000018880153
       9       -0.000000359519     0.000013314640    -0.000000272087
      10        0.000001629779     0.000000028652     0.000014638184
      11        0.000035580235     0.000057803032     0.000018701429
      12       -0.000044785905     0.000065800437     0.000016238932
      13        0.000000002326     0.000004947801     0.000021687238
      14       -0.000000388155    -0.000006789030     0.000010187180

  **** Optimization is complete! (in 6 steps) ****
    Final optimized geometry and variables:
    Molecular point group: c1

    Geometry (in Angstrom), charge = 0, multiplicity = 1:

    H           -0.000312180674     0.073015470974    -2.126673941208
    C           -0.000153800256    -0.477930456574    -1.207060414935
    C           -0.000156414297    -1.859460326611    -1.198848793533
    C            0.000051997961     0.177650451570    -0.000023690762
    H           -0.000283733174    -2.394694632974    -2.128083776821
    C            0.000000221107    -2.547677024492    -0.000016143411
    N            0.000004181892     1.644091095493    -0.000047536401
    C            0.000146531017    -0.477913710644     1.207011786639
    H           -0.000008428100    -3.620236641061    -0.000011446533
    C            0.000146764468    -1.859447330276     1.198806130516
    O            1.054213620031     2.183316494612    -0.000254932738
    O           -1.054235839143     2.183272757406     0.000401105318
    H            0.000239735128     0.073036326711     2.126623133836
    H            0.000238824509    -2.394668774763     2.128047941917

  Mulliken Charges: (a.u.)
   Center  Symbol    Alpha    Beta     Spin     Total
       1     H     0.41507  0.41507  0.00000  0.16986
       2     C     3.08382  3.08382  0.00000 -0.16765
       3     C     3.06378  3.06378  0.00000 -0.12757
       4     C     2.92378  2.92378  0.00000  0.15243
       5     H     0.41736  0.41736  0.00000  0.16529
       6     C     3.07911  3.07911  0.00000 -0.15822
       7     N     3.29353  3.29353  0.00000  0.41294
       8     C     3.08382  3.08382  0.00000 -0.16764
       9     H     0.41804  0.41804  0.00000  0.16392
      10     C     3.06378  3.06378  0.00000 -0.12757
      11     O     4.16273  4.16273  0.00000 -0.32547
      12     O     4.16274  4.16274  0.00000 -0.32548
      13     H     0.41507  0.41507  0.00000  0.16987
      14     H     0.41736  0.41736  0.00000  0.16529

   Total alpha = 32.00000, Total beta = 32.00000, Total charge = -0.00000
