                              Psi4 1.0.54 Driver

  ==> Input File <==

--------------------------------------------------------------------------
set {
	reference rhf
	basis cc-pvtz
}

set_num_threads( 4 )
memory 2 gb

molecule MOL {
0 1

O	 -2.071633	 -1.227563	 -0.223463
C	 -1.652164	 -0.152425	 0.058082
C	 -0.327811	 0.006324	 0.778296
C	 -2.402515	 1.108629	 -0.298924
C	 0.843231	 -0.001575	 -0.211665
H	 -0.319484	 0.928173	 1.350354
H	 -0.227804	 -0.823091	 1.466705
C	 2.197693	 0.138030	 0.476937
H	 0.722944	 0.805202	 -0.930230
H	 0.813976	 -0.926978	 -0.776588
C	 2.100718	 0.065674	 1.996977
H	 2.865530	 -0.641134	 0.119976
H	 2.648403	 1.083044	 0.188234
H	 1.685384	 -0.883596	 2.318562
H	 1.464095	 0.852983	 2.385853
H	 3.076506	 0.171865	 2.456284
H	 -3.240910	 0.874416	 -0.936711
H	 -1.747554	 1.818823	 -0.790984
H	 -2.760419	 1.579708	 0.610998

	symmetry c1
}
set optking {
	frozen_dihedral = ("
		11 8 5 9
	")
}

ee,wfn = optimize('scf', return_wfn=True)
oeprop( wfn, 'DIPOLE', 'QUADRUPOLE', 'MULLIKEN_CHARGES')
f=open( 'psi4out.xyz', 'w' )
f.write( "19  " )
f.write( str(ee) + "\n" )
f.write( MOL.save_string_xyz() )
f.close()
--------------------------------------------------------------------------

    Molecular point group: c1
  Charge       = 0
  Multiplicity = 1
  Basis Set: CC-PVTZ
  Basis Set:
  @DF-RHF Final Energy:  -309.16329362756881
    Total Energy =                       -309.1632936275687484
    Molecular point group: c1
  Basis Set: CC-PVTZ
  Basis Set:
  Basis Set: CC-PVTZ
  Basis Set:
  @DF-RHF Final Energy:  -309.05656783847576
    Total Energy =                       -309.0565678384755302
  Basis Set: CC-PVTZ
  Basis Set:
  Basis Set: CC-PVTZ
  Basis Set:
  @DF-RHF Final Energy:  -309.14893714052215
    Total Energy =                       -309.1489371405218662
  Basis Set: CC-PVTZ
  Basis Set:
  Basis Set: CC-PVTZ
  Basis Set:
  @DF-RHF Final Energy:  -309.16647034273103
    Total Energy =                       -309.1664703427310315
  Basis Set: CC-PVTZ
  Basis Set:
  @DF-RHF Final Energy:  -309.16759299571089
    Total Energy =                       -309.1675929957110611
  @DF-RHF Final Energy:  -309.16674781420784
    Total Energy =                       -309.1667478142083496
  @DF-RHF Final Energy:  -309.16764052257935
    Total Energy =                       -309.1676405225792905
  Basis Set: CC-PVTZ
  Basis Set:
  @DF-RHF Final Energy:  -309.16761778541121
    Total Energy =                       -309.1676177854110961
  Basis Set: CC-PVTZ
  Basis Set:
  Basis Set: CC-PVTZ
  Basis Set:
  @DF-RHF Final Energy:  -309.16764308632804
    Total Energy =                       -309.1676430863275300
  Basis Set: CC-PVTZ
  Basis Set:
  Basis Set: CC-PVTZ
  Basis Set:
  @DF-RHF Final Energy:  -309.16764579382834
    Total Energy =                       -309.1676457938283420
  Basis Set: CC-PVTZ
  Basis Set:
  Charge       = 0
  Multiplicity = 1
  Basis Set: CC-PVTZ
  Basis Set:

    Orbital Energies (a.u.)
    -----------------------

    Doubly Occupied:

       1A    -20.536558     2A    -11.319071     3A    -11.229177
       4A    -11.227232     5A    -11.226863     6A    -11.223582
       7A    -11.214057     8A     -1.396748     9A     -1.088739
      10A     -1.027685    11A     -0.982105    12A     -0.903799
      13A     -0.795663    14A     -0.734246    15A     -0.663881
      16A     -0.653356    17A     -0.623589    18A     -0.605756
      19A     -0.586342    20A     -0.573020    21A     -0.552617
      22A     -0.545006    23A     -0.523919    24A     -0.504456
      25A     -0.481128    26A     -0.467525    27A     -0.458995
      28A     -0.399520

  @DF-RHF Final Energy:  -309.16764586492394

   => Energetics <=

    Nuclear Repulsion Energy =            305.3493304836422908
    One-Electron Energy =               -1023.9446864499818730
    Two-Electron Energy =                 409.4277101014155278
    DFT Exchange-Correlation Energy =       0.0000000000000000
    Empirical Dispersion Energy =           0.0000000000000000
    PCM Polarization Energy =               0.0000000000000000
    EFP Energy =                            0.0000000000000000
    Total Energy =                       -309.1676458649241113
    Molecular point group: c1
  Basis Set: CC-PVTZ
  Basis Set:

  -Total Gradient:
     Atom            X                  Y                   Z
    ------   -----------------  -----------------  -----------------
       1       -0.000008676746     0.000008842838     0.000003712124
       2        0.000006235207    -0.000012383101     0.000021010576
       3       -0.000002537098    -0.000009746658    -0.000012852340
       4        0.000022579154     0.000004698712    -0.000020328411
       5        0.001161974676    -0.000815510920    -0.002500052531
       6       -0.000000206717     0.000004491994     0.000001284770
       7        0.000004720271     0.000001016983    -0.000005045322
       8       -0.000780825502    -0.002578809233    -0.000329922514
       9       -0.000797676774     0.001410364788     0.002265616615
      10       -0.000001158758    -0.000000974586    -0.000001912134
      11        0.000415867678     0.001988164815     0.000570641446
      12       -0.000000772823     0.000000638847     0.000003012578
      13       -0.000000408358    -0.000002610913     0.000001864896
      14        0.000001783016     0.000001929407    -0.000001526014
      15       -0.000002288324     0.000001279451    -0.000002357533
      16       -0.000000085938     0.000001100498    -0.000000643106
      17       -0.000001667202     0.000000677238     0.000002448919
      18       -0.000009253708     0.000002344110     0.000004644965
      19       -0.000007602051    -0.000005514270     0.000000403015

  **** Optimization is complete! (in 11 steps) ****
    Final optimized geometry and variables:
    Molecular point group: c1

    Geometry (in Angstrom), charge = 0, multiplicity = 1:

    O           -2.087651796738    -0.332216851711    -1.031259302794
    C           -1.404692276751     0.452806077112    -0.458032020063
    C           -0.250171408678    -0.003586729884     0.412449980969
    C           -1.640862098226     1.940051918338    -0.574331677394
    C            1.000244421406    -0.235404090919    -0.451367120150
    H           -0.050692872577     0.736755102252     1.178343911321
    H           -0.554100079504    -0.922053563450     0.894334360055
    C            2.271090316929    -0.717050423942     0.296684646024
    H            1.230451185887     0.698096133822    -0.953865288827
    H            0.737179322566    -0.948189265190    -1.222011282702
    C            2.114777597704    -1.107773475378     1.765429456282
    H            2.687111402919    -1.560463760156    -0.241848957503
    H            3.021092001149     0.064563980087     0.241693047350
    H            1.418647183188    -1.927808875342     1.897484658561
    H            1.772392309081    -0.278891204047     2.372799988518
    H            3.071372611345    -1.427235525946     2.162207404421
    H           -2.375920833358     2.141032509752    -1.338428342584
    H           -0.717145675967     2.460667239043    -0.800004340236
    H           -1.997712130850     2.318187840814     0.378446395000

  Mulliken Charges: (a.u.)
   Center  Symbol    Alpha    Beta     Spin     Total
       1     O     4.17766  4.17766  0.00000 -0.35531
       2     C     2.85663  2.85663  0.00000  0.28673
       3     C     3.10119  3.10119  0.00000 -0.20237
       4     C     3.15617  3.15617  0.00000 -0.31235
       5     C     3.10824  3.10824  0.00000 -0.21649
       6     H     0.44841  0.44841  0.00000  0.10319
       7     H     0.43746  0.43746  0.00000  0.12508
       8     C     3.08806  3.08806  0.00000 -0.17612
       9     H     0.44893  0.44893  0.00000  0.10214
      10     H     0.43830  0.43830  0.00000  0.12339
      11     C     3.15675  3.15675  0.00000 -0.31350
      12     H     0.44782  0.44782  0.00000  0.10436
      13     H     0.45148  0.45148  0.00000  0.09704
      14     H     0.45087  0.45087  0.00000  0.09827
      15     H     0.45416  0.45416  0.00000  0.09168
      16     H     0.44270  0.44270  0.00000  0.11460
      17     H     0.43580  0.43580  0.00000  0.12841
      18     H     0.45095  0.45095  0.00000  0.09811
      19     H     0.44842  0.44842  0.00000  0.10315

   Total alpha = 28.00000, Total beta = 28.00000, Total charge = -0.00000

*** Psi4 exiting successfully. Buy a developer a beer!
