                              Psi4 1.0.54 Driver

  ==> Input File <==

--------------------------------------------------------------------------
set {
	reference rhf
	basis cc-pvtz
}

set_num_threads( 4 )
memory 2 gb

molecule MOL {
0 1

O	 1.216069	 1.304886	 0.000821
C	 1.121787	 0.124983	 0.000110
C	 -0.170912	 -0.649867	 -0.000147
O	 2.167739	 -0.685178	 -0.000678
C	 -1.413045	 0.229353	 0.001137
H	 -0.152877	 -1.303435	 -0.866175
H	 -0.152278	 -1.305116	 0.864586
C	 -1.073754	 1.714841	 -0.079579
H	 -1.990122	 0.032645	 0.897702
H	 -2.049011	 -0.047934	 -0.832052
C	 -2.311435	 2.605362	 -0.076684
H	 -0.433707	 1.985941	 0.755936
H	 -0.495439	 1.905754	 -0.979768
H	 -2.893101	 2.462714	 0.827695
H	 -2.040657	 3.653216	 -0.134637
H	 -2.955218	 2.382060	 -0.920639
C	 3.449556	 -0.089977	 -0.000570
H	 3.585694	 0.522473	 -0.879546
H	 4.155805	 -0.904274	 -0.001389
H	 3.586173	 0.521118	 0.879272

	symmetry c1
}
set optking {
	frozen_dihedral = ("
		9 5 3 6
	")
}

ee,wfn = optimize('scf', return_wfn=True)
oeprop( wfn, 'DIPOLE', 'QUADRUPOLE', 'MULLIKEN_CHARGES')
f=open( 'psi4out.xyz', 'w' )
f.write( "20  " )
f.write( str(ee) + "\n" )
f.write( MOL.save_string_xyz() )
f.close()
--------------------------------------------------------------------------

    Molecular point group: c1
  Charge       = 0
  Multiplicity = 1
  Basis Set: CC-PVTZ
  Basis Set:
  @DF-RHF Final Energy:  -384.04438304299077
    Total Energy =                       -384.0443830429908303
    Molecular point group: c1
  Basis Set: CC-PVTZ
  Basis Set:
  Basis Set: CC-PVTZ
  Basis Set:
  @DF-RHF Final Energy:  -384.06466222640830
    Total Energy =                       -384.0646622264085863
  Basis Set: CC-PVTZ
  Basis Set:
  Basis Set: CC-PVTZ
  Basis Set:
  @DF-RHF Final Energy:  -384.06857466469648
    Total Energy =                       -384.0685746646963707
  Basis Set: CC-PVTZ
  Basis Set:
  Basis Set: CC-PVTZ
  Basis Set:
  @DF-RHF Final Energy:  -384.06658553887610
    Total Energy =                       -384.0665855388757564
  Basis Set: CC-PVTZ
  Basis Set:
  @DF-RHF Final Energy:  -384.07015274917069
    Total Energy =                       -384.0701527491704610
  @DF-RHF Final Energy:  -384.07051620789201
    Total Energy =                       -384.0705162078916146
  @DF-RHF Final Energy:  -384.07061195801987
    Total Energy =                       -384.0706119580200948
  @DF-RHF Final Energy:  -384.07068512108214
    Total Energy =                       -384.0706851210818513
  @DF-RHF Final Energy:  -384.07077020590532
    Total Energy =                       -384.0707702059053190
  @DF-RHF Final Energy:  -384.07092615572105
    Total Energy =                       -384.0709261557211676
  @DF-RHF Final Energy:  -384.07114170159622
    Total Energy =                       -384.0711417015957068
  @DF-RHF Final Energy:  -384.07128557480331
    Total Energy =                       -384.0712855748037100
  @DF-RHF Final Energy:  -384.07157325838142
    Total Energy =                       -384.0715732583812496
  @DF-RHF Final Energy:  -384.07198730133462
    Total Energy =                       -384.0719873013345023
  @DF-RHF Final Energy:  -384.07230519522841
    Total Energy =                       -384.0723051952285232
  @DF-RHF Final Energy:  -384.07238795338861
    Total Energy =                       -384.0723879533888976
  @DF-RHF Final Energy:  -384.07244971456845
    Total Energy =                       -384.0724497145686200
  @DF-RHF Final Energy:  -384.07250909041147
    Total Energy =                       -384.0725090904113586
  @DF-RHF Final Energy:  -384.07256781904994
    Total Energy =                       -384.0725678190498229
  @DF-RHF Final Energy:  -384.07273926127266
    Total Energy =                       -384.0727392612730000
  @DF-RHF Final Energy:  -384.07290708646298
    Total Energy =                       -384.0729070864631467
  @DF-RHF Final Energy:  -384.07303613446555
    Total Energy =                       -384.0730361344654966
  @DF-RHF Final Energy:  -384.07311041218202
    Total Energy =                       -384.0731104121821318
  @DF-RHF Final Energy:  -384.07335478339309
    Total Energy =                       -384.0733547833933699
  @DF-RHF Final Energy:  -384.07349813402209
    Total Energy =                       -384.0734981340219747
  @DF-RHF Final Energy:  -384.07363064063304
    Total Energy =                       -384.0736306406336098
  @DF-RHF Final Energy:  -384.07367979559154
    Total Energy =                       -384.0736797955912607
  @DF-RHF Final Energy:  -384.07373302383741
    Total Energy =                       -384.0737330238368941
  Basis Set: CC-PVTZ
  Basis Set:
  @DF-RHF Final Energy:  -384.07375057849873
    Total Energy =                       -384.0737505784987889
  Basis Set: CC-PVTZ
  Basis Set:
  Basis Set: CC-PVTZ
  Basis Set:
  @DF-RHF Final Energy:  -384.07375499037488
    Total Energy =                       -384.0737549903748231
  Basis Set: CC-PVTZ
  Basis Set:
  Basis Set: CC-PVTZ
  Basis Set:
  @DF-RHF Final Energy:  -384.07375677840349
    Total Energy =                       -384.0737567784033217
  Basis Set: CC-PVTZ
  Basis Set:
  Charge       = 0
  Multiplicity = 1
  Basis Set: CC-PVTZ
  Basis Set:

    Orbital Energies (a.u.)
    -----------------------

    Doubly Occupied:

       1A    -20.597580     2A    -20.531729     3A    -11.363859
       4A    -11.278424     5A    -11.232276     6A    -11.228708
       7A    -11.218047     8A    -11.210569     9A     -1.471971
      10A     -1.364290    11A     -1.088546    12A     -1.023111
      13A     -0.968575    14A     -0.891039    15A     -0.814177
      16A     -0.770306    17A     -0.689586    18A     -0.681485
      19A     -0.676958    20A     -0.645378    21A     -0.595644
      22A     -0.594431    23A     -0.581506    24A     -0.556384
      25A     -0.531971    26A     -0.521803    27A     -0.511773
      28A     -0.485242    29A     -0.472641    30A     -0.467756
      31A     -0.456568    32A     -0.434392

  @DF-RHF Final Energy:  -384.07375703645596

   => Energetics <=

    Nuclear Repulsion Energy =            395.2619137616534317
    One-Electron Energy =               -1306.7578929516130302
    Two-Electron Energy =                 527.4222221535037534
    DFT Exchange-Correlation Energy =       0.0000000000000000
    Empirical Dispersion Energy =           0.0000000000000000
    PCM Polarization Energy =               0.0000000000000000
    EFP Energy =                            0.0000000000000000
    Total Energy =                       -384.0737570364558451
    Molecular point group: c1
  Basis Set: CC-PVTZ
  Basis Set:

  -Total Gradient:
     Atom            X                  Y                   Z
    ------   -----------------  -----------------  -----------------
       1        0.000002769300    -0.000000232881    -0.000004726645
       2        0.000007065380     0.000003059580     0.000006955262
       3        0.000189042976     0.000532801459    -0.000774025347
       4       -0.000014084311     0.000012129253     0.000000445835
       5        0.000394258038     0.000724313961     0.000398913851
       6       -0.000208468822    -0.000558438097     0.000580994365
       7        0.000003675763    -0.000000552375     0.000002102996
       8        0.000002484702    -0.000010731497     0.000020946478
       9       -0.000384886945    -0.000693729685    -0.000223518288
      10       -0.000002190160    -0.000009480561     0.000002423205
      11        0.000003980113     0.000005546908    -0.000010790803
      12        0.000001800960     0.000009748699    -0.000009087347
      13       -0.000008295640     0.000003049026     0.000006533365
      14        0.000005658012    -0.000002338569    -0.000001046918
      15       -0.000000814543     0.000000153369     0.000000196080
      16       -0.000005317913    -0.000002024878    -0.000001217576
      17        0.000026668720    -0.000015835867     0.000010156897
      18       -0.000012012164     0.000000656338     0.000003646719
      19       -0.000006363424     0.000000672186    -0.000005388527
      20        0.000005029961     0.000001233630    -0.000003513602

  **** Optimization is complete! (in 32 steps) ****
    Final optimized geometry and variables:
    Molecular point group: c1

    Geometry (in Angstrom), charge = 0, multiplicity = 1:

    O            1.708403728613     0.063202678740     0.872327747436
    C            1.001545387532    -0.476884959139     0.090125511753
    C           -0.128135640294    -1.405278249301     0.457165217629
    O            1.124786057736    -0.325063141798    -1.218298416172
    C           -1.502640533092    -0.706210655772     0.664258628460
    H           -0.210786822840    -2.159737162204    -0.311775995333
    H            0.171949369239    -1.893948589733     1.372206609596
    C           -1.570663817707     0.788756565556     0.353698030426
    H           -1.810846684410    -0.860947574236     1.691328086558
    H           -2.236872563341    -1.218050458299     0.052984067198
    C           -2.962988573232     1.360019980262     0.599927698047
    H           -0.850844587536     1.322459613441     0.964453440842
    H           -1.291839867997     0.960553055187    -0.680713207183
    H           -3.260917349745     1.233152608903     1.635260842632
    H           -2.993962706211     2.419594146130     0.374966803405
    H           -3.705150058832     0.868205752362    -0.020103985725
    C            2.143023551867     0.541817199863    -1.676208286610
    H            1.985583709309     1.543913971476    -1.305582651115
    H            2.083245320295     0.528984491270    -2.752431628190
    H            3.112615540334     0.194621105174    -1.351830721242

  Mulliken Charges: (a.u.)
   Center  Symbol    Alpha    Beta     Spin     Total
       1     O     4.20766  4.20766  0.00000 -0.41532
       2     C     2.79314  2.79314  0.00000  0.41373
       3     C     3.08720  3.08720  0.00000 -0.17441
       4     O     4.15436  4.15436  0.00000 -0.30872
       5     C     3.09432  3.09432  0.00000 -0.18865
       6     H     0.44190  0.44190  0.00000  0.11620
       7     H     0.43739  0.43739  0.00000  0.12522
       8     C     3.09714  3.09714  0.00000 -0.19427
       9     H     0.44839  0.44839  0.00000  0.10321
      10     H     0.44978  0.44978  0.00000  0.10044
      11     C     3.15204  3.15204  0.00000 -0.30408
      12     H     0.44242  0.44242  0.00000  0.11516
      13     H     0.44793  0.44793  0.00000  0.10414
      14     H     0.45422  0.45422  0.00000  0.09157
      15     H     0.44696  0.44696  0.00000  0.10608
      16     H     0.45548  0.45548  0.00000  0.08904
      17     C     3.04159  3.04159  0.00000 -0.08319
      18     H     0.45356  0.45356  0.00000  0.09288
      19     H     0.44496  0.44496  0.00000  0.11008
      20     H     0.44955  0.44955  0.00000  0.10090

   Total alpha = 32.00000, Total beta = 32.00000, Total charge =  0.00000

*** Psi4 exiting successfully. Buy a developer a beer!
