  ==> Input File <==

--------------------------------------------------------------------------
set {
	reference rhf
	basis 6-31G*
}

set_num_threads( 4 )
memory 2 gb

molecule MOL {
0 1

H	 0.818841	 4.522201	 -1.205410
N	 0.041293	 3.896610	 -1.292589
C	 0.321284	 2.630171	 -0.631331
H	 -0.107587	 3.754983	 -2.273715
C	 -0.899127	 1.717030	 -0.681576
H	 0.565140	 2.846033	 0.404428
H	 1.183049	 2.107016	 -1.053313
C	 -0.679275	 0.379305	 0.025956
H	 -1.739469	 2.242944	 -0.237644
H	 -1.164526	 1.534750	 -1.722572
C	 -1.903357	 -0.536963	 -0.023547
H	 -0.411094	 0.560878	 1.065648
H	 0.169923	 -0.134655	 -0.421876
C	 -3.225172	 0.228290	 0.028445
H	 -1.867824	 -1.134999	 -0.931459
H	 -1.860449	 -1.239604	 0.805977
H	 -3.313397	 0.915643	 -0.808262
H	 -4.073500	 -0.448134	 -0.008893
H	 -3.306061	 0.809945	 0.942516

	symmetry c1
}
set optking {
	frozen_dihedral = ("
		12 8 11 15
	")
}

ee = optimize('scf')
oeprop('DIPOLE', 'QUADRUPOLE', 'MULLIKEN_CHARGES')
f=open( 'psi4out.xyz', 'w' )
f.write( "19  " )
f.write( str(ee) + "\n" )
f.write( MOL.save_string_xyz() )
f.close()
--------------------------------------------------------------------------

    Molecular point group: c1
  Charge       = 0
  Multiplicity = 1
  Basis Set: 6-31G*
  Basis Set:
  @DF-RHF Final Energy:  -251.34466144795218
    Total Energy =                       -251.3446614479520349
    Molecular point group: c1
  Basis Set: 6-31G*
  Basis Set:
  Basis Set: 6-31G*
  Basis Set:
  @DF-RHF Final Energy:  -251.34583120844212
    Total Energy =                       -251.3458312084421209
  Basis Set: 6-31G*
  Basis Set:
  Basis Set: 6-31G*
  Basis Set:
  @DF-RHF Final Energy:  -251.34719370291418
    Total Energy =                       -251.3471937029141827
  Basis Set: 6-31G*
  Basis Set:
  Basis Set: 6-31G*
  Basis Set:
  @DF-RHF Final Energy:  -251.34731103814701
    Total Energy =                       -251.3473110381469269
  Basis Set: 6-31G*
  Basis Set:
  Basis Set: 6-31G*
  Basis Set:
  @DF-RHF Final Energy:  -251.34731973383472
    Total Energy =                       -251.3473197338346381
  Basis Set: 6-31G*
  Basis Set:
  Basis Set: 6-31G*
  Basis Set:
  @DF-RHF Final Energy:  -251.34732766468792
    Total Energy =                       -251.3473276646877821
  Basis Set: 6-31G*
  Basis Set:
  Basis Set: 6-31G*
  Basis Set:
  @DF-RHF Final Energy:  -251.34732910333096
    Total Energy =                       -251.3473291033310488
  Basis Set: 6-31G*
  Basis Set:
  Charge       = 0
  Multiplicity = 1
  Basis Set: 6-31G*
  Basis Set:

    Orbital Energies (a.u.)
    -----------------------

    Doubly Occupied:

       1A    -15.532461     2A    -11.239721     3A    -11.214268
       4A    -11.212911     5A    -11.209209     6A    -11.206115
       7A     -1.176575     8A     -1.070880     9A     -0.994499
      10A     -0.904839    11A     -0.825465    12A     -0.772732
      13A     -0.662622    14A     -0.641302    15A     -0.605182
      16A     -0.595963    17A     -0.582872    18A     -0.535652
      19A     -0.525222    20A     -0.504664    21A     -0.488608
      22A     -0.457938    23A     -0.451537    24A     -0.450701
      25A     -0.381138

  @DF-RHF Final Energy:  -251.34732920401078

   => Energetics <=

    Nuclear Repulsion Energy =            249.2650647436796305
    One-Electron Energy =                -832.7386348641387031
    Two-Electron Energy =                 332.1262409164482960
    DFT Exchange-Correlation Energy =       0.0000000000000000
    Empirical Dispersion Energy =           0.0000000000000000
    PCM Polarization Energy =               0.0000000000000000
    EFP Energy =                            0.0000000000000000
    Total Energy =                       -251.3473292040107481
    Molecular point group: c1
  Basis Set: 6-31G*
  Basis Set:

  -Total Gradient:
     Atom            X                  Y                   Z
    ------   -----------------  -----------------  -----------------
       1       -0.000000099911     0.000011388651    -0.000006636821
       2        0.000010058123     0.000009399047    -0.000009473699
       3       -0.000007653667    -0.000006085273     0.000011241949
       4        0.000000498223     0.000004984121    -0.000002388891
       5        0.000016280138    -0.000003951554     0.000001211502
       6        0.000004553638    -0.000004956780     0.000002728837
       7       -0.000002436605     0.000001487408     0.000000864262
       8       -0.003603626644     0.004349850454     0.000761048656
       9        0.000022534992     0.000001076413    -0.000001333000
      10       -0.000012182932    -0.000004206430     0.000000187675
      11       -0.002796751016     0.003740321774    -0.003289101387
      12        0.003479533955    -0.004249452771    -0.000126496248
      13        0.000002299696     0.000018133215     0.000008751507
      14       -0.000015763940    -0.000013068286     0.000011393293
      15        0.002911064437    -0.003851453589     0.002649556635
      16       -0.000002575809     0.000006135766    -0.000008457158
      17        0.000008347696     0.000004810500     0.000002012696
      18       -0.000007556949    -0.000005255253    -0.000005689057
      19       -0.000006523420    -0.000009157412     0.000000579247

  **** Optimization is complete! (in 8 steps) ****
    Final optimized geometry and variables:
    Molecular point group: c1

    Geometry (in Angstrom), charge = 0, multiplicity = 1:

    H            2.008418521125     3.063917741530    -0.786477513472
    N            1.198549716354     2.479598857211    -0.865479267851
    C            1.415889319643     1.203603678650    -0.198898237592
    H            1.036384447154     2.340855398854    -1.844941832330
    C            0.147831263584     0.356530064206    -0.234701394728
    H            1.678293022158     1.411625679943     0.834064680262
    H            2.245604737310     0.633597567973    -0.623968046204
    C            0.310590191291    -0.976727836921     0.495381933261
    H           -0.658783764475     0.939471531394     0.196013473416
    H           -0.124875616927     0.169147864743    -1.273386781067
    C           -0.878578955419    -1.949204892198     0.392615389061
    H            0.551417941515    -0.809592802979     1.543619319012
    H            1.184843786749    -1.487078838252     0.093860173975
    C           -2.266528058990    -1.322157862663     0.517592267975
    H           -0.800121295620    -2.521432355264    -0.528931861579
    H           -0.765249860232    -2.689229187321     1.182036344745
    H           -2.485523934436    -0.649954004042    -0.304933225627
    H           -3.032131741031    -2.091901076021     0.524201714915
    H           -2.360192696070    -0.756800858296     1.440797739545

  Mulliken Charges: (a.u.)
   Center  Symbol    Alpha    Beta     Spin     Total
       1     H     0.33249  0.33249  0.00000  0.33503
       2     N     3.92197  3.92197  0.00000 -0.84394
       3     C     3.05992  3.05992  0.00000 -0.11984
       4     H     0.33542  0.33542  0.00000  0.32916
       5     C     3.15443  3.15443  0.00000 -0.30887
       6     H     0.42081  0.42081  0.00000  0.15837
       7     H     0.43468  0.43468  0.00000  0.13063
       8     C     3.15772  3.15772  0.00000 -0.31545
       9     H     0.41011  0.41011  0.00000  0.17977
      10     H     0.42790  0.42790  0.00000  0.14421
      11     C     3.15199  3.15199  0.00000 -0.30399
      12     H     0.42263  0.42263  0.00000  0.15474
      13     H     0.42372  0.42372  0.00000  0.15255
      14     C     3.24208  3.24208  0.00000 -0.48416
      15     H     0.42288  0.42288  0.00000  0.15425
      16     H     0.42186  0.42186  0.00000  0.15627
      17     H     0.41843  0.41843  0.00000  0.16314
      18     H     0.41979  0.41979  0.00000  0.16041
      19     H     0.42115  0.42115  0.00000  0.15771

   Total alpha = 25.00000, Total beta = 25.00000, Total charge = -0.00000
