  ==> Input File <==

--------------------------------------------------------------------------
set {
	reference rhf
	basis 6-31G*
}

set_num_threads( 4 )
memory 2 gb

molecule MOL {
0 1

H	 2.465338	 -2.224223	 0.000000
O	 2.784187	 -1.332015	 0.000000
C	 1.765313	 -0.449364	 0.000000
C	 1.902644	 0.684532	 -0.794584
C	 0.619228	 -0.636162	 0.748151
H	 2.802929	 0.806809	 -1.366768
C	 0.894245	 1.624956	 -0.836980
H	 0.486833	 -1.500255	 1.368911
C	 -0.373602	 0.328070	 0.682102
H	 1.008594	 2.497397	 -1.453119
C	 -0.267244	 1.460092	 -0.094276
N	 -1.583962	 0.125580	 1.475519
H	 -1.058142	 2.180770	 -0.116806
O	 -1.651611	 -0.864094	 2.140351
O	 -2.433591	 0.960140	 1.413033

	symmetry c1
}
set optking {
	frozen_dihedral = ("
		4 3 2 1
	")
}

ee = optimize('scf')
oeprop('DIPOLE', 'QUADRUPOLE', 'MULLIKEN_CHARGES')
f=open( 'psi4out.xyz', 'w' )
f.write( "15  " )
f.write( str(ee) + "\n" )
f.write( MOL.save_string_xyz() )
f.close()
--------------------------------------------------------------------------

    Molecular point group: c1
  Charge       = 0
  Multiplicity = 1
  Basis Set: 6-31G*
  Basis Set:
  @DF-RHF Final Energy:  -509.02565376826777
    Total Energy =                       -509.0256537682671478
    Molecular point group: c1
  Basis Set: 6-31G*
  Basis Set:
  Basis Set: 6-31G*
  Basis Set:
  @DF-RHF Final Energy:  -509.02563097013808
    Total Energy =                       -509.0256309701378541
  Basis Set: 6-31G*
  Basis Set:
  Basis Set: 6-31G*
  Basis Set:
  @DF-RHF Final Energy:  -509.01617711666660
    Total Energy =                       -509.0161771166669951
  Basis Set: 6-31G*
  Basis Set:
  Basis Set: 6-31G*
  Basis Set:
  @DF-RHF Final Energy:  -509.02539705738161
    Total Energy =                       -509.0253970573814968
  Basis Set: 6-31G*
  Basis Set:
  Basis Set: 6-31G*
  Basis Set:
  @DF-RHF Final Energy:  -509.02580064545043
    Total Energy =                       -509.0258006454503175
  Basis Set: 6-31G*
  Basis Set:
  Basis Set: 6-31G*
  Basis Set:
  @DF-RHF Final Energy:  -509.02580950050901
    Total Energy =                       -509.0258095005091263
  Basis Set: 6-31G*
  Basis Set:
  Charge       = 0
  Multiplicity = 1
  Basis Set: 6-31G*
  Basis Set:

    Orbital Energies (a.u.)
    -----------------------

    Doubly Occupied:

       1A    -20.609258     2A    -20.604890     3A    -20.604471
       4A    -15.859427     5A    -11.326580     6A    -11.310640
       7A    -11.268130     8A    -11.266965     9A    -11.265726
      10A    -11.262200    11A     -1.638178    12A     -1.428542
      13A     -1.421442    14A     -1.200783    15A     -1.094934
      16A     -1.046549    17A     -0.965448    18A     -0.874802
      19A     -0.829262    20A     -0.791279    21A     -0.747264
      22A     -0.737114    23A     -0.723680    24A     -0.708355
      25A     -0.674707    26A     -0.638338    27A     -0.625232
      28A     -0.575225    29A     -0.556228    30A     -0.540881
      31A     -0.514410    32A     -0.491534    33A     -0.488954
      34A     -0.454847    35A     -0.377217    36A     -0.349120

  @DF-RHF Final Energy:  -509.02581024508930

   => Energetics <=

    Nuclear Repulsion Energy =            503.1920454716081963
    One-Electron Energy =               -1692.6904835075347364
    Two-Electron Energy =                 680.4726277908375778
    DFT Exchange-Correlation Energy =       0.0000000000000000
    Empirical Dispersion Energy =           0.0000000000000000
    PCM Polarization Energy =               0.0000000000000000
    EFP Energy =                            0.0000000000000000
    Total Energy =                       -509.0258102450889055
    Molecular point group: c1
  Basis Set: 6-31G*
  Basis Set:

  -Total Gradient:
     Atom            X                  Y                   Z
    ------   -----------------  -----------------  -----------------
       1        0.000034646974    -0.000025875580    -0.002602469356
       2       -0.000379882670    -0.000435398921     0.002562293800
       3        0.001063117334     0.001319408270     0.001572832194
       4       -0.000841403659    -0.000806178643    -0.001486256889
       5        0.000122874040    -0.000054836906    -0.000055317526
       6        0.000008937834    -0.000007243319     0.000010281249
       7        0.000118963585    -0.000046089743    -0.000072703840
       8       -0.000003633888     0.000009383808     0.000003425440
       9       -0.000072668646     0.000085643856    -0.000088573447
      10       -0.000012681416    -0.000002001756    -0.000005309934
      11       -0.000029535306    -0.000040132078     0.000139768664
      12        0.000061040204     0.000038656201     0.000058001174
      13        0.000006433010    -0.000004168075    -0.000014725474
      14       -0.000045219547     0.000023752120    -0.000030157441
      15       -0.000030987850    -0.000054919229     0.000008911385

  **** Optimization is complete! (in 7 steps) ****
    Final optimized geometry and variables:
    Molecular point group: c1

    Geometry (in Angstrom), charge = 0, multiplicity = 1:

    H            2.339691008662    -2.369125720911    -0.499346063245
    O            2.663786774407    -1.478739189479    -0.504126646672
    C            1.640951209135    -0.588846951209    -0.525717270170
    C            1.774217275897     0.540185230848    -1.322999797609
    C            0.497501792994    -0.776457623225     0.227591096819
    H            2.669969767080     0.658433053095    -1.903234098988
    C            0.769458728236     1.488830947293    -1.355156162812
    H            0.378635098051    -1.636589350313     0.855748234257
    C           -0.497240820695     0.183621339896     0.161622826936
    H            0.881219219598     2.361558743716    -1.971303079833
    C           -0.388268044921     1.320599608635    -0.611350954971
    N           -1.708669128028    -0.020058153702     0.952142839524
    H           -1.179570398949     2.041077846968    -0.630527587145
    O           -1.791919832872    -1.026221598268     1.589441998593
    O           -2.545060937861     0.829557810646     0.912839891148

  Mulliken Charges: (a.u.)
   Center  Symbol    Alpha    Beta     Spin     Total
       1     H     0.26791  0.26791  0.00000  0.46418
       2     O     4.38009  4.38009  0.00000 -0.76017
       3     C     2.80230  2.80230  0.00000  0.39540
       4     C     3.10568  3.10568  0.00000 -0.21136
       5     C     3.12659  3.12659  0.00000 -0.25318
       6     H     0.38112  0.38112  0.00000  0.23776
       7     C     3.10272  3.10272  0.00000 -0.20545
       8     H     0.36489  0.36489  0.00000  0.27022
       9     C     2.91542  2.91542  0.00000  0.16915
      10     H     0.38651  0.38651  0.00000  0.22697
      11     C     3.09457  3.09457  0.00000 -0.18914
      12     N     3.24046  3.24046  0.00000  0.51908
      13     H     0.36475  0.36475  0.00000  0.27051
      14     O     4.23477  4.23477  0.00000 -0.46954
      15     O     4.23222  4.23222  0.00000 -0.46443

   Total alpha = 36.00000, Total beta = 36.00000, Total charge =  0.00000
