  ==> Input File <==

--------------------------------------------------------------------------
set {
	reference rhf
	basis cc-pvtz
}

set_num_threads( 4 )
memory 2 gb

molecule MOL {
0 1

H	 2.845608	 -0.424090	 0.126611
O	 2.010871	 -0.865000	 0.076128
C	 1.048867	 0.053239	 0.078673
C	 -0.318151	 -0.570512	 0.000144
O	 1.283682	 1.210586	 0.136793
C	 -1.454884	 0.441630	 -0.000560
H	 -0.338220	 -1.186163	 -0.893423
H	 -0.404171	 -1.259001	 0.834700
C	 -2.822577	 -0.232186	 0.000063
H	 -1.359760	 1.084704	 -0.867077
H	 -1.359641	 1.085996	 0.864983
H	 -2.954352	 -0.858985	 -0.875745
H	 -3.615886	 0.505352	 0.000019
H	 -2.953878	 -0.858359	 0.876394

	symmetry c1
}
set optking {
	frozen_dihedral = ("
		7 4 6 10
	")
}

ee = optimize('scf')
oeprop('DIPOLE', 'QUADRUPOLE', 'MULLIKEN_CHARGES')
f=open( 'psi4out.xyz', 'w' )
f.write( "14  " )
f.write( str(ee) + "\n" )
f.write( MOL.save_string_xyz() )
f.close()
--------------------------------------------------------------------------

    Molecular point group: c1
  Charge       = 0
  Multiplicity = 1
  Basis Set: CC-PVTZ
  Basis Set:
  @DF-RHF Final Energy:  -306.00101761145544
    Total Energy =                       -306.0010176114554952
    Molecular point group: c1
  Basis Set: CC-PVTZ
  Basis Set:
  Basis Set: CC-PVTZ
  Basis Set:
  @DF-RHF Final Energy:  -306.00102234205951
    Total Energy =                       -306.0010223420599687
  Basis Set: CC-PVTZ
  Basis Set:
  Basis Set: CC-PVTZ
  Basis Set:
  @DF-RHF Final Energy:  -306.00100890213469
    Total Energy =                       -306.0010089021350268
  Basis Set: CC-PVTZ
  Basis Set:
  Basis Set: CC-PVTZ
  Basis Set:
  @DF-RHF Final Energy:  -306.00102371420411
    Total Energy =                       -306.0010237142038818
  Basis Set: CC-PVTZ
  Basis Set:
  Charge       = 0
  Multiplicity = 1
  Basis Set: CC-PVTZ
  Basis Set:

    Orbital Energies (a.u.)
    -----------------------

    Doubly Occupied:

       1A    -20.604451     2A    -20.541044     3A    -11.373972
       4A    -11.239904     5A    -11.223897     6A    -11.215372
       7A     -1.478047     8A     -1.369584     9A     -1.084468
      10A     -0.980990    11A     -0.859195    12A     -0.792881
      13A     -0.704166    14A     -0.691778    15A     -0.670227
      16A     -0.618012    17A     -0.596853    18A     -0.574607
      19A     -0.546244    20A     -0.506765    21A     -0.492265
      22A     -0.485383    23A     -0.482231    24A     -0.447649

  @DF-RHF Final Energy:  -306.00102380904787

   => Energetics <=

    Nuclear Repulsion Energy =            240.4589840222967894
    One-Electron Energy =                -893.7600412979242037
    Two-Electron Energy =                 347.3000334665796345
    DFT Exchange-Correlation Energy =       0.0000000000000000
    Empirical Dispersion Energy =           0.0000000000000000
    PCM Polarization Energy =               0.0000000000000000
    EFP Energy =                            0.0000000000000000
    Total Energy =                       -306.0010238090477515
    Molecular point group: c1
  Basis Set: CC-PVTZ
  Basis Set:

  -Total Gradient:
     Atom            X                  Y                   Z
    ------   -----------------  -----------------  -----------------
       1       -0.000001879492     0.000000491364     0.000001360750
       2       -0.000003486012     0.000003330358    -0.000005632402
       3        0.000002480511    -0.000019675661     0.000006910919
       4       -0.000517540803    -0.000571717584     0.000262992610
       5        0.000002464840     0.000014723822     0.000002290577
       6        0.000497172540     0.000555826692     0.000318875891
       7        0.000348857342     0.000387243728    -0.000276597217
       8       -0.000000574900     0.000002156577     0.000003318006
       9        0.000005550380     0.000003092403     0.000003555324
      10       -0.000327412861    -0.000370497796    -0.000316182080
      11       -0.000000581184    -0.000001957043    -0.000002279953
      12        0.000000624298     0.000000352854     0.000000946441
      13       -0.000001384666    -0.000000890342    -0.000000990943
      14       -0.000004289995    -0.000002479368     0.000001432079

  **** Optimization is complete! (in 5 steps) ****
    Final optimized geometry and variables:
    Molecular point group: c1

    Geometry (in Angstrom), charge = 0, multiplicity = 1:

    H            2.846568257695    -0.422900087405     0.069039734297
    O            2.011726524567    -0.864141736182     0.023124404040
    C            1.049718664388     0.054183339295     0.027691100856
    C           -0.317717325593    -0.570016156497    -0.043931067444
    O            1.284969391347     1.211620231948     0.082013380498
    C           -1.453653093956     0.443109272650    -0.044105382315
    H           -0.338464016946    -1.184796042234    -0.938033164389
    H           -0.400506025346    -1.256803685923     0.792198191518
    C           -2.821554435069    -0.230775155777    -0.052326054534
    H           -1.357277495776     1.086473177307    -0.910457635325
    H           -1.361815790415     1.084682960857     0.823473134239
    H           -2.947204781568    -0.859113856508    -0.927975306682
    H           -3.614799469754     0.506823778772    -0.059426015745
    H           -2.959108118642    -0.855395101059     0.824127223130

  Mulliken Charges: (a.u.)
   Center  Symbol    Alpha    Beta     Spin     Total
       1     H     0.38230  0.38230  0.00000  0.23540
       2     O     4.16012  4.16012  0.00000 -0.32024
       3     C     2.80531  2.80531  0.00000  0.38939
       4     C     3.10547  3.10547  0.00000 -0.21094
       5     O     4.19094  4.19094  0.00000 -0.38187
       6     C     3.07935  3.07935  0.00000 -0.15869
       7     H     0.43860  0.43860  0.00000  0.12280
       8     H     0.43909  0.43909  0.00000  0.12183
       9     C     3.15031  3.15031  0.00000 -0.30063
      10     H     0.44691  0.44691  0.00000  0.10619
      11     H     0.44545  0.44545  0.00000  0.10911
      12     H     0.45559  0.45559  0.00000  0.08881
      13     H     0.44513  0.44513  0.00000  0.10973
      14     H     0.45544  0.45544  0.00000  0.08912

   Total alpha = 24.00000, Total beta = 24.00000, Total charge = -0.00000
