  ==> Input File <==

--------------------------------------------------------------------------
set {
	reference rhf
	basis cc-pvtz
}

set_num_threads( 4 )
memory 2 gb

molecule MOL {
0 1

H	 2.828711	 -0.346904	 0.001083
C	 1.876752	 0.015931	 -0.363450
C	 0.776285	 -0.474665	 0.563092
H	 1.728113	 -0.357244	 -1.367440
H	 1.906171	 1.096574	 -0.386153
N	 -0.540022	 0.017605	 0.071630
H	 0.707111	 -1.548969	 0.573035
H	 0.886169	 -0.084184	 1.560432
O	 -1.351773	 -0.797287	 -0.213339
O	 -0.676689	 1.190523	 -0.028277

	symmetry c1
}
set optking {
	frozen_dihedral = ("
		9 6 3 2
	")
}

ee = optimize('scf')
oeprop('DIPOLE', 'QUADRUPOLE', 'MULLIKEN_CHARGES')
f=open( 'psi4out.xyz', 'w' )
f.write( "10  " )
f.write( str(ee) + "\n" )
f.write( MOL.save_string_xyz() )
f.close()
--------------------------------------------------------------------------

    Molecular point group: c1
  Charge       = 0
  Multiplicity = 1
  Basis Set: CC-PVTZ
  Basis Set:
  @DF-RHF Final Energy:  -282.81297846744201
    Total Energy =                       -282.8129784674421217
    Molecular point group: c1
  Basis Set: CC-PVTZ
  Basis Set:
  Basis Set: CC-PVTZ
  Basis Set:
  @DF-RHF Final Energy:  -282.80828348237753
    Total Energy =                       -282.8082834823774760
  Basis Set: CC-PVTZ
  Basis Set:
  Basis Set: CC-PVTZ
  Basis Set:
  @DF-RHF Final Energy:  -282.81303515001127
    Total Energy =                       -282.8130351500112738
  Basis Set: CC-PVTZ
  Basis Set:
  Basis Set: CC-PVTZ
  Basis Set:
  @DF-RHF Final Energy:  -282.81322462377727
    Total Energy =                       -282.8132246237772733
  Basis Set: CC-PVTZ
  Basis Set:
  Basis Set: CC-PVTZ
  Basis Set:
  @DF-RHF Final Energy:  -282.81322605349453
    Total Energy =                       -282.8132260534944749
  Basis Set: CC-PVTZ
  Basis Set:
  Charge       = 0
  Multiplicity = 1
  Basis Set: CC-PVTZ
  Basis Set:

    Orbital Energies (a.u.)
    -----------------------

    Doubly Occupied:

       1A    -20.594052     2A    -20.590327     3A    -15.838753
       4A    -11.302166     5A    -11.248598     6A     -1.638025
       7A     -1.422361     8A     -1.125596     9A     -0.966915
      10A     -0.838543    11A     -0.764361    12A     -0.741996
      13A     -0.730728    14A     -0.655634    15A     -0.590869
      16A     -0.562205    17A     -0.544766    18A     -0.489298
      19A     -0.479387    20A     -0.455436

  @DF-RHF Final Energy:  -282.81322665810058

   => Energetics <=

    Nuclear Repulsion Energy =            186.6653341582010910
    One-Electron Energy =                -755.7970886106786566
    Two-Electron Energy =                 286.3185277943770188
    DFT Exchange-Correlation Energy =       0.0000000000000000
    Empirical Dispersion Energy =           0.0000000000000000
    PCM Polarization Energy =               0.0000000000000000
    EFP Energy =                            0.0000000000000000
    Total Energy =                       -282.8132266581005752
    Molecular point group: c1
  Basis Set: CC-PVTZ
  Basis Set:

  -Total Gradient:
     Atom            X                  Y                   Z
    ------   -----------------  -----------------  -----------------
       1        0.000001771438    -0.000001262188     0.000003232938
       2        0.000020891311     0.000150945169     0.000082562440
       3       -0.000063454669    -0.000209325223    -0.000045347770
       4       -0.000002485959     0.000001705444     0.000011712766
       5        0.000001664530     0.000004416140    -0.000005148541
       6        0.000144691210     0.000163565187    -0.000241564724
       7       -0.000007586633    -0.000001465500    -0.000000134643
       8        0.000004873890     0.000006148127    -0.000005563730
       9       -0.000113520227    -0.000040631878     0.000197299244
      10        0.000013155108    -0.000074095279     0.000002952020

  **** Optimization is complete! (in 6 steps) ****
    Final optimized geometry and variables:
    Molecular point group: c1

    Geometry (in Angstrom), charge = 0, multiplicity = 1:

    H            2.839743260343    -0.356303389813     0.004168597468
    C            1.895685270556     0.019441625271    -0.368652318934
    C            0.784978306480    -0.464885295098     0.544853243664
    H            1.756843203305    -0.350944958354    -1.376234059600
    H            1.934149163810     1.097912511715    -0.391973747580
    N           -0.541662735812     0.018161334988     0.065587577302
    H            0.712046261983    -1.537284992365     0.580286649491
    H            0.888589263297    -0.063237521546     1.541388431466
    O           -1.352953218751    -0.797388859476    -0.215352506934
    O           -0.696324299862     1.191910193344     0.003205505238

  Mulliken Charges: (a.u.)
   Center  Symbol    Alpha    Beta     Spin     Total
       1     H     0.44854  0.44854  0.00000  0.10293
       2     C     3.14138  3.14138  0.00000 -0.28277
       3     C     3.03817  3.03817  0.00000 -0.07635
       4     H     0.44474  0.44474  0.00000  0.11052
       5     H     0.43689  0.43689  0.00000  0.12623
       6     N     3.27789  3.27789  0.00000  0.44422
       7     H     0.43234  0.43234  0.00000  0.13532
       8     H     0.43724  0.43724  0.00000  0.12553
       9     O     4.16839  4.16839  0.00000 -0.33677
      10     O     4.17443  4.17443  0.00000 -0.34886

   Total alpha = 20.00000, Total beta = 20.00000, Total charge =  0.00000
