  ==> Input File <==

--------------------------------------------------------------------------
set {
	reference rhf
	basis 6-31G*
}

set_num_threads( 4 )
memory 2 gb

molecule MOL {
0 1

H	 1.104027	 -0.512015	 -1.222626
O	 1.654024	 -0.625927	 -0.460906
C	 1.135793	 0.118896	 0.612333
C	 0.031547	 1.023609	 0.088541
H	 1.915668	 0.729681	 1.063582
H	 0.754543	 -0.542641	 1.387006
C	 -1.134819	 0.293262	 -0.585751
H	 0.474374	 1.714721	 -0.623187
H	 -0.338529	 1.620940	 0.920081
C	 -1.917817	 -0.639439	 0.339494
H	 -0.758119	 -0.268455	 -1.433105
H	 -1.813832	 1.041889	 -0.986690
H	 -2.777680	 -1.057197	 -0.174994
H	 -1.310268	 -1.471279	 0.680599
H	 -2.283753	 -0.111424	 1.216626

	symmetry c1
}
set optking {
	frozen_dihedral = ("
		1 2 3 4
	")
}

ee = optimize('scf')
oeprop('DIPOLE', 'QUADRUPOLE', 'MULLIKEN_CHARGES')
f=open( 'psi4out.xyz', 'w' )
f.write( "15  " )
f.write( str(ee) + "\n" )
f.write( MOL.save_string_xyz() )
f.close()
--------------------------------------------------------------------------

    Molecular point group: c1
  Charge       = 0
  Multiplicity = 1
  Basis Set: 6-31G*
  Basis Set:
  @DF-RHF Final Energy:  -232.13783499293646
    Total Energy =                       -232.1378349929365186
    Molecular point group: c1
  Basis Set: 6-31G*
  Basis Set:
  Basis Set: 6-31G*
  Basis Set:
  @DF-RHF Final Energy:  -232.13931254582960
    Total Energy =                       -232.1393125458298528
  Basis Set: 6-31G*
  Basis Set:
  Basis Set: 6-31G*
  Basis Set:
  @DF-RHF Final Energy:  -232.14029971573791
    Total Energy =                       -232.1402997157377968
  Basis Set: 6-31G*
  Basis Set:
  Basis Set: 6-31G*
  Basis Set:
  @DF-RHF Final Energy:  -232.14028319487991
    Total Energy =                       -232.1402831948799985
  Basis Set: 6-31G*
  Basis Set:
  Basis Set: 6-31G*
  Basis Set:
  @DF-RHF Final Energy:  -232.14037576746969
    Total Energy =                       -232.1403757674695498
  Basis Set: 6-31G*
  Basis Set:
  Basis Set: 6-31G*
  Basis Set:
  @DF-RHF Final Energy:  -232.14038400543600
    Total Energy =                       -232.1403840054360330
  Basis Set: 6-31G*
  Basis Set:
  Basis Set: 6-31G*
  Basis Set:
  @DF-RHF Final Energy:  -232.14038510175439
    Total Energy =                       -232.1403851017546458
  Basis Set: 6-31G*
  Basis Set:
  Charge       = 0
  Multiplicity = 1
  Basis Set: 6-31G*
  Basis Set:

    Orbital Energies (a.u.)
    -----------------------

    Doubly Occupied:

       1A    -20.548794     2A    -11.266044     3A    -11.228801
       4A    -11.225320     5A    -11.215762     6A     -1.356286
       7A     -1.075380     8A     -0.977034     9A     -0.883539
      10A     -0.793834    11A     -0.673363    12A     -0.649014
      13A     -0.631079    14A     -0.586516    15A     -0.577837
      16A     -0.548977    17A     -0.506779    18A     -0.485031
      19A     -0.482368    20A     -0.457902    21A     -0.428474

  @DF-RHF Final Energy:  -232.14038551855580

   => Energetics <=

    Nuclear Repulsion Energy =            191.4683948110596532
    One-Electron Energy =                -694.0212953343802837
    Two-Electron Energy =                 270.4125150047648845
    DFT Exchange-Correlation Energy =       0.0000000000000000
    Empirical Dispersion Energy =           0.0000000000000000
    PCM Polarization Energy =               0.0000000000000000
    EFP Energy =                            0.0000000000000000
    Total Energy =                       -232.1403855185557745
    Molecular point group: c1
  Basis Set: 6-31G*
  Basis Set:

  -Total Gradient:
     Atom            X                  Y                   Z
    ------   -----------------  -----------------  -----------------
       1        0.000171663949     0.000262909709    -0.000074596578
       2       -0.000271880853    -0.000387250081     0.000138580916
       3        0.000231151444     0.000290161026    -0.000077138572
       4       -0.000145621757    -0.000150880161     0.000035781245
       5        0.000004802698    -0.000005828563    -0.000005165866
       6        0.000006306034    -0.000006964262    -0.000012281768
       7       -0.000003079926     0.000004156157    -0.000002937302
       8        0.000001681510    -0.000003682005     0.000000856803
       9        0.000003618678     0.000001141205     0.000001755468
      10        0.000005969960    -0.000002918244     0.000000645585
      11       -0.000003753590    -0.000004319179    -0.000001510123
      12       -0.000002030252     0.000002822909    -0.000003065897
      13        0.000001114442     0.000002451578    -0.000000838889
      14       -0.000001976488    -0.000002041328     0.000001503413
      15        0.000002034149     0.000000241237    -0.000001588434

  **** Optimization is complete! (in 8 steps) ****
    Final optimized geometry and variables:
    Molecular point group: c1

    Geometry (in Angstrom), charge = 0, multiplicity = 1:

    H            1.299052041621    -0.568474737093    -1.224868330894
    O            1.773405003016    -0.639870356418    -0.410821214526
    C            1.137897841012     0.105898929272     0.598919792539
    C            0.021704905593     1.010880420280     0.086068914711
    H            1.895097410177     0.715625088430     1.079854947553
    H            0.754868648409    -0.578539720212     1.349359719557
    C           -1.165108256012     0.292924479007    -0.572534705519
    H            0.449927000705     1.716689672688    -0.623102963093
    H           -0.343384470010     1.600772194215     0.923776060621
    C           -1.935388345060    -0.642738623436     0.360003608232
    H           -0.833335465977    -0.268224299866    -1.444468120379
    H           -1.843717828900     1.049584412156    -0.956525516306
    H           -2.809445790716    -1.047481445296    -0.140059027218
    H           -1.327795053681    -1.480824529123     0.683625718570
    H           -2.276600199413    -0.116043040818     1.246966489586

  Mulliken Charges: (a.u.)
   Center  Symbol    Alpha    Beta     Spin     Total
       1     H     0.27767  0.27767  0.00000  0.44466
       2     O     4.37953  4.37953  0.00000 -0.75905
       3     C     2.97851  2.97851  0.00000  0.04298
       4     C     3.18692  3.18692  0.00000 -0.37383
       5     H     0.42110  0.42110  0.00000  0.15781
       6     H     0.42571  0.42571  0.00000  0.14859
       7     C     3.15755  3.15755  0.00000 -0.31509
       8     H     0.41643  0.41643  0.00000  0.16715
       9     H     0.41756  0.41756  0.00000  0.16488
      10     C     3.24269  3.24269  0.00000 -0.48538
      11     H     0.42850  0.42850  0.00000  0.14300
      12     H     0.41572  0.41572  0.00000  0.16856
      13     H     0.41686  0.41686  0.00000  0.16628
      14     H     0.41455  0.41455  0.00000  0.17089
      15     H     0.42072  0.42072  0.00000  0.15857

   Total alpha = 21.00000, Total beta = 21.00000, Total charge = -0.00000
