                              Psi4 1.0.54 Driver

  ==> Input File <==

--------------------------------------------------------------------------
set {
	reference rhf
	basis cc-pvtz
}

set_num_threads( 4 )
memory 2 gb

molecule MOL {
0 1

H	 2.614283	 2.028610	 0.296620
O	 3.358864	 1.662087	 -0.142800
C	 3.565468	 0.338079	 0.273842
C	 2.533667	 -0.637565	 -0.272227
H	 4.548038	 0.064914	 -0.086598
H	 3.593945	 0.282242	 1.360360
C	 2.475399	 -1.970131	 0.471226
H	 1.558623	 -0.160395	 -0.244717
H	 2.766812	 -0.819414	 -1.318636
C	 1.452172	 -2.935549	 -0.125273
H	 2.236218	 -1.788941	 1.513803
H	 3.458994	 -2.436463	 0.452194
C	 1.403427	 -4.314708	 0.534878
H	 0.465161	 -2.481577	 -0.081165
H	 1.676624	 -3.067729	 -1.180080
C	 0.893882	 -4.324563	 1.975019
H	 0.761735	 -4.956198	 -0.062826
H	 2.393587	 -4.763678	 0.500731
C	 0.769697	 -5.731165	 2.555071
H	 -0.076702	 -3.834793	 2.014537
H	 1.554863	 -3.741614	 2.609273
C	 0.264774	 -5.744438	 3.994088
H	 0.099121	 -6.317737	 1.933106
H	 1.736712	 -6.224906	 2.508546
H	 -0.715753	 -5.285974	 4.069026
H	 0.185845	 -6.756765	 4.373655
H	 0.934554	 -5.197319	 4.649379

	symmetry c1
}
set optking {
	frozen_dihedral = ("
		8 4 3 2
	")
}

ee,wfn = optimize('scf', return_wfn=True)
oeprop( wfn, 'DIPOLE', 'QUADRUPOLE', 'MULLIKEN_CHARGES')
f=open( 'psi4out.xyz', 'w' )
f.write( "27  " )
f.write( str(ee) + "\n" )
f.write( MOL.save_string_xyz() )
f.close()
--------------------------------------------------------------------------

    Molecular point group: c1
  Charge       = 0
  Multiplicity = 1
  Basis Set: CC-PVTZ
  Basis Set:
  @DF-RHF Final Energy:  -388.42644390443377
    Total Energy =                       -388.4264439044335404
    Molecular point group: c1
  Basis Set: CC-PVTZ
  Basis Set:
  Basis Set: CC-PVTZ
  Basis Set:
  @DF-RHF Final Energy:  -388.42678655398907
    Total Energy =                       -388.4267865539891318
  Basis Set: CC-PVTZ
  Basis Set:
  Basis Set: CC-PVTZ
  Basis Set:
  @DF-RHF Final Energy:  -388.42683997686993
    Total Energy =                       -388.4268399768697009
  Basis Set: CC-PVTZ
  Basis Set:
  Basis Set: CC-PVTZ
  Basis Set:
  @DF-RHF Final Energy:  -388.42684654007383
    Total Energy =                       -388.4268465400733703
  Basis Set: CC-PVTZ
  Basis Set:
  Charge       = 0
  Multiplicity = 1
  Basis Set: CC-PVTZ
  Basis Set:

    Orbital Energies (a.u.)
    -----------------------

    Doubly Occupied:

       1A    -20.544900     2A    -11.264818     3A    -11.216798
       4A    -11.214659     5A    -11.214473     6A    -11.213763
       7A    -11.212990     8A    -11.211709     9A    -11.207311
      10A     -1.363277    11A     -1.096632    12A     -1.063457
      13A     -1.012447    14A     -0.946334    15A     -0.884773
      16A     -0.824871    17A     -0.805254    18A     -0.778832
      19A     -0.692489    20A     -0.649407    21A     -0.644770
      22A     -0.609140    23A     -0.607687    24A     -0.586744
      25A     -0.573495    26A     -0.555862    27A     -0.546126
      28A     -0.521561    29A     -0.511901    30A     -0.499679
      31A     -0.482553    32A     -0.476358    33A     -0.464366
      34A     -0.460635    35A     -0.454082    36A     -0.444491
      37A     -0.424269

  @DF-RHF Final Energy:  -388.42684697053483

   => Energetics <=

    Nuclear Repulsion Energy =            454.1676132684708591
    One-Electron Energy =               -1426.6230858994224491
    Two-Electron Energy =                 584.0286256604159689
    DFT Exchange-Correlation Energy =       0.0000000000000000
    Empirical Dispersion Energy =           0.0000000000000000
    PCM Polarization Energy =               0.0000000000000000
    EFP Energy =                            0.0000000000000000
    Total Energy =                       -388.4268469705356210
    Molecular point group: c1
  Basis Set: CC-PVTZ
  Basis Set:

  -Total Gradient:
     Atom            X                  Y                   Z
    ------   -----------------  -----------------  -----------------
       1       -0.000024478501     0.000029372507    -0.000005293684
       2       -0.001855278783     0.000442701162     0.002620401910
       3        0.002716336907    -0.000464914950    -0.004375624077
       4       -0.001469280253    -0.001621099895     0.005539109669
       5        0.000015093903     0.000013764632    -0.000019212177
       6       -0.000033691002     0.000063741479     0.000000844839
       7       -0.000020319972     0.000038772482    -0.000065658073
       8        0.000580444509     0.001464663473    -0.003667160943
       9        0.000049520638    -0.000009391441    -0.000021201773
      10        0.000013430477    -0.000017845314     0.000000418040
      11       -0.000008131138    -0.000003977668     0.000023056363
      12        0.000029059365     0.000007208807    -0.000021411328
      13       -0.000034838160     0.000011852834     0.000010075709
      14        0.000005282216    -0.000004132459    -0.000007621304
      15        0.000010491044     0.000000388078    -0.000000396129
      16        0.000010232461     0.000007838768    -0.000003703235
      17       -0.000005148799     0.000008554963    -0.000001944724
      18       -0.000003386192     0.000004342437    -0.000004980974
      19        0.000004930026    -0.000001483456     0.000003909413
      20        0.000009416405    -0.000004697564    -0.000003275934
      21        0.000015810700     0.000035621353     0.000002333593
      22       -0.000004471242     0.000000039643    -0.000001310088
      23       -0.000000138629    -0.000001311344    -0.000001002903
      24        0.000000664679     0.000000608896     0.000000155412
      25       -0.000000502649     0.000000599848     0.000001878287
      26       -0.000001148400    -0.000001065868    -0.000000340820
      27        0.000000100389    -0.000000151409    -0.000002045069

  **** Optimization is complete! (in 5 steps) ****
    Final optimized geometry and variables:
    Molecular point group: c1

    Geometry (in Angstrom), charge = 0, multiplicity = 1:

    H            0.629056734393     4.542879641608    -0.828103869078
    O            1.459075359384     4.232994032512    -1.141209881656
    C            1.657773694271     2.909035519868    -0.726039056364
    C            0.619740658930     1.944982118795    -1.288466625858
    H            2.649977060921     2.632729652437    -1.056758993746
    H            1.656851228505     2.857714681247     0.361229945412
    C            0.576037703084     0.609827389523    -0.553711356527
    H           -0.355294296047     2.427435338258    -1.268789096332
    H            0.832743570567     1.779531676424    -2.340827422943
    C           -0.419557327829    -0.374342658535    -1.164976541796
    H            0.331599545106     0.787807025727     0.488541365912
    H            1.568373826961     0.163366042340    -0.562390863906
    C           -0.446336906914    -1.755842198296    -0.508641198926
    H           -1.416957089779     0.058010935414    -1.131136816449
    H           -0.180608101602    -0.498674814492    -2.217279574452
    C           -0.962513996610    -1.778806226741     0.928903586697
    H           -1.072844406518    -2.407661826539    -1.111181313527
    H            0.552209280306    -2.185809783342    -0.538810333841
    C           -1.061760199708    -3.188687201323     1.505631319651
    H           -1.943107319549    -1.308844381519     0.964354943132
    H           -0.316283184602    -1.184086919914     1.567240038270
    C           -1.573713566133    -3.214929760267     2.941928533258
    H           -1.717143385710    -3.787421079388     0.879093083819
    H           -0.084837357316    -3.662699818916     1.463349612793
    H           -2.563969015471    -2.777093428287     3.012525988585
    H           -1.633658021303    -4.229276238789     3.319462746455
    H           -0.918771116554    -2.655203235347     3.601480461555

  Mulliken Charges: (a.u.)
   Center  Symbol    Alpha    Beta     Spin     Total
       1     H     0.39492  0.39492  0.00000  0.21015
       2     O     4.20208  4.20208  0.00000 -0.40416
       3     C     2.96759  2.96759  0.00000  0.06482
       4     C     3.09431  3.09431  0.00000 -0.18863
       5     H     0.45237  0.45237  0.00000  0.09525
       6     H     0.47385  0.47385  0.00000  0.05229
       7     C     3.10145  3.10145  0.00000 -0.20289
       8     H     0.46041  0.46041  0.00000  0.07918
       9     H     0.45056  0.45056  0.00000  0.09888
      10     C     3.09923  3.09923  0.00000 -0.19846
      11     H     0.45250  0.45250  0.00000  0.09500
      12     H     0.45305  0.45305  0.00000  0.09390
      13     C     3.09794  3.09794  0.00000 -0.19588
      14     H     0.45306  0.45306  0.00000  0.09389
      15     H     0.44677  0.44677  0.00000  0.10647
      16     C     3.08823  3.08823  0.00000 -0.17646
      17     H     0.44806  0.44806  0.00000  0.10387
      18     H     0.45339  0.45339  0.00000  0.09323
      19     C     3.08399  3.08399  0.00000 -0.16797
      20     H     0.45533  0.45533  0.00000  0.08933
      21     H     0.45378  0.45378  0.00000  0.09243
      22     C     3.14973  3.14973  0.00000 -0.29946
      23     H     0.45389  0.45389  0.00000  0.09222
      24     H     0.45441  0.45441  0.00000  0.09117
      25     H     0.45532  0.45532  0.00000  0.08937
      26     H     0.44824  0.44824  0.00000  0.10353
      27     H     0.45553  0.45553  0.00000  0.08894

   Total alpha = 37.00000, Total beta = 37.00000, Total charge =  0.00000

*** Psi4 exiting successfully. Buy a developer a beer!
