  ==> Input File <==

--------------------------------------------------------------------------
set {
	reference rhf
	basis 6-31G*
}

set_num_threads( 1 )
memory 2 gb

molecule MOL {
0 1

O	 -1.962389	 0.486211	 0.843954
C	 -1.083277	 0.139568	 0.115197
C	 0.323299	 -0.082943	 0.642902
C	 -1.314556	 -0.070442	 -1.364747
C	 1.355627	 -0.005344	 -0.493127
H	 0.396251	 -1.044647	 1.143147
H	 0.528637	 0.693580	 1.371677
C	 2.786168	 -0.195604	 0.007473
H	 1.132807	 -0.760304	 -1.243899
H	 1.259610	 0.958506	 -0.981915
H	 3.495561	 -0.130713	 -0.811210
H	 2.912696	 -1.165395	 0.480041
H	 3.049284	 0.565503	 0.735850
H	 -0.582323	 0.477472	 -1.950660
H	 -2.312274	 0.248613	 -1.632137
H	 -1.195607	 -1.123271	 -1.606837

	symmetry c1
}
set optking {
	frozen_dihedral = ("
		9 5 3 2
	")
}

ee = energy('scf')
oeprop('DIPOLE', 'QUADRUPOLE', 'MULLIKEN_CHARGES')
f=open( 'psi4out.xyz', 'w' )
f.write( "16  " )
f.write( str(ee) + "\n" )
f.write( MOL.save_string_xyz() )
f.close()
--------------------------------------------------------------------------

    Molecular point group: c1

    Geometry (in Angstrom), charge = 0, multiplicity = 1:

       Center              X                  Y                   Z               Mass
    ------------   -----------------  -----------------  -----------------  -----------------
           O         -1.987617386784     0.440795611121     0.892050009113    15.994914619560
           C         -1.108505386784     0.094152611121     0.163293009113    12.000000000000
           C          0.298070613216    -0.128358388879     0.690998009113    12.000000000000
           C         -1.339784386784    -0.115857388879    -1.316650990887    12.000000000000
           C          1.330398613216    -0.050759388879    -0.445030990887    12.000000000000
           H          0.371022613216    -1.090062388879     1.191243009113     1.007825032070
           H          0.503408613216     0.648164611121     1.419773009113     1.007825032070
           C          2.760939613216    -0.241019388879     0.055569009113    12.000000000000
           H          1.107578613216    -0.805719388879    -1.195802990887     1.007825032070
           H          1.234381613216     0.913090611121    -0.933818990887     1.007825032070
           H          3.470332613216    -0.176128388879    -0.763113990887     1.007825032070
           H          2.887467613216    -1.210810388879     0.528137009113     1.007825032070
           H          3.024055613216     0.520087611121     0.783946009113     1.007825032070
           H         -0.607551386784     0.432056611121    -1.902563990887     1.007825032070
           H         -2.337502386784     0.203197611121    -1.584040990887     1.007825032070
           H         -1.220835386784    -1.168686388879    -1.558740990887     1.007825032070

  Charge       = 0
  Multiplicity = 1
  Basis Set: 6-31G*
  Basis Set:

    Orbital Energies (a.u.)
    -----------------------

    Doubly Occupied:

       1A    -20.546911     2A    -11.325211     3A    -11.233308
       4A    -11.231486     5A    -11.226940     6A    -11.220746
       7A     -1.392678     8A     -1.089972     9A     -1.008189
      10A     -0.951570    11A     -0.833891    12A     -0.734492
      13A     -0.659779    14A     -0.654587    15A     -0.624950
      16A     -0.597254    17A     -0.576865    18A     -0.556309
      19A     -0.540783    20A     -0.517264    21A     -0.505107
      22A     -0.486535    23A     -0.471797    24A     -0.397744

  @DF-RHF Final Energy:  -270.02376761498749

   => Energetics <=

    Nuclear Repulsion Energy =            238.6436953836467012
    One-Electron Energy =                -838.5662583948596875
    Two-Electron Energy =                 329.8987953962258644
    DFT Exchange-Correlation Energy =       0.0000000000000000
    Empirical Dispersion Energy =           0.0000000000000000
    PCM Polarization Energy =               0.0000000000000000
    EFP Energy =                            0.0000000000000000
    Total Energy =                       -270.0237676149871504

  Mulliken Charges: (a.u.)
   Center  Symbol    Alpha    Beta     Spin     Total
       1     O     4.26272  4.26272  0.00000 -0.52544
       2     C     2.73382  2.73382  0.00000  0.53235
       3     C     3.20056  3.20056  0.00000 -0.40113
       4     C     3.29612  3.29612  0.00000 -0.59224
       5     C     3.17104  3.17104  0.00000 -0.34209
       6     H     0.40219  0.40219  0.00000  0.19561
       7     H     0.39924  0.39924  0.00000  0.20153
       8     C     3.23835  3.23835  0.00000 -0.47671
       9     H     0.41697  0.41697  0.00000  0.16606
      10     H     0.41704  0.41704  0.00000  0.16591
      11     H     0.41632  0.41632  0.00000  0.16735
      12     H     0.41966  0.41966  0.00000  0.16068
      13     H     0.41848  0.41848  0.00000  0.16303
      14     H     0.40545  0.40545  0.00000  0.18909
      15     H     0.39541  0.39541  0.00000  0.20917
      16     H     0.40659  0.40659  0.00000  0.18681

   Total alpha = 24.00000, Total beta = 24.00000, Total charge = -0.00000
