  ==> Input File <==

--------------------------------------------------------------------------
set {
	reference rhf
	basis cc-pvtz
}

set_num_threads( 4 )
memory 2 gb

molecule MOL {
0 1

H	 -2.117000	 -2.267000	 0.000000
O	 -2.427000	 -1.371000	 -0.000000
C	 -1.399000	 -0.499000	 -0.000000
C	 -1.712000	 0.856000	 -0.000000
C	 -0.078000	 -0.904000	 -0.000000
H	 -2.746000	 1.147000	 0.000000
C	 -0.702000	 1.796000	 -0.000000
H	 0.178000	 -1.948000	 -0.000000
C	 0.930000	 0.058000	 0.000000
H	 -0.952000	 2.841000	 0.000000
C	 0.630000	 1.409000	 0.000000
C	 2.310000	 -0.374000	 0.000000
H	 1.418000	 2.139000	 0.000000
N	 3.394000	 -0.715000	 0.000000

	symmetry c1
}
ee = optimize('scf')
oeprop('DIPOLE', 'QUADRUPOLE', 'MULLIKEN_CHARGES')
f=open( 'psi4out.xyz', 'w' )
f.write( "14  " )
f.write( str(ee) + "\n" )
f.write( MOL.save_string_xyz() )
f.close()
--------------------------------------------------------------------------

    Molecular point group: c1
  Charge       = 0
  Multiplicity = 1
  Basis Set: CC-PVTZ
  Basis Set:
  @DF-RHF Final Energy:  -397.43262661536039
    Total Energy =                       -397.4326266153602774
    Molecular point group: c1
  Basis Set: CC-PVTZ
  Basis Set:
  Basis Set: CC-PVTZ
  Basis Set:
  @DF-RHF Final Energy:  -397.43298135273125
    Total Energy =                       -397.4329813527313036
  Basis Set: CC-PVTZ
  Basis Set:
  Charge       = 0
  Multiplicity = 1
  Basis Set: CC-PVTZ
  Basis Set:

    Orbital Energies (a.u.)
    -----------------------

    Doubly Occupied:

       1A    -20.607211     2A    -15.565766     3A    -11.325200
       4A    -11.293076     5A    -11.269213     6A    -11.261048
       7A    -11.260380     8A    -11.255911     9A    -11.251832
      10A     -1.439517    11A     -1.238775    12A     -1.186980
      13A     -1.067084    14A     -1.042590    15A     -0.900029
      16A     -0.872053    17A     -0.783058    18A     -0.731275
      19A     -0.702664    20A     -0.668776    21A     -0.629387
      22A     -0.621025    23A     -0.598311    24A     -0.566396
      25A     -0.553859    26A     -0.545491    27A     -0.530394
      28A     -0.479894    29A     -0.479651    30A     -0.368246
      31A     -0.341688

  @DF-RHF Final Energy:  -397.43298637792520

   => Energetics <=

    Nuclear Repulsion Energy =            380.5412432411742429
    One-Electron Energy =               -1293.0748946723006156
    Two-Electron Energy =                 515.1006650532010553
    DFT Exchange-Correlation Energy =       0.0000000000000000
    Empirical Dispersion Energy =           0.0000000000000000
    PCM Polarization Energy =               0.0000000000000000
    EFP Energy =                            0.0000000000000000
    Total Energy =                       -397.4329863779253174
    Molecular point group: c1
  Basis Set: CC-PVTZ
  Basis Set:

  -Total Gradient:
     Atom            X                  Y                   Z
    ------   -----------------  -----------------  -----------------
       1       -0.000065449773     0.000032722534     0.000000000063
       2       -0.000138951466    -0.000238299027     0.000000000104
       3        0.000261430441     0.000087994952     0.000000001948
       4       -0.000001776755     0.000150871583    -0.000000000311
       5       -0.000207069796    -0.000139932485    -0.000000001910
       6        0.000009173673    -0.000034220817    -0.000000000160
       7       -0.000151987034     0.000044964323     0.000000002065
       8        0.000020111004     0.000027153052    -0.000000000615
       9        0.000123080371     0.000188345465    -0.000000030085
      10        0.000006020992     0.000003574487     0.000000000196
      11        0.000119006997    -0.000063990902    -0.000000001806
      12        0.000229180331    -0.000142553655     0.000000066562
      13       -0.000007190348    -0.000017011889    -0.000000000763
      14       -0.000195578634     0.000100382383    -0.000000035289

  **** Optimization is complete! (in 3 steps) ****
    Final optimized geometry and variables:
    Molecular point group: c1

    Geometry (in Angstrom), charge = 0, multiplicity = 1:

    H           -2.149496092799    -2.244166540372     0.000000006162
    O           -2.454377941515    -1.354527535584    -0.000000031839
    C           -1.430628048692    -0.482076855828     0.000000011970
    C           -1.742547136174     0.869728318994    -0.000000036446
    C           -0.111838772229    -0.884588876529     0.000000101466
    H           -2.773788824140     1.162250788449    -0.000000105951
    C           -0.735212123276     1.807324518640     0.000000004928
    H            0.143659743560    -1.927022678563     0.000000139742
    C            0.892491468744     0.074030373662     0.000000142198
    H           -0.984902686264     2.850391944708    -0.000000032968
    C            0.594103075944     1.421771278452     0.000000094710
    C            2.269580533995    -0.356008371846     0.000000235971
    H            1.380052593905     2.149273444960     0.000000127109
    N            3.345334142219    -0.695769857617    -0.000000448719

  Mulliken Charges: (a.u.)
   Center  Symbol    Alpha    Beta     Spin     Total
       1     H     0.38494  0.38494  0.00000  0.23012
       2     O     4.16844  4.16844  0.00000 -0.33689
       3     C     2.84070  2.84070  0.00000  0.31860
       4     C     3.10626  3.10626  0.00000 -0.21253
       5     C     3.14633  3.14633  0.00000 -0.29266
       6     H     0.41405  0.41405  0.00000  0.17191
       7     C     3.05017  3.05017  0.00000 -0.10034
       8     H     0.42325  0.42325  0.00000  0.15349
       9     C     2.92891  2.92891  0.00000  0.14218
      10     H     0.41675  0.41675  0.00000  0.16650
      11     C     3.10552  3.10552  0.00000 -0.21103
      12     C     3.02568  3.02568  0.00000 -0.05137
      13     H     0.41437  0.41437  0.00000  0.17126
      14     N     3.57463  3.57463  0.00000 -0.14925

   Total alpha = 31.00000, Total beta = 31.00000, Total charge =  0.00000
