  ==> Input File <==

--------------------------------------------------------------------------
set {
	reference rhf
	basis 6-31G*
}

set_num_threads( 4 )
memory 2 gb

molecule MOL {
0 1

H	 2.178883	 -1.166950	 -1.872347
O	 1.610894	 -1.317283	 -1.122963
C	 0.633661	 -0.412002	 -1.156295
C	 -0.318135	 -0.576402	 0.000164
O	 0.560013	 0.407720	 -2.012816
C	 -1.454360	 0.441875	 -0.000474
H	 -0.699889	 -1.593233	 -0.036206
H	 0.267485	 -0.513103	 0.913425
C	 -2.826123	 -0.230780	 0.000056
H	 -1.357605	 1.085198	 -0.868380
H	 -1.357504	 1.086451	 0.866496
H	 -2.959731	 -0.858053	 -0.876869
H	 -3.619374	 0.509403	 -0.000080
H	 -2.959371	 -0.857318	 0.877556

	symmetry c1
}
set optking {
	frozen_dihedral = ("
		7 4 6 10
	")
}

ee = optimize('scf')
oeprop('DIPOLE', 'QUADRUPOLE', 'MULLIKEN_CHARGES')
f=open( 'psi4out.xyz', 'w' )
f.write( "14  " )
f.write( str(ee) + "\n" )
f.write( MOL.save_string_xyz() )
f.close()
--------------------------------------------------------------------------

    Molecular point group: c1
  Charge       = 0
  Multiplicity = 1
  Basis Set: 6-31G*
  Basis Set:
  @DF-RHF Final Energy:  -305.87573542881938
    Total Energy =                       -305.8757354288196666
    Molecular point group: c1
  Basis Set: 6-31G*
  Basis Set:
  Basis Set: 6-31G*
  Basis Set:
  @DF-RHF Final Energy:  -305.87602145901087
    Total Energy =                       -305.8760214590109285
  Basis Set: 6-31G*
  Basis Set:
  Basis Set: 6-31G*
  Basis Set:
  @DF-RHF Final Energy:  -305.87592816926008
    Total Energy =                       -305.8759281692600211
  Basis Set: 6-31G*
  Basis Set:
  Basis Set: 6-31G*
  Basis Set:
  @DF-RHF Final Energy:  -305.87613113461202
    Total Energy =                       -305.8761311346121374
  Basis Set: 6-31G*
  Basis Set:
  Basis Set: 6-31G*
  Basis Set:
  @DF-RHF Final Energy:  -305.87613221159575
    Total Energy =                       -305.8761322115956318
  Basis Set: 6-31G*
  Basis Set:
  Charge       = 0
  Multiplicity = 1
  Basis Set: 6-31G*
  Basis Set:

    Orbital Energies (a.u.)
    -----------------------

    Doubly Occupied:

       1A    -20.613324     2A    -20.552956     3A    -11.382650
       4A    -11.241146     5A    -11.223673     6A    -11.215728
       7A     -1.475763     8A     -1.366715     9A     -1.079485
      10A     -0.979414    11A     -0.857992    12A     -0.789969
      13A     -0.701303    14A     -0.692682    15A     -0.659545
      16A     -0.612934    17A     -0.596204    18A     -0.567695
      19A     -0.555272    20A     -0.495570    21A     -0.490527
      22A     -0.482714    23A     -0.476522    24A     -0.446721

  @DF-RHF Final Energy:  -305.87613265719477

   => Energetics <=

    Nuclear Repulsion Energy =            240.5751076054398823
    One-Electron Energy =                -893.7894702768620618
    Two-Electron Energy =                 347.3382300142275199
    DFT Exchange-Correlation Energy =       0.0000000000000000
    Empirical Dispersion Energy =           0.0000000000000000
    PCM Polarization Energy =               0.0000000000000000
    EFP Energy =                            0.0000000000000000
    Total Energy =                       -305.8761326571946029
    Molecular point group: c1
  Basis Set: 6-31G*
  Basis Set:

  -Total Gradient:
     Atom            X                  Y                   Z
    ------   -----------------  -----------------  -----------------
       1        0.000026616466    -0.000015950270    -0.000000705809
       2        0.000011055096    -0.000016438806    -0.000017972073
       3       -0.000115259715     0.000091482896     0.000018813700
       4        0.000035613537     0.000073956841    -0.000540195580
       5        0.000018448491    -0.000019658195     0.000033834926
       6       -0.000342243347    -0.000360163465    -0.000186848486
       7        0.000011054653    -0.000025421764     0.000478353901
       8        0.000025054321     0.000006708050     0.000002133055
       9        0.000011123081    -0.000021907632     0.000000766751
      10        0.000284598549     0.000269835716     0.000213564744
      11       -0.000000584515    -0.000013769998     0.000000567718
      12       -0.000000833089     0.000008962615     0.000006060710
      13        0.000020658901     0.000020164274     0.000006932017
      14        0.000014697568     0.000002199738    -0.000015305568

  **** Optimization is complete! (in 6 steps) ****
    Final optimized geometry and variables:
    Molecular point group: c1

    Geometry (in Angstrom), charge = 0, multiplicity = 1:

    H            2.465754010133    -0.875593742140    -1.108444953687
    O            1.890434620798    -1.013332755559    -0.362316584482
    C            0.908790930178    -0.114058246555    -0.424953123714
    C           -0.050761512008    -0.273020063709     0.728849477533
    O            0.843421555910     0.686102451996    -1.300311660150
    C           -1.207871576306     0.740282118177     0.742474844467
    H           -0.415015498583    -1.295644536193     0.688148338144
    H            0.543755745193    -0.220098186655     1.635428437734
    C           -2.584204089896     0.075100122289     0.752353663356
    H           -1.121959476336     1.387494714656    -0.120488411836
    H           -1.113848842302     1.378785929409     1.614962059137
    H           -2.728509748519    -0.536283492183    -0.133798966541
    H           -3.373448482724     0.819553589945     0.772709370715
    H           -2.709823116420    -0.564573415576     1.621492131577

  Mulliken Charges: (a.u.)
   Center  Symbol    Alpha    Beta     Spin     Total
       1     H     0.26752  0.26752  0.00000  0.46497
       2     O     4.34937  4.34937  0.00000 -0.69874
       3     C     2.63021  2.63021  0.00000  0.73958
       4     C     3.21263  3.21263  0.00000 -0.42526
       5     O     4.27818  4.27818  0.00000 -0.55637
       6     C     3.16184  3.16184  0.00000 -0.32367
       7     H     0.39571  0.39571  0.00000  0.20858
       8     H     0.39513  0.39513  0.00000  0.20973
       9     C     3.24297  3.24297  0.00000 -0.48593
      10     H     0.39281  0.39281  0.00000  0.21438
      11     H     0.41696  0.41696  0.00000  0.16609
      12     H     0.41886  0.41886  0.00000  0.16229
      13     H     0.41620  0.41620  0.00000  0.16760
      14     H     0.42162  0.42162  0.00000  0.15676

   Total alpha = 24.00000, Total beta = 24.00000, Total charge = -0.00000
