                              Psi4 1.0.54 Driver

  ==> Input File <==

--------------------------------------------------------------------------
set {
	reference rhf
	basis cc-pvtz
}

set_num_threads( 4 )
memory 2 gb

molecule MOL {
0 1

H	 -3.243634	 1.228643	 -0.374000
C	 -2.688629	 2.008968	 0.141701
O	 -1.332826	 1.946319	 -0.150556
H	 -3.053797	 2.970774	 -0.187644
H	 -2.872389	 1.912663	 1.210271
C	 -0.718530	 0.758693	 0.228682
C	 0.718529	 0.758687	 -0.228709
H	 -0.743785	 0.650267	 1.312922
H	 -1.232080	 -0.096193	 -0.205907
O	 1.401606	 -0.295166	 0.366636
H	 0.748705	 0.673477	 -1.312803
H	 1.176496	 1.708671	 0.046552
C	 2.714315	 -0.441627	 -0.061017
H	 2.765292	 -0.641548	 -1.128869
H	 3.305661	 0.447341	 0.150952
H	 3.143725	 -1.278506	 0.470147

	symmetry c1
}
set optking {
	frozen_dihedral = ("
		3 6 7 11
	")
}

ee,wfn = optimize('scf', return_wfn=True)
oeprop( wfn, 'DIPOLE', 'QUADRUPOLE', 'MULLIKEN_CHARGES')
f=open( 'psi4out.xyz', 'w' )
f.write( "16  " )
f.write( str(ee) + "\n" )
f.write( MOL.save_string_xyz() )
f.close()
--------------------------------------------------------------------------

    Molecular point group: c1
  Charge       = 0
  Multiplicity = 1
  Basis Set: CC-PVTZ
  Basis Set:
  @DF-RHF Final Energy:  -307.09865356021533
    Total Energy =                       -307.0986535602152117
    Molecular point group: c1
  Basis Set: CC-PVTZ
  Basis Set:
  Basis Set: CC-PVTZ
  Basis Set:
  @DF-RHF Final Energy:  -307.09904783682612
    Total Energy =                       -307.0990478368260597
  Basis Set: CC-PVTZ
  Basis Set:
  Basis Set: CC-PVTZ
  Basis Set:
  @DF-RHF Final Energy:  -307.09912431801718
    Total Energy =                       -307.0991243180172319
  Basis Set: CC-PVTZ
  Basis Set:
  Charge       = 0
  Multiplicity = 1
  Basis Set: CC-PVTZ
  Basis Set:

    Orbital Energies (a.u.)
    -----------------------

    Doubly Occupied:

       1A    -20.552566     2A    -20.552301     3A    -11.266022
       4A    -11.265348     5A    -11.264717     6A    -11.264627
       7A     -1.392270     8A     -1.380967     9A     -1.031620
      10A     -0.942197    11A     -0.883329    12A     -0.831814
      13A     -0.694167    14A     -0.676272    15A     -0.661559
      16A     -0.650121    17A     -0.621486    18A     -0.601223
      19A     -0.576438    20A     -0.518354    21A     -0.509284
      22A     -0.485088    23A     -0.468040    24A     -0.421242
      25A     -0.420921

  @DF-RHF Final Energy:  -307.09912652166309

   => Energetics <=

    Nuclear Repulsion Energy =            255.0584877822397516
    One-Electron Energy =                -924.4512811349352432
    Two-Electron Energy =                 362.2936668310325672
    DFT Exchange-Correlation Energy =       0.0000000000000000
    Empirical Dispersion Energy =           0.0000000000000000
    PCM Polarization Energy =               0.0000000000000000
    EFP Energy =                            0.0000000000000000
    Total Energy =                       -307.0991265216628676
    Molecular point group: c1
  Basis Set: CC-PVTZ
  Basis Set:

  -Total Gradient:
     Atom            X                  Y                   Z
    ------   -----------------  -----------------  -----------------
       1       -0.000010921954     0.000024406370     0.000001945842
       2       -0.000009336156    -0.000114084646     0.000038640815
       3        0.000469257736     0.000704599782     0.001382269839
       4        0.000081049749    -0.000021835459    -0.000006181662
       5       -0.000015952425     0.000019890647    -0.000006254783
       6       -0.000588616210    -0.001328791312    -0.001753917272
       7        0.000163843583     0.002686163495     0.000272458345
       8        0.000008924395    -0.000016326913    -0.000015459520
       9        0.000013921450     0.000004454840     0.000002543210
      10       -0.000074892986     0.000038873108     0.000020420472
      11        0.000043880509    -0.002064951086     0.000102646886
      12       -0.000041967399    -0.000011979124    -0.000001502129
      13        0.000027889082     0.000082027670    -0.000072599005
      14        0.000006614457    -0.000011350806     0.000016120688
      15        0.000011150434    -0.000024015600     0.000005643261
      16       -0.000084844260     0.000032919034     0.000013225012

  **** Optimization is complete! (in 4 steps) ****
    Final optimized geometry and variables:
    Molecular point group: c1

    Geometry (in Angstrom), charge = 0, multiplicity = 1:

    H           -3.266036897624     0.495650856041    -0.377848719309
    C           -2.673880431938     1.266980504546     0.109254610957
    O           -1.328195634030     1.158265719821    -0.218386529917
    H           -3.018592960753     2.234259051369    -0.225937896688
    H           -2.828575314468     1.192470385199     1.183280307031
    C           -0.738418779553    -0.042540516247     0.163568263002
    C            0.705253963715    -0.023450769866    -0.287960882838
    H           -0.770596531284    -0.161455412715     1.244133250131
    H           -1.257412588278    -0.890121593764    -0.278381452330
    O            1.349367281551    -1.112031345057     0.293791127362
    H            0.757330697511    -0.092494816245    -1.372409444695
    H            1.166893222867     0.912225706018     0.016702642274
    C            2.685166769285    -1.246802507422    -0.062920301827
    H            2.798457907688    -1.390933033860    -1.135020478059
    H            3.264985068831    -0.374409921309     0.229878204510
    H            3.078041280712    -2.113473316258     0.448304838840

  Mulliken Charges: (a.u.)
   Center  Symbol    Alpha    Beta     Spin     Total
       1     H     0.47075  0.47075  0.00000  0.05851
       2     C     3.03133  3.03133  0.00000 -0.06266
       3     O     4.17531  4.17531  0.00000 -0.35061
       4     H     0.44688  0.44688  0.00000  0.10623
       5     H     0.47077  0.47077  0.00000  0.05846
       6     C     2.96354  2.96354  0.00000  0.07292
       7     C     2.96378  2.96378  0.00000  0.07243
       8     H     0.47027  0.47027  0.00000  0.05945
       9     H     0.47109  0.47109  0.00000  0.05782
      10     O     4.17556  4.17556  0.00000 -0.35111
      11     H     0.47138  0.47138  0.00000  0.05724
      12     H     0.46939  0.46939  0.00000  0.06122
      13     C     3.03127  3.03127  0.00000 -0.06254
      14     H     0.47095  0.47095  0.00000  0.05810
      15     H     0.47080  0.47080  0.00000  0.05839
      16     H     0.44693  0.44693  0.00000  0.10614

   Total alpha = 25.00000, Total beta = 25.00000, Total charge = -0.00000

*** Psi4 exiting successfully. Buy a developer a beer!
