  ==> Input File <==

--------------------------------------------------------------------------
set {
	reference rhf
	basis 6-31G*
}

set_num_threads( 4 )
memory 2 gb

molecule MOL {
0 1

H	 0.044964	 -1.737361	 -0.081435
C	 -1.010097	 -1.547085	 0.105060
O	 -1.392607	 -0.295399	 -0.366433
H	 -1.597512	 -2.287097	 -0.420741
H	 -1.194879	 -1.646309	 1.173909
C	 -0.719715	 0.768384	 0.229244
C	 0.719720	 0.768376	 -0.229267
H	 -1.185038	 1.714362	 -0.050570
H	 -0.750528	 0.687237	 1.313896
O	 1.392611	 -0.295398	 0.366430
H	 0.750534	 0.687200	 -1.313918
H	 1.185043	 1.714359	 0.050526
C	 2.706965	 -0.449871	 -0.062409
H	 2.756559	 -0.644779	 -1.131878
H	 3.305899	 0.433456	 0.155466
H	 3.125548	 -1.294566	 0.467107

	symmetry c1
}
set optking {
	frozen_dihedral = ("
		2 3 6 7
	")
}

ee = optimize('scf')
oeprop('DIPOLE', 'QUADRUPOLE', 'MULLIKEN_CHARGES')
f=open( 'psi4out.xyz', 'w' )
f.write( "16  " )
f.write( str(ee) + "\n" )
f.write( MOL.save_string_xyz() )
f.close()
--------------------------------------------------------------------------

    Molecular point group: c1
  Charge       = 0
  Multiplicity = 1
  Basis Set: 6-31G*
  Basis Set:
  @DF-RHF Final Energy:  -306.96921200442711
    Total Energy =                       -306.9692120044269359
    Molecular point group: c1
  Basis Set: 6-31G*
  Basis Set:
  Basis Set: 6-31G*
  Basis Set:
  @DF-RHF Final Energy:  -306.97593807899057
    Total Energy =                       -306.9759380789903958
  Basis Set: 6-31G*
  Basis Set:
  Basis Set: 6-31G*
  Basis Set:
  @DF-RHF Final Energy:  -306.97687698216362
    Total Energy =                       -306.9768769821633896
  Basis Set: 6-31G*
  Basis Set:
  Basis Set: 6-31G*
  Basis Set:
  @DF-RHF Final Energy:  -306.97695458661264
    Total Energy =                       -306.9769545866124645
  Basis Set: 6-31G*
  Basis Set:
  Basis Set: 6-31G*
  Basis Set:
  @DF-RHF Final Energy:  -306.97697475485222
    Total Energy =                       -306.9769747548522787
  Basis Set: 6-31G*
  Basis Set:
  Basis Set: 6-31G*
  Basis Set:
  @DF-RHF Final Energy:  -306.97697823264895
    Total Energy =                       -306.9769782326489462
  Basis Set: 6-31G*
  Basis Set:
  Charge       = 0
  Multiplicity = 1
  Basis Set: 6-31G*
  Basis Set:

    Orbital Energies (a.u.)
    -----------------------

    Doubly Occupied:

       1A    -20.562426     2A    -20.549873     3A    -11.271311
       4A    -11.270574     5A    -11.268105     6A    -11.253696
       7A     -1.390354     8A     -1.367715     9A     -1.028005
      10A     -0.946290    11A     -0.891139    12A     -0.819543
      13A     -0.689323    14A     -0.679635    15A     -0.657132
      16A     -0.633387    17A     -0.625817    18A     -0.596882
      19A     -0.554519    20A     -0.528084    21A     -0.522199
      22A     -0.485439    23A     -0.458908    24A     -0.424888
      25A     -0.403467

  @DF-RHF Final Energy:  -306.97697845611418

   => Energetics <=

    Nuclear Repulsion Energy =            263.9839526782982944
    One-Electron Energy =                -942.1644353987476279
    Two-Electron Energy =                 371.2035042643351517
    DFT Exchange-Correlation Energy =       0.0000000000000000
    Empirical Dispersion Energy =           0.0000000000000000
    PCM Polarization Energy =               0.0000000000000000
    EFP Energy =                            0.0000000000000000
    Total Energy =                       -306.9769784561142387
    Molecular point group: c1
  Basis Set: 6-31G*
  Basis Set:

  -Total Gradient:
     Atom            X                  Y                   Z
    ------   -----------------  -----------------  -----------------
       1       -0.000013131995     0.000008787352    -0.000005885103
       2        0.000812543008    -0.000134637514    -0.000930890208
       3       -0.001007780196    -0.000140106070     0.001770015518
       4       -0.000010832248     0.000003227833    -0.000002275890
       5       -0.000006086782    -0.000004470148     0.000004819167
       6       -0.000078830436     0.000953986509    -0.001685478041
       7        0.000294737674    -0.000693736544     0.000871477815
       8       -0.000015040091     0.000007106111     0.000003686330
       9       -0.000004481783    -0.000001781229    -0.000003909740
      10        0.000017649301     0.000022139725    -0.000040917897
      11        0.000002556714    -0.000006135675     0.000010166293
      12        0.000004343711     0.000005782420    -0.000005150206
      13        0.000009156149    -0.000023408072     0.000011755184
      14       -0.000006403311     0.000003208518     0.000001926242
      15       -0.000009240221     0.000002356641     0.000000697217
      16        0.000010840509    -0.000002319857    -0.000000036681

  **** Optimization is complete! (in 7 steps) ****
    Final optimized geometry and variables:
    Molecular point group: c1

    Geometry (in Angstrom), charge = 0, multiplicity = 1:

    H           -0.586939066182    -1.779741404404    -0.388187341569
    C           -1.506810396485    -1.411018021297     0.047773606387
    O           -1.779499529816    -0.094093928671    -0.336214156439
    H           -2.334112788902    -2.015376142457    -0.299879499081
    H           -1.433841875956    -1.499959549556     1.128931454379
    C           -0.979306962108     0.902917959723     0.219869175470
    C            0.457941727339     0.920107370146    -0.269610710972
    H           -1.446661629629     1.840256715637    -0.057280280042
    H           -0.976990968896     0.833661213792     1.306327116503
    O            1.197825611505    -0.077797471053     0.368609126217
    H            0.475891226041     0.781323442853    -1.349410317068
    H            0.891124885324     1.896991362264    -0.051637954364
    C            2.529886063967    -0.144502333486    -0.032325718313
    H            2.615682877714    -0.363261481931    -1.094789579177
    H            3.052423308287     0.788387422956     0.171089483144
    H            3.001231055022    -0.939376237404     0.529033823325

  Mulliken Charges: (a.u.)
   Center  Symbol    Alpha    Beta     Spin     Total
       1     H     0.42031  0.42031  0.00000  0.15938
       2     C     3.07712  3.07712  0.00000 -0.15425
       3     O     4.30816  4.30816  0.00000 -0.61632
       4     H     0.41807  0.41807  0.00000  0.16386
       5     H     0.42922  0.42922  0.00000  0.14156
       6     C     2.99770  2.99770  0.00000  0.00461
       7     C     3.00425  3.00425  0.00000 -0.00849
       8     H     0.41493  0.41493  0.00000  0.17015
       9     H     0.42290  0.42290  0.00000  0.15421
      10     O     4.30544  4.30544  0.00000 -0.61089
      11     H     0.42306  0.42306  0.00000  0.15388
      12     H     0.43050  0.43050  0.00000  0.13901
      13     C     3.08057  3.08057  0.00000 -0.16114
      14     H     0.42792  0.42792  0.00000  0.14417
      15     H     0.42893  0.42893  0.00000  0.14214
      16     H     0.41094  0.41094  0.00000  0.17812

   Total alpha = 25.00000, Total beta = 25.00000, Total charge = -0.00000
