                              Psi4 1.0.54 Driver

  ==> Input File <==

--------------------------------------------------------------------------
set {
	reference rhf
	basis cc-pvtz
}

set_num_threads( 4 )
memory 2 gb

molecule MOL {
0 1

H	 3.083659	 -1.378387	 0.000000
O	 2.179005	 -1.633391	 0.000000
C	 1.366950	 -0.558201	 0.000000
C	 1.730752	 0.644615	 0.586141
C	 0.135807	 -0.682803	 -0.610560
H	 2.690197	 0.739930	 1.061336
C	 0.864091	 1.718486	 0.560525
H	 -0.148091	 -1.610441	 -1.064137
C	 -0.726642	 0.398447	 -0.631669
H	 1.156333	 2.644130	 1.017253
C	 -0.369316	 1.602081	 -0.048226
C	 -2.055690	 0.277284	 -1.286138
H	 -1.045345	 2.435394	 -0.069721
O	 -2.460909	 -0.701150	 -1.813285
H	 -2.666627	 1.184579	 -1.251902

	symmetry c1
}
set optking {
	frozen_dihedral = ("
		4 3 2 1
	")
}

ee,wfn = optimize('scf', return_wfn=True)
oeprop( wfn, 'DIPOLE', 'QUADRUPOLE', 'MULLIKEN_CHARGES')
f=open( 'psi4out.xyz', 'w' )
f.write( "15  " )
f.write( str(ee) + "\n" )
f.write( MOL.save_string_xyz() )
f.close()
--------------------------------------------------------------------------

    Molecular point group: c1
  Charge       = 0
  Multiplicity = 1
  Basis Set: CC-PVTZ
  Basis Set:
  @DF-RHF Final Energy:  -418.43777790634522
    Total Energy =                       -418.4377779063452181
    Molecular point group: c1
  Basis Set: CC-PVTZ
  Basis Set:
  Basis Set: CC-PVTZ
  Basis Set:
  @DF-RHF Final Energy:  -418.43784549149939
    Total Energy =                       -418.4378454914996155
  Basis Set: CC-PVTZ
  Basis Set:
  Basis Set: CC-PVTZ
  Basis Set:
  @DF-RHF Final Energy:  -418.43791420854006
    Total Energy =                       -418.4379142085398371
  Basis Set: CC-PVTZ
  Basis Set:
  Basis Set: CC-PVTZ
  Basis Set:
  @DF-RHF Final Energy:  -418.43792484971698
    Total Energy =                       -418.4379248497169783
  Basis Set: CC-PVTZ
  Basis Set:
  Basis Set: CC-PVTZ
  Basis Set:
  @DF-RHF Final Energy:  -418.43793191701150
    Total Energy =                       -418.4379319170118379
  Basis Set: CC-PVTZ
  Basis Set:
  Charge       = 0
  Multiplicity = 1
  Basis Set: CC-PVTZ
  Basis Set:

    Orbital Energies (a.u.)
    -----------------------

    Doubly Occupied:

       1A    -20.592366     2A    -20.554408     3A    -11.327642
       4A    -11.309698     5A    -11.250810     6A    -11.250577
       7A    -11.247884     8A    -11.244858     9A    -11.238092
      10A     -1.423140    11A     -1.410193    12A     -1.174531
      13A     -1.052195    14A     -1.030889    15A     -0.901959
      16A     -0.849834    17A     -0.814916    18A     -0.740934
      19A     -0.705307    20A     -0.689838    21A     -0.645133
      22A     -0.641276    23A     -0.618596    24A     -0.610859
      25A     -0.568790    26A     -0.555780    27A     -0.545029
      28A     -0.514501    29A     -0.492707    30A     -0.426863
      31A     -0.358028    32A     -0.334263

  @DF-RHF Final Energy:  -418.43793309958158

   => Energetics <=

    Nuclear Repulsion Energy =            403.9574836656451566
    One-Electron Energy =               -1370.5470405701444179
    Two-Electron Energy =                 548.1516238049174490
    DFT Exchange-Correlation Energy =       0.0000000000000000
    Empirical Dispersion Energy =           0.0000000000000000
    PCM Polarization Energy =               0.0000000000000000
    EFP Energy =                            0.0000000000000000
    Total Energy =                       -418.4379330995817554
    Molecular point group: c1
  Basis Set: CC-PVTZ
  Basis Set:

  -Total Gradient:
     Atom            X                  Y                   Z
    ------   -----------------  -----------------  -----------------
       1        0.000057572973    -0.000017051920    -0.002007635000
       2       -0.000388484184    -0.000248572653     0.003195311880
       3        0.001008303742     0.000755308057    -0.002424851910
       4       -0.000611203525    -0.000519787875     0.001248657167
       5       -0.000049111788     0.000025317199    -0.000021266127
       6        0.000006471613     0.000006850985    -0.000009981305
       7       -0.000101901471     0.000006033786     0.000045899543
       8        0.000004564370    -0.000002385894     0.000006467010
       9       -0.000003441702    -0.000065357938    -0.000001113120
      10        0.000005031040    -0.000002328206    -0.000006066076
      11        0.000083236922     0.000058867925    -0.000036821686
      12        0.000002405886     0.000007211629     0.000025879025
      13       -0.000007472566    -0.000003473910     0.000000885249
      14       -0.000001063790    -0.000002838609    -0.000009846936
      15       -0.000004907528     0.000002207418    -0.000005517713

  **** Optimization is complete! (in 6 steps) ****
    Final optimized geometry and variables:
    Molecular point group: c1

    Geometry (in Angstrom), charge = 0, multiplicity = 1:

    H            3.005787329401    -1.445269089005     0.416974335195
    O            2.100387256016    -1.697298878634     0.388835317943
    C            1.291527367755    -0.614717486187     0.361228076424
    C            1.651694807562     0.584104471891     0.959896148114
    C            0.058309030580    -0.741619469569    -0.239979117416
    H            2.607047069703     0.671079518993     1.444017321478
    C            0.785658567258     1.657235509586     0.937870080941
    H           -0.224989378961    -1.668144718170    -0.696362003926
    C           -0.811029447944     0.336701055911    -0.248458377305
    H            1.075366839768     2.581463747869     1.399018683934
    C           -0.451744743219     1.538465707404     0.334460445389
    C           -2.143658933893     0.214059656353    -0.894542100141
    H           -1.130143755805     2.370214043204     0.320165865305
    O           -2.548317304355    -0.762708114408    -1.425100687194
    H           -2.757697361216     1.119112187550    -0.850451101148

  Mulliken Charges: (a.u.)
   Center  Symbol    Alpha    Beta     Spin     Total
       1     H     0.38600  0.38600  0.00000  0.22800
       2     O     4.17476  4.17476  0.00000 -0.34951
       3     C     2.84974  2.84974  0.00000  0.30052
       4     C     3.12067  3.12067  0.00000 -0.24134
       5     C     3.11854  3.11854  0.00000 -0.23708
       6     H     0.42672  0.42672  0.00000  0.14657
       7     C     3.06405  3.06405  0.00000 -0.12810
       8     H     0.40387  0.40387  0.00000  0.19226
       9     C     2.97194  2.97194  0.00000  0.05612
      10     H     0.41932  0.41932  0.00000  0.16136
      11     C     3.10671  3.10671  0.00000 -0.21341
      12     C     2.90904  2.90904  0.00000  0.18191
      13     H     0.42302  0.42302  0.00000  0.15396
      14     O     4.16909  4.16909  0.00000 -0.33818
      15     H     0.45654  0.45654  0.00000  0.08691

   Total alpha = 32.00000, Total beta = 32.00000, Total charge =  0.00000

*** Psi4 exiting successfully. Buy a developer a beer!
