  ==> Input File <==

--------------------------------------------------------------------------
set {
	reference rhf
	basis 6-31G*
}

set_num_threads( 4 )
memory 2 gb

molecule MOL {
0 1

H	 -0.000158	 1.970498	 0.756846
O	 -0.000074	 1.880206	 -0.189275
C	 -0.000015	 0.544847	 -0.545111
C	 -1.278788	 -0.123820	 -0.051541
C	 1.278802	 -0.123718	 -0.051505
H	 -0.000001	 0.490777	 -1.623619
F	 -2.316438	 0.624144	 -0.360373
F	 -1.459246	 -1.312282	 -0.587593
F	 -1.258905	 -0.263335	 1.264414
F	 2.323327	 0.466644	 -0.591854
F	 1.326242	 -1.401483	 -0.363667
F	 1.388946	 -0.015632	 1.262939

	symmetry c1
}
set optking {
	frozen_dihedral = ("
		7 4 3 6
	")
}

ee = optimize('scf')
oeprop('DIPOLE', 'QUADRUPOLE', 'MULLIKEN_CHARGES')
f=open( 'psi4out.xyz', 'w' )
f.write( "12  " )
f.write( str(ee) + "\n" )
f.write( MOL.save_string_xyz() )
f.close()
--------------------------------------------------------------------------

    Molecular point group: c1
  Charge       = 0
  Multiplicity = 1
  Basis Set: 6-31G*
  Basis Set:
  @DF-RHF Final Energy:  -786.27705251739371
    Total Energy =                       -786.2770525173934857
    Molecular point group: c1
  Basis Set: 6-31G*
  Basis Set:
  Basis Set: 6-31G*
  Basis Set:
  @DF-RHF Final Energy:  -786.27743321994069
    Total Energy =                       -786.2774332199405762
  Basis Set: 6-31G*
  Basis Set:
  Basis Set: 6-31G*
  Basis Set:
  @DF-RHF Final Energy:  -786.27758771625338
    Total Energy =                       -786.2775877162537199
  Basis Set: 6-31G*
  Basis Set:
  Basis Set: 6-31G*
  Basis Set:
  @DF-RHF Final Energy:  -786.27760087139723
    Total Energy =                       -786.2776008713974534
  Basis Set: 6-31G*
  Basis Set:
  Basis Set: 6-31G*
  Basis Set:
  @DF-RHF Final Energy:  -786.27760340895543
    Total Energy =                       -786.2776034089556561
  Basis Set: 6-31G*
  Basis Set:
  Charge       = 0
  Multiplicity = 1
  Basis Set: 6-31G*
  Basis Set:

    Orbital Energies (a.u.)
    -----------------------

    Doubly Occupied:

       1A    -26.363222     2A    -26.362982     3A    -26.361159
       4A    -26.360864     5A    -26.358742     6A    -26.357561
       7A    -20.617654     8A    -11.526360     9A    -11.524808
      10A    -11.349304    11A     -1.764686    12A     -1.758340
      13A     -1.661896    14A     -1.657931    15A     -1.656690
      16A     -1.654805    17A     -1.436141    18A     -1.102254
      19A     -0.996436    20A     -0.938169    21A     -0.863745
      22A     -0.862418    23A     -0.851965    24A     -0.844477
      25A     -0.831557    26A     -0.815395    27A     -0.742417
      28A     -0.727311    29A     -0.724815    30A     -0.718095
      31A     -0.689061    32A     -0.686574    33A     -0.683412
      34A     -0.674392    35A     -0.669585    36A     -0.662169
      37A     -0.657241    38A     -0.653858    39A     -0.620125
      40A     -0.550838    41A     -0.506012

  @DF-RHF Final Energy:  -786.27760392851155

   => Energetics <=

    Nuclear Repulsion Energy =            670.8489870036071352
    One-Electron Energy =               -2428.5622495978959705
    Two-Electron Energy =                 971.4356586657775097
    DFT Exchange-Correlation Energy =       0.0000000000000000
    Empirical Dispersion Energy =           0.0000000000000000
    PCM Polarization Energy =               0.0000000000000000
    EFP Energy =                            0.0000000000000000
    Total Energy =                       -786.2776039285113256
    Molecular point group: c1
  Basis Set: 6-31G*
  Basis Set:

  -Total Gradient:
     Atom            X                  Y                   Z
    ------   -----------------  -----------------  -----------------
       1       -0.000000145622    -0.000004440332    -0.000004165898
       2       -0.000018821885    -0.000040247621    -0.000023467158
       3       -0.001220932510     0.002550885876     0.000431028493
       4        0.000035992575    -0.001484852687    -0.002085125483
       5       -0.000045498475     0.000032907781    -0.000046313101
       6        0.001080113563    -0.001908774476     0.000082875032
       7        0.000101687545     0.000902076413     0.001594811472
       8        0.000047153612    -0.000049063734     0.000006067503
       9        0.000054418480    -0.000015452089     0.000024103023
      10        0.000015481750    -0.000024857634     0.000034953921
      11       -0.000043820722     0.000074634037     0.000012381591
      12       -0.000005628316    -0.000032815538    -0.000027149395

  **** Optimization is complete! (in 6 steps) ****
    Final optimized geometry and variables:
    Molecular point group: c1

    Geometry (in Angstrom), charge = 0, multiplicity = 1:

    H            0.039142938724     1.970786651288     0.800338376860
    O            0.000870243296     1.898205127844    -0.146444343166
    C           -0.003120558293     0.572217078977    -0.529273757709
    C           -1.275755384248    -0.129939905464    -0.063264961644
    C            1.272537432487    -0.111027258758    -0.044658651967
    H            0.009016974671     0.530677737968    -1.608451582739
    F           -2.327465876933     0.595894614513    -0.374130066929
    F           -1.409212213929    -1.313059420354    -0.624975549570
    F           -1.279565240002    -0.293988794530     1.250591435145
    F            2.314934884764     0.401286706257    -0.664010026920
    F            1.257555721014    -1.407797370129    -0.272346001372
    F            1.444468884598     0.077624045014     1.253505889791

  Mulliken Charges: (a.u.)
   Center  Symbol    Alpha    Beta     Spin     Total
       1     H     0.26589  0.26589  0.00000  0.46821
       2     O     4.36152  4.36152  0.00000 -0.72303
       3     C     3.04595  3.04595  0.00000 -0.09191
       4     C     2.44801  2.44801  0.00000  1.10397
       5     C     2.44525  2.44525  0.00000  1.10950
       6     H     0.37543  0.37543  0.00000  0.24914
       7     F     4.67379  4.67379  0.00000 -0.34759
       8     F     4.67423  4.67423  0.00000 -0.34846
       9     F     4.68027  4.68027  0.00000 -0.36054
      10     F     4.67522  4.67522  0.00000 -0.35043
      11     F     4.67387  4.67387  0.00000 -0.34773
      12     F     4.68057  4.68057  0.00000 -0.36114

   Total alpha = 41.00000, Total beta = 41.00000, Total charge = -0.00000
