                              Psi4 1.0.54 Driver

  ==> Input File <==

--------------------------------------------------------------------------
set {
	reference rhf
	basis cc-pvtz
}

set_num_threads( 4 )
memory 2 gb

molecule MOL {
0 1

O	 0.395927	 1.296676	 -0.000076
C	 0.503051	 0.114301	 -0.000074
C	 -0.701422	 -0.805636	 -0.000109
C	 1.858118	 -0.556123	 0.000212
C	 -1.806122	 -0.380643	 0.954406
H	 -1.071041	 -0.861511	 -1.020744
H	 -0.349270	 -1.806624	 0.235376
H	 -2.174459	 0.605887	 0.706788
H	 -2.634103	 -1.077728	 0.905664
H	 -1.446306	 -0.347603	 1.974049
H	 1.961106	 -1.191101	 -0.872843
H	 2.636688	 0.191085	 -0.000109
H	 1.961070	 -1.190284	 0.873873

	symmetry c1
}
set optking {
	frozen_dihedral = ("
		6 3 2 1
	")
}

ee,wfn = optimize('scf', return_wfn=True)
oeprop( wfn, 'DIPOLE', 'QUADRUPOLE', 'MULLIKEN_CHARGES')
f=open( 'psi4out.xyz', 'w' )
f.write( "13  " )
f.write( str(ee) + "\n" )
f.write( MOL.save_string_xyz() )
f.close()
--------------------------------------------------------------------------

    Molecular point group: c1
  Charge       = 0
  Multiplicity = 1
  Basis Set: CC-PVTZ
  Basis Set:
  @DF-RHF Final Energy:  -231.08144914271011
    Total Energy =                       -231.0814491427101700
    Molecular point group: c1
  Basis Set: CC-PVTZ
  Basis Set:
  Basis Set: CC-PVTZ
  Basis Set:
  @DF-RHF Final Energy:  -231.08095393534990
    Total Energy =                       -231.0809539353499247
  Basis Set: CC-PVTZ
  Basis Set:
  Basis Set: CC-PVTZ
  Basis Set:
  @DF-RHF Final Energy:  -231.08172375788499
    Total Energy =                       -231.0817237578850722
  Basis Set: CC-PVTZ
  Basis Set:
  Basis Set: CC-PVTZ
  Basis Set:
  @DF-RHF Final Energy:  -231.08204139283370
    Total Energy =                       -231.0820413928336734
  Basis Set: CC-PVTZ
  Basis Set:
  Basis Set: CC-PVTZ
  Basis Set:
  @DF-RHF Final Energy:  -231.08210697561449
    Total Energy =                       -231.0821069756146358
  Basis Set: CC-PVTZ
  Basis Set:
  Basis Set: CC-PVTZ
  Basis Set:
  @DF-RHF Final Energy:  -231.08211079945264
    Total Energy =                       -231.0821107994524937
  Basis Set: CC-PVTZ
  Basis Set:
  Charge       = 0
  Multiplicity = 1
  Basis Set: CC-PVTZ
  Basis Set:

    Orbital Energies (a.u.)
    -----------------------

    Doubly Occupied:

       1A    -20.538496     2A    -11.321530     3A    -11.232833
       4A    -11.228250     5A    -11.216234     6A     -1.399277
       7A     -1.062479     8A     -1.001646     9A     -0.879510
      10A     -0.732157    11A     -0.659918    12A     -0.644544
      13A     -0.617516    14A     -0.587816    15A     -0.572338
      16A     -0.529196    17A     -0.520681    18A     -0.505344
      19A     -0.484046    20A     -0.403258

  @DF-RHF Final Energy:  -231.08211153820150

   => Energetics <=

    Nuclear Repulsion Energy =            177.1955882784441201
    One-Electron Energy =                -664.2812545273613978
    Two-Electron Energy =                 256.0035547107157754
    DFT Exchange-Correlation Energy =       0.0000000000000000
    Empirical Dispersion Energy =           0.0000000000000000
    PCM Polarization Energy =               0.0000000000000000
    EFP Energy =                            0.0000000000000000
    Total Energy =                       -231.0821115382015023
    Molecular point group: c1
  Basis Set: CC-PVTZ
  Basis Set:

  -Total Gradient:
     Atom            X                  Y                   Z
    ------   -----------------  -----------------  -----------------
       1        0.000010794202     0.000056144466    -0.001599702598
       2       -0.000171162784     0.000225619166     0.002275713922
       3        0.001013206974    -0.001554242963    -0.000950819417
       4       -0.000013065459     0.000053335143     0.000077990604
       5       -0.000008334918     0.000011584822    -0.000003970664
       6       -0.000842803163     0.001280423141     0.000242084661
       7       -0.000008885155    -0.000025607248     0.000012405044
       8        0.000001786518     0.000012406722    -0.000012120922
       9       -0.000014376347    -0.000008905234     0.000002160967
      10        0.000008836894    -0.000006386550     0.000018024332
      11       -0.000008337912    -0.000021945601    -0.000052013453
      12        0.000028151647     0.000009282155    -0.000019880204
      13        0.000004189503    -0.000031708025     0.000010127727

  **** Optimization is complete! (in 7 steps) ****
    Final optimized geometry and variables:
    Molecular point group: c1

    Geometry (in Angstrom), charge = 0, multiplicity = 1:

    O            0.434025724516     1.311154400962    -0.186465927293
    C            0.476352770659     0.124501554599    -0.173753029725
    C           -0.791953648699    -0.711579514152    -0.175207249562
    C            1.787563775854    -0.622048521242    -0.200661537594
    C           -1.891373274120    -0.129177155860     0.707349196520
    H           -1.132042146613    -0.734483548172    -1.207588299336
    H           -0.566669277930    -1.733367538442     0.106179640867
    H           -2.116158602407     0.886262979611     0.414877192182
    H           -2.794630413274    -0.721469830124     0.626630752078
    H           -1.590354519369    -0.117713246161     1.748627689876
    H            1.796384433489    -1.331930396734    -1.021104453630
    H            2.608983904681     0.070367559816    -0.302491415417
    H            1.900030907483    -1.191685675955     0.716185586420

  Mulliken Charges: (a.u.)
   Center  Symbol    Alpha    Beta     Spin     Total
       1     O     4.17365  4.17365  0.00000 -0.34731
       2     C     2.85798  2.85798  0.00000  0.28404
       3     C     3.09982  3.09982  0.00000 -0.19964
       4     C     3.15155  3.15155  0.00000 -0.30309
       5     C     3.14399  3.14399  0.00000 -0.28797
       6     H     0.44511  0.44511  0.00000  0.10978
       7     H     0.44680  0.44680  0.00000  0.10640
       8     H     0.44038  0.44038  0.00000  0.11925
       9     H     0.44965  0.44965  0.00000  0.10069
      10     H     0.45454  0.45454  0.00000  0.09093
      11     H     0.45029  0.45029  0.00000  0.09942
      12     H     0.43643  0.43643  0.00000  0.12715
      13     H     0.44983  0.44983  0.00000  0.10035

   Total alpha = 20.00000, Total beta = 20.00000, Total charge =  0.00000

*** Psi4 exiting successfully. Buy a developer a beer!
