                              Psi4 1.0.54 Driver

  ==> Input File <==

--------------------------------------------------------------------------
set {
	reference rhf
	basis cc-pvtz
}

set_num_threads( 4 )
memory 2 gb

molecule MOL {
0 1

H	 3.150429	 0.792477	 -1.289213
O	 2.226507	 0.650872	 -1.147749
C	 2.076458	 -0.067370	 -0.038225
C	 0.626018	 -0.337582	 0.258241
O	 2.999797	 -0.428345	 0.605969
C	 -0.267326	 0.883135	 0.076490
H	 0.325620	 -1.161483	 -0.378003
H	 0.574537	 -0.713685	 1.275261
C	 -1.726822	 0.642622	 0.463839
H	 -0.210803	 1.217591	 -0.953497
H	 0.129920	 1.693110	 0.675679
C	 -2.480891	 -0.340606	 -0.429852
H	 -2.243098	 1.597649	 0.438609
H	 -1.776542	 0.301208	 1.495542
C	 -3.955933	 -0.460128	 -0.060472
H	 -2.393755	 -0.020485	 -1.464726
H	 -2.024244	 -1.323637	 -0.374360
H	 -4.467673	 -1.160944	 -0.709827
H	 -4.458917	 0.497287	 -0.144505
H	 -4.076458	 -0.806900	 0.960497

	symmetry c1
}
set optking {
	frozen_dihedral = ("
		5 3 4 7
	")
}

ee,wfn = optimize('scf', return_wfn=True)
oeprop( wfn, 'DIPOLE', 'QUADRUPOLE', 'MULLIKEN_CHARGES')
f=open( 'psi4out.xyz', 'w' )
f.write( "20  " )
f.write( str(ee) + "\n" )
f.write( MOL.save_string_xyz() )
f.close()
--------------------------------------------------------------------------

    Molecular point group: c1
  Charge       = 0
  Multiplicity = 1
  Basis Set: CC-PVTZ
  Basis Set:
  @DF-RHF Final Energy:  -384.09285239537417
    Total Energy =                       -384.0928523953745071
    Molecular point group: c1
  Basis Set: CC-PVTZ
  Basis Set:
  Basis Set: CC-PVTZ
  Basis Set:
  @DF-RHF Final Energy:  -384.09168407209324
    Total Energy =                       -384.0916840720935852
  Basis Set: CC-PVTZ
  Basis Set:
  Basis Set: CC-PVTZ
  Basis Set:
  @DF-RHF Final Energy:  -384.09303437819062
    Total Energy =                       -384.0930343781900547
  Basis Set: CC-PVTZ
  Basis Set:
  Basis Set: CC-PVTZ
  Basis Set:
  @DF-RHF Final Energy:  -384.09328516159286
    Total Energy =                       -384.0932851615928030
  Basis Set: CC-PVTZ
  Basis Set:
  Basis Set: CC-PVTZ
  Basis Set:
  @DF-RHF Final Energy:  -384.09328917693119
    Total Energy =                       -384.0932891769314779
  Basis Set: CC-PVTZ
  Basis Set:
  Basis Set: CC-PVTZ
  Basis Set:
  @DF-RHF Final Energy:  -384.09328963646328
    Total Energy =                       -384.0932896364628277
  Basis Set: CC-PVTZ
  Basis Set:
  Charge       = 0
  Multiplicity = 1
  Basis Set: CC-PVTZ
  Basis Set:

    Orbital Energies (a.u.)
    -----------------------

    Doubly Occupied:

       1A    -20.604760     2A    -20.538135     3A    -11.372665
       4A    -11.237956     5A    -11.228147     6A    -11.221582
       7A    -11.220326     8A    -11.211997     9A     -1.477416
      10A     -1.367489    11A     -1.100366    12A     -1.043333
      13A     -0.961771    14A     -0.864499    15A     -0.826736
      16A     -0.792510    17A     -0.703307    18A     -0.686205
      19A     -0.661103    20A     -0.632503    21A     -0.612807
      22A     -0.594178    23A     -0.577480    24A     -0.552836
      25A     -0.551061    26A     -0.518775    27A     -0.501120
      28A     -0.484424    29A     -0.479380    30A     -0.471086
      31A     -0.460169    32A     -0.437069

  @DF-RHF Final Energy:  -384.09329231596712

   => Energetics <=

    Nuclear Repulsion Energy =            377.2979726501048390
    One-Electron Energy =               -1270.7961473797122380
    Two-Electron Energy =                 509.4048824136402800
    DFT Exchange-Correlation Energy =       0.0000000000000000
    Empirical Dispersion Energy =           0.0000000000000000
    PCM Polarization Energy =               0.0000000000000000
    EFP Energy =                            0.0000000000000000
    Total Energy =                       -384.0932923159671191
    Molecular point group: c1
  Basis Set: CC-PVTZ
  Basis Set:

  -Total Gradient:
     Atom            X                  Y                   Z
    ------   -----------------  -----------------  -----------------
       1        0.000006086145     0.000004495270    -0.000008514736
       2       -0.000031533199     0.000009613480    -0.000012647684
       3        0.000049919294     0.000951072330     0.000913432494
       4       -0.000212524768     0.000358598334    -0.000959684352
       5        0.000004651317    -0.000747401884    -0.000520617548
       6        0.000010606791    -0.000004791955     0.000006025385
       7        0.000189834810    -0.000573164515     0.000593321156
       8       -0.000005008803     0.000003574265    -0.000007783311
       9       -0.000005911647     0.000002436972     0.000011100361
      10        0.000008924065     0.000000114887    -0.000001947355
      11       -0.000001494007    -0.000004811265    -0.000006217810
      12       -0.000007889127     0.000002275887    -0.000008634161
      13       -0.000000118942    -0.000000525572     0.000000537242
      14       -0.000004330861     0.000002956190     0.000001968294
      15        0.000004315585    -0.000005724173     0.000001145317
      16       -0.000002786192     0.000001409125    -0.000003791112
      17       -0.000003182126     0.000001634513     0.000000775951
      18        0.000000484536    -0.000001825688     0.000001034963
      19        0.000001767064    -0.000000272057    -0.000001901609
      20       -0.000001809926     0.000000335857     0.000002398514

  **** Optimization is complete! (in 7 steps) ****
    Final optimized geometry and variables:
    Molecular point group: c1

    Geometry (in Angstrom), charge = 0, multiplicity = 1:

    H            3.256682415898     0.615296835601    -1.220139768764
    O            2.322082456553     0.536820642661    -1.101014411970
    C            2.100271499372    -0.168626312723     0.003922004526
    C            0.637230936525    -0.397189303743     0.275122214810
    O            2.985654294535    -0.589312830189     0.666144892613
    C           -0.245751561601     0.838974077049     0.091721743520
    H            0.328107958291    -1.195121378869    -0.391823278359
    H            0.567640297573    -0.779626575322     1.283784149219
    C           -1.700176481160     0.617575001670     0.508928000810
    H           -0.205956623074     1.163478298369    -0.940913935573
    H            0.164576678181     1.650274854643     0.684644805536
    C           -2.475763339757    -0.373272006230    -0.357317676416
    H           -2.208548962247     1.576773137531     0.477550592757
    H           -1.733461470776     0.292345803899     1.545976802729
    C           -3.944094062400    -0.479334718809     0.042036244679
    H           -2.406398608870    -0.068365806841    -1.398145821100
    H           -2.023209961749    -1.357669922032    -0.295939561635
    H           -4.470655236227    -1.189219557060    -0.585129113313
    H           -4.444754671792     0.478625359193    -0.049497632754
    H           -4.046654212878    -0.807670468677     1.070964285875

  Mulliken Charges: (a.u.)
   Center  Symbol    Alpha    Beta     Spin     Total
       1     H     0.38113  0.38113  0.00000  0.23774
       2     O     4.16066  4.16066  0.00000 -0.32132
       3     C     2.81258  2.81258  0.00000  0.37484
       4     C     3.08962  3.08962  0.00000 -0.17925
       5     O     4.19368  4.19368  0.00000 -0.38735
       6     C     3.10474  3.10474  0.00000 -0.20948
       7     H     0.44371  0.44371  0.00000  0.11258
       8     H     0.43506  0.43506  0.00000  0.12988
       9     C     3.09764  3.09764  0.00000 -0.19528
      10     H     0.44166  0.44166  0.00000  0.11667
      11     H     0.44307  0.44307  0.00000  0.11386
      12     C     3.08758  3.08758  0.00000 -0.17516
      13     H     0.44608  0.44608  0.00000  0.10785
      14     H     0.45185  0.45185  0.00000  0.09630
      15     C     3.14967  3.14967  0.00000 -0.29933
      16     H     0.45236  0.45236  0.00000  0.09529
      17     H     0.45347  0.45347  0.00000  0.09306
      18     H     0.44742  0.44742  0.00000  0.10516
      19     H     0.45380  0.45380  0.00000  0.09241
      20     H     0.45423  0.45423  0.00000  0.09154

   Total alpha = 32.00000, Total beta = 32.00000, Total charge = -0.00000

*** Psi4 exiting successfully. Buy a developer a beer!
