                              Psi4 1.0.54 Driver

  ==> Input File <==

--------------------------------------------------------------------------
set {
	reference rhf
	basis cc-pvtz
}

set_num_threads( 4 )
memory 2 gb

molecule MOL {
0 1

H	 -1.179271	 -0.694268	 -0.820451
N	 -0.625934	 -0.663929	 -0.000707
C	 -1.028288	 -1.468225	 1.129034
C	 0.468494	 0.129045	 -0.002160
H	 -2.015069	 -1.184809	 1.475338
H	 -0.321399	 -1.311651	 1.925832
H	 -1.039284	 -2.520865	 0.872389
C	 1.785715	 -0.615093	 0.000603
O	 0.413285	 1.323206	 0.000532
H	 1.866994	 -1.243310	 -0.878792
H	 2.591506	 0.100263	 0.006422
H	 1.860358	 -1.250360	 0.875522

	symmetry c1
}
set optking {
	frozen_dihedral = ("
		3 2 4 9
	")
}

ee,wfn = optimize('scf', return_wfn=True)
oeprop( wfn, 'DIPOLE', 'QUADRUPOLE', 'MULLIKEN_CHARGES')
f=open( 'psi4out.xyz', 'w' )
f.write( "12  " )
f.write( str(ee) + "\n" )
f.write( MOL.save_string_xyz() )
f.close()
--------------------------------------------------------------------------

    Molecular point group: c1
  Charge       = 0
  Multiplicity = 1
  Basis Set: CC-PVTZ
  Basis Set:
  @DF-RHF Final Energy:  -247.06393216163815
    Total Energy =                       -247.0639321616383768
    Molecular point group: c1
  Basis Set: CC-PVTZ
  Basis Set:
  Basis Set: CC-PVTZ
  Basis Set:
  @DF-RHF Final Energy:  -247.06999281061945
    Total Energy =                       -247.0699928106194534
  Basis Set: CC-PVTZ
  Basis Set:
  Basis Set: CC-PVTZ
  Basis Set:
  @DF-RHF Final Energy:  -247.07574281082535
    Total Energy =                       -247.0757428108254885
  Basis Set: CC-PVTZ
  Basis Set:
  Basis Set: CC-PVTZ
  Basis Set:
  @DF-RHF Final Energy:  -247.08105586169782
    Total Energy =                       -247.0810558616980757
  Basis Set: CC-PVTZ
  Basis Set:
  @DF-RHF Final Energy:  -247.07829245820761
    Total Energy =                       -247.0782924582074997
  @DF-RHF Final Energy:  -247.08157423657914
    Total Energy =                       -247.0815742365792858
  @DF-RHF Final Energy:  -247.02525067842774
    Total Energy =                       -247.0252506784276534
  @DF-RHF Final Energy:  -247.07833639506708
    Total Energy =                       -247.0783363950669695
  @DF-RHF Final Energy:  -247.07966913212573
    Total Energy =                       -247.0796691321256731
  @DF-RHF Final Energy:  -247.03563316581409
    Total Energy =                       -247.0356331658141471
  @DF-RHF Final Energy:  -247.07306937724661
    Total Energy =                       -247.0730693772465543
  @DF-RHF Final Energy:  -247.08440218376541
    Total Energy =                       -247.0844021837651781
  @DF-RHF Final Energy:  -247.08408313323156
    Total Energy =                       -247.0840831332316725
  @DF-RHF Final Energy:  -247.08559861541625
    Total Energy =                       -247.0855986154164725
  @DF-RHF Final Energy:  -247.08574792941647
    Total Energy =                       -247.0857479294164705
  @DF-RHF Final Energy:  -247.08638852820584
    Total Energy =                       -247.0863885282059300
  @DF-RHF Final Energy:  -247.08656131603453
    Total Energy =                       -247.0865613160344765
  Basis Set: CC-PVTZ
  Basis Set:
  @DF-RHF Final Energy:  -247.08658274074406
    Total Energy =                       -247.0865827407438928
  Basis Set: CC-PVTZ
  Basis Set:
  Basis Set: CC-PVTZ
  Basis Set:
  @DF-RHF Final Energy:  -247.08658867542803
    Total Energy =                       -247.0865886754278336
  Basis Set: CC-PVTZ
  Basis Set:
  Basis Set: CC-PVTZ
  Basis Set:
  @DF-RHF Final Energy:  -247.08659002686056
    Total Energy =                       -247.0865900268607334
  Basis Set: CC-PVTZ
  Basis Set:
  Charge       = 0
  Multiplicity = 1
  Basis Set: CC-PVTZ
  Basis Set:

    Orbital Energies (a.u.)
    -----------------------

    Doubly Occupied:

       1A    -20.532734     2A    -15.564101     3A    -11.343949
       4A    -11.264131     5A    -11.228850     6A     -1.407969
       7A     -1.223613     8A     -1.009940     9A     -0.942350
      10A     -0.770227    11A     -0.681177    12A     -0.663934
      13A     -0.634255    14A     -0.602573    15A     -0.577376
      16A     -0.566318    17A     -0.549516    18A     -0.505156
      19A     -0.436700    20A     -0.399772

  @DF-RHF Final Energy:  -247.08659074494608

   => Energetics <=

    Nuclear Repulsion Energy =            181.3254858575481876
    One-Electron Energy =                -695.0148738025297916
    Two-Electron Energy =                 266.6027972000355248
    DFT Exchange-Correlation Energy =       0.0000000000000000
    Empirical Dispersion Energy =           0.0000000000000000
    PCM Polarization Energy =               0.0000000000000000
    EFP Energy =                            0.0000000000000000
    Total Energy =                       -247.0865907449460792
    Molecular point group: c1
  Basis Set: CC-PVTZ
  Basis Set:

  -Total Gradient:
     Atom            X                  Y                   Z
    ------   -----------------  -----------------  -----------------
       1       -0.000032986207    -0.000115817496     0.000058490497
       2        0.005366895639    -0.005238222341    -0.005036547049
       3       -0.003257360785     0.002025776951     0.005350401843
       4       -0.003408944105     0.008601155933    -0.006812847251
       5        0.000002962378    -0.000009767963    -0.000047890308
       6        0.000001262687     0.000009358090     0.000029065765
       7        0.000025199049     0.000019399896     0.000010064145
       8        0.000004112801    -0.000100248844     0.000120956537
       9        0.001290636661    -0.005234064698     0.006398460069
      10       -0.000003484749     0.000035431166    -0.000020341060
      11        0.000015112852     0.000014199004    -0.000011473302
      12       -0.000003406220    -0.000007199697    -0.000038339886

  **** Optimization is complete! (in 20 steps) ****
    Final optimized geometry and variables:
    Molecular point group: c1

    Geometry (in Angstrom), charge = 0, multiplicity = 1:

    H           -1.691615120812     0.238918642844    -0.048055057683
    N           -0.889439542528    -0.264879779164    -0.365036610558
    C           -0.975437445539    -1.636719108173     0.127736800952
    C            0.225356674293     0.487119274585     0.014573100930
    H           -0.906188112421    -1.697302795355     1.210007246712
    H           -0.198354850811    -2.250870653996    -0.304022341713
    H           -1.924818246662    -2.049738794520    -0.180582176741
    C            1.537024641096     0.082213605601    -0.607756030988
    O            0.135560635990     1.397838468351     0.772327690798
    H            1.511592688458     0.334819799391    -1.661218842701
    H            2.342600197767     0.612797726765    -0.125940909786
    H            1.703516481785    -0.983817417576    -0.533654986844

  Mulliken Charges: (a.u.)
   Center  Symbol    Alpha    Beta     Spin     Total
       1     H     0.43219  0.43219  0.00000  0.13562
       2     N     3.62562  3.62562  0.00000 -0.25124
       3     C     3.08732  3.08732  0.00000 -0.17464
       4     C     2.83673  2.83673  0.00000  0.32653
       5     H     0.45889  0.45889  0.00000  0.08222
       6     H     0.45187  0.45187  0.00000  0.09627
       7     H     0.44532  0.44532  0.00000  0.10936
       8     C     3.14374  3.14374  0.00000 -0.28747
       9     O     4.18480  4.18480  0.00000 -0.36960
      10     H     0.44477  0.44477  0.00000  0.11046
      11     H     0.43670  0.43670  0.00000  0.12660
      12     H     0.45206  0.45206  0.00000  0.09589

   Total alpha = 20.00000, Total beta = 20.00000, Total charge = -0.00000

*** Psi4 exiting successfully. Buy a developer a beer!
