                              Psi4 1.0.54 Driver

  ==> Input File <==

--------------------------------------------------------------------------
set {
	reference rhf
	basis cc-pvtz
}

set_num_threads( 4 )
memory 2 gb

molecule MOL {
0 1

O	 0.395927	 1.296676	 -0.000076
C	 0.503051	 0.114301	 -0.000074
C	 -0.701422	 -0.805636	 -0.000109
C	 1.858118	 -0.556123	 0.000212
C	 -1.658382	 -0.573999	 -1.158838
H	 -0.332781	 -1.828152	 -0.000099
H	 -1.209021	 -0.680979	 0.952909
H	 -1.160902	 -0.721055	 -2.108109
H	 -2.493874	 -1.261254	 -1.099765
H	 -2.044922	 0.436283	 -1.146664
H	 1.961106	 -1.191101	 -0.872843
H	 2.636688	 0.191085	 -0.000109
H	 1.961070	 -1.190284	 0.873873

	symmetry c1
}
set optking {
	frozen_dihedral = ("
		6 3 2 1
	")
}

ee,wfn = optimize('scf', return_wfn=True)
oeprop( wfn, 'DIPOLE', 'QUADRUPOLE', 'MULLIKEN_CHARGES')
f=open( 'psi4out.xyz', 'w' )
f.write( "13  " )
f.write( str(ee) + "\n" )
f.write( MOL.save_string_xyz() )
f.close()
--------------------------------------------------------------------------

    Molecular point group: c1
  Charge       = 0
  Multiplicity = 1
  Basis Set: CC-PVTZ
  Basis Set:
  @DF-RHF Final Energy:  -231.08078662711588
    Total Energy =                       -231.0807866271158275
    Molecular point group: c1
  Basis Set: CC-PVTZ
  Basis Set:
  Basis Set: CC-PVTZ
  Basis Set:
  @DF-RHF Final Energy:  -231.07956250808516
    Total Energy =                       -231.0795625080851892
  Basis Set: CC-PVTZ
  Basis Set:
  Basis Set: CC-PVTZ
  Basis Set:
  @DF-RHF Final Energy:  -231.08141516459244
    Total Energy =                       -231.0814151645923857
  Basis Set: CC-PVTZ
  Basis Set:
  Basis Set: CC-PVTZ
  Basis Set:
  @DF-RHF Final Energy:  -231.08134830308794
    Total Energy =                       -231.0813483030880491
  Basis Set: CC-PVTZ
  Basis Set:
  Basis Set: CC-PVTZ
  Basis Set:
  @DF-RHF Final Energy:  -231.08143349990158
    Total Energy =                       -231.0814334999016637
  Basis Set: CC-PVTZ
  Basis Set:
  Charge       = 0
  Multiplicity = 1
  Basis Set: CC-PVTZ
  Basis Set:

    Orbital Energies (a.u.)
    -----------------------

    Doubly Occupied:

       1A    -20.538077     2A    -11.321265     3A    -11.232046
       4A    -11.228441     5A    -11.219921     6A     -1.398903
       7A     -1.063077     8A     -1.001320     9A     -0.880608
      10A     -0.733340    11A     -0.658967    12A     -0.645988
      13A     -0.613123    14A     -0.589997    15A     -0.572074
      16A     -0.535099    17A     -0.523822    18A     -0.503875
      19A     -0.482472    20A     -0.402553

  @DF-RHF Final Energy:  -231.08145500160805

   => Energetics <=

    Nuclear Repulsion Energy =            177.2020369508537101
    One-Electron Energy =                -664.2770494540094433
    Two-Electron Energy =                 255.9935575015476275
    DFT Exchange-Correlation Energy =       0.0000000000000000
    Empirical Dispersion Energy =           0.0000000000000000
    PCM Polarization Energy =               0.0000000000000000
    EFP Energy =                            0.0000000000000000
    Total Energy =                       -231.0814550016081057
    Molecular point group: c1
  Basis Set: CC-PVTZ
  Basis Set:

  -Total Gradient:
     Atom            X                  Y                   Z
    ------   -----------------  -----------------  -----------------
       1       -0.000176083307    -0.000044351615     0.000766677111
       2        0.000218543290     0.000020702782    -0.000802386593
       3        0.000105641312     0.000032444256    -0.000910920062
       4        0.000046213843    -0.000036964466    -0.000018421446
       5        0.000003773554    -0.000026245551     0.000060696069
       6       -0.000133931291     0.000041882432     0.000836829405
       7       -0.000005959169     0.000003038909     0.000072039595
       8       -0.000021705627    -0.000004634804    -0.000003803829
       9       -0.000003274215    -0.000001587566    -0.000021294346
      10        0.000003479123    -0.000004663640     0.000004544777
      11       -0.000014506285     0.000014535289     0.000014730163
      12       -0.000016255385     0.000001075859     0.000002569932
      13       -0.000005935842     0.000004768117    -0.000001260775

  **** Optimization is complete! (in 6 steps) ****
    Final optimized geometry and variables:
    Molecular point group: c1

    Geometry (in Angstrom), charge = 0, multiplicity = 1:

    O            0.246397235432     1.383452331786     0.274079943818
    C            0.378941220780     0.203805115753     0.308757519173
    C           -0.810707375218    -0.720090017514     0.105927474543
    C            1.719419847450    -0.437069920671     0.569622054090
    C           -1.531911222614    -0.448589206117    -1.212920357901
    H           -0.500715263254    -1.756095197712     0.170794163197
    H           -1.486520497946    -0.537283963636     0.935372536077
    H           -0.885902284132    -0.646182380140    -2.061199386365
    H           -2.404790466256    -1.082828952045    -1.305105049105
    H           -1.847963167225     0.583650422553    -1.264652382491
    H            1.987617562336    -1.079571602400    -0.262747824569
    H            2.475257506401     0.320571584077     0.707805880850
    H            1.660846237364    -1.065944990712     1.451943977209

  Mulliken Charges: (a.u.)
   Center  Symbol    Alpha    Beta     Spin     Total
       1     O     4.17533  4.17533  0.00000 -0.35067
       2     C     2.85546  2.85546  0.00000  0.28908
       3     C     3.09877  3.09877  0.00000 -0.19754
       4     C     3.15200  3.15200  0.00000 -0.30400
       5     C     3.14500  3.14500  0.00000 -0.29001
       6     H     0.44835  0.44835  0.00000  0.10331
       7     H     0.44392  0.44392  0.00000  0.11216
       8     H     0.45547  0.45547  0.00000  0.08906
       9     H     0.44859  0.44859  0.00000  0.10281
      10     H     0.44041  0.44041  0.00000  0.11918
      11     H     0.45039  0.45039  0.00000  0.09921
      12     H     0.43656  0.43656  0.00000  0.12689
      13     H     0.44974  0.44974  0.00000  0.10051

   Total alpha = 20.00000, Total beta = 20.00000, Total charge = -0.00000

*** Psi4 exiting successfully. Buy a developer a beer!
