                              Psi4 1.0.54 Driver

  ==> Input File <==

--------------------------------------------------------------------------
set {
	reference rhf
	basis cc-pvtz
}

set_num_threads( 4 )
memory 2 gb

molecule MOL {
0 1

O	 0.579908	 -0.208253	 0.171904
C	 1.704209	 0.119472	 -0.000093
C	 2.177719	 1.529428	 -0.243923
O	 2.715427	 -0.733672	 0.000025
C	 1.057349	 2.559454	 -0.255746
H	 2.913257	 1.757474	 0.520556
H	 2.719990	 1.527664	 -1.183807
C	 1.571903	 3.974055	 -0.505055
H	 0.527217	 2.521609	 0.689136
H	 0.333580	 2.291378	 -1.017050
C	 0.462250	 5.021380	 -0.520942
H	 2.299120	 4.235743	 0.260403
H	 2.105266	 4.004364	 -1.452601
C	 0.976511	 6.435278	 -0.769619
H	 -0.070527	 4.992651	 0.425356
H	 -0.263823	 4.761900	 -1.286218
H	 1.679732	 6.737271	 -0.000519
H	 0.164347	 7.152982	 -0.774453
H	 1.484562	 6.504799	 -1.725802
C	 4.020999	 -0.192556	 0.000019
H	 4.182809	 0.412891	 -0.879449
H	 4.692590	 -1.035653	 0.000152
H	 4.182726	 0.413087	 0.879368

	symmetry c1
}
set optking {
	frozen_dihedral = ("
		1 2 4 20
	")
}

ee,wfn = optimize('scf', return_wfn=True)
oeprop( wfn, 'DIPOLE', 'QUADRUPOLE', 'MULLIKEN_CHARGES')
f=open( 'psi4out.xyz', 'w' )
f.write( "23  " )
f.write( str(ee) + "\n" )
f.write( MOL.save_string_xyz() )
f.close()
--------------------------------------------------------------------------

    Molecular point group: c1
  Charge       = 0
  Multiplicity = 1
  Basis Set: CC-PVTZ
  Basis Set:
  @DF-RHF Final Energy:  -423.10551049514783
    Total Energy =                       -423.1055104951484509
    Molecular point group: c1
  Basis Set: CC-PVTZ
  Basis Set:
  Basis Set: CC-PVTZ
  Basis Set:
  @DF-RHF Final Energy:  -423.04365835630568
    Total Energy =                       -423.0436583563058548
  Basis Set: CC-PVTZ
  Basis Set:
  Basis Set: CC-PVTZ
  Basis Set:
  @DF-RHF Final Energy:  -423.10672371026163
    Total Energy =                       -423.1067237102621448
  Basis Set: CC-PVTZ
  Basis Set:
  Basis Set: CC-PVTZ
  Basis Set:
  @DF-RHF Final Energy:  -423.11528737604033
    Total Energy =                       -423.1152873760398734
  Basis Set: CC-PVTZ
  Basis Set:
  @DF-RHF Final Energy:  -423.11670305799652
    Total Energy =                       -423.1167030579962329
  Basis Set: CC-PVTZ
  Basis Set:
  @DF-RHF Final Energy:  -423.11652030586311
    Total Energy =                       -423.1165203058632187
  Basis Set: CC-PVTZ
  Basis Set:
  Basis Set: CC-PVTZ
  Basis Set:
  @DF-RHF Final Energy:  -423.11674167902419
    Total Energy =                       -423.1167416790240168
  Basis Set: CC-PVTZ
  Basis Set:
  Basis Set: CC-PVTZ
  Basis Set:
  @DF-RHF Final Energy:  -423.11675109146444
    Total Energy =                       -423.1167510914644936
  Basis Set: CC-PVTZ
  Basis Set:
  Charge       = 0
  Multiplicity = 1
  Basis Set: CC-PVTZ
  Basis Set:

    Orbital Energies (a.u.)
    -----------------------

    Doubly Occupied:

       1A    -20.594544     2A    -20.527605     3A    -11.365982
       4A    -11.293104     5A    -11.243379     6A    -11.221126
       7A    -11.219772     8A    -11.217292     9A    -11.210269
      10A     -1.465669    11A     -1.367133    12A     -1.097702
      13A     -1.042853    14A     -0.987488    15A     -0.953426
      16A     -0.855056    17A     -0.799792    18A     -0.767558
      19A     -0.702374    20A     -0.692149    21A     -0.675112
      22A     -0.656198    23A     -0.613398    24A     -0.604251
      25A     -0.580411    26A     -0.567679    27A     -0.564169
      28A     -0.537532    29A     -0.522781    30A     -0.511117
      31A     -0.490287    32A     -0.472929    33A     -0.469674
      34A     -0.465673    35A     -0.450386    36A     -0.432199

  @DF-RHF Final Energy:  -423.11675139028762

   => Energetics <=

    Nuclear Repulsion Energy =            455.6954424644668507
    One-Electron Energy =               -1479.1482496133671702
    Two-Electron Energy =                 600.3360557586128152
    DFT Exchange-Correlation Energy =       0.0000000000000000
    Empirical Dispersion Energy =           0.0000000000000000
    PCM Polarization Energy =               0.0000000000000000
    EFP Energy =                            0.0000000000000000
    Total Energy =                       -423.1167513902875044
    Molecular point group: c1
  Basis Set: CC-PVTZ
  Basis Set:

  -Total Gradient:
     Atom            X                  Y                   Z
    ------   -----------------  -----------------  -----------------
       1        0.000198114067     0.000328159763     0.000993164368
       2       -0.000235218447    -0.000384939713    -0.000857100164
       3        0.000011593779    -0.000024984190    -0.000018302976
       4       -0.000049140614    -0.000121822169    -0.001019718005
       5       -0.000012131440     0.000002832656     0.000004959249
       6        0.000023859653    -0.000005123167     0.000010203582
       7        0.000003854304     0.000013763441    -0.000010026530
       8        0.000011133924    -0.000012815404     0.000002061812
       9       -0.000003887071     0.000002522963    -0.000002450499
      10       -0.000005691022     0.000004926353    -0.000000180138
      11       -0.000003914246     0.000003527184    -0.000000274595
      12        0.000004322928    -0.000002022074     0.000001373318
      13        0.000003050858    -0.000001455520    -0.000001279192
      14       -0.000004141678    -0.000009949270     0.000003537056
      15       -0.000002352522     0.000003272614     0.000000105286
      16       -0.000004036268     0.000003386698    -0.000001596071
      17        0.000002647054    -0.000000659624     0.000001403327
      18       -0.000004260053     0.000003238689    -0.000000692562
      19        0.000001594880    -0.000001182278    -0.000000626256
      20        0.000000360381     0.000216252580     0.000859110552
      21        0.000040367814    -0.000011646350     0.000045260339
      22        0.000025083538    -0.000006109238     0.000003456206
      23       -0.000001209813     0.000000826049    -0.000012388107

  **** Optimization is complete! (in 9 steps) ****
    Final optimized geometry and variables:
    Molecular point group: c1

    Geometry (in Angstrom), charge = 0, multiplicity = 1:

    O           -1.013167948713    -2.007120620806     0.959718853747
    C            0.087831836992    -1.762546389507     0.616371545669
    C            0.499285877699    -0.431054908937     0.026524935224
    O            1.022180834525    -2.704567512497     0.734802853019
    C           -0.655400535793     0.556382759014    -0.077762705710
    H            1.297957493239    -0.015158803998     0.632095617996
    H            0.930696879097    -0.615149113968    -0.952583522020
    C           -0.223473544354     1.891230259897    -0.677612395032
    H           -1.079116888430     0.712691071399     0.907032810127
    H           -1.444104092379     0.118607238784    -0.677649262071
    C           -1.368340923849     2.893800854672    -0.790783865012
    H            0.570084759353     2.323258707582    -0.071507302774
    H            0.204256797379     1.725707183634    -1.664174533169
    C           -0.938580917209     4.228477877061    -1.390070819935
    H           -1.795723682542     3.061156699206     0.193720877582
    H           -2.160876597358     2.464506451303    -1.396975474802
    H           -0.170080003559     4.699880293946    -0.786336535137
    H           -1.774028817590     4.915670629683    -1.456104368574
    H           -0.538176432534     4.098264102139    -2.390072951574
    C            2.392818569031    -2.458936634421     0.549915556259
    H            2.613899545833    -2.125715507702    -0.455062346811
    H            2.887280449615    -3.401305801744     0.720872531739
    H            2.766024987951    -1.734592772310     1.262031744951

  Mulliken Charges: (a.u.)
   Center  Symbol    Alpha    Beta     Spin     Total
       1     O     4.18129  4.18129  0.00000 -0.36258
       2     C     2.80315  2.80315  0.00000  0.39370
       3     C     3.13896  3.13896  0.00000 -0.27791
       4     O     4.12853  4.12853  0.00000 -0.25705
       5     C     3.08230  3.08230  0.00000 -0.16459
       6     H     0.44130  0.44130  0.00000  0.11740
       7     H     0.43947  0.43947  0.00000  0.12106
       8     C     3.08776  3.08776  0.00000 -0.17553
       9     H     0.44363  0.44363  0.00000  0.11275
      10     H     0.44310  0.44310  0.00000  0.11379
      11     C     3.08527  3.08527  0.00000 -0.17055
      12     H     0.45668  0.45668  0.00000  0.08665
      13     H     0.45642  0.45642  0.00000  0.08716
      14     C     3.15018  3.15018  0.00000 -0.30036
      15     H     0.45246  0.45246  0.00000  0.09509
      16     H     0.45232  0.45232  0.00000  0.09535
      17     H     0.45551  0.45551  0.00000  0.08899
      18     H     0.44712  0.44712  0.00000  0.10575
      19     H     0.45542  0.45542  0.00000  0.08917
      20     C     3.04605  3.04605  0.00000 -0.09210
      21     H     0.46106  0.46106  0.00000  0.07788
      22     H     0.43227  0.43227  0.00000  0.13545
      23     H     0.45976  0.45976  0.00000  0.08047

   Total alpha = 36.00000, Total beta = 36.00000, Total charge = -0.00000

*** Psi4 exiting successfully. Buy a developer a beer!
