  ==> Input File <==

--------------------------------------------------------------------------
set {
	reference rhf
	basis 6-31G*
}

set_num_threads( 4 )
memory 2 gb

molecule MOL {
0 1

H	 1.098760	 -0.601048	 -0.229443
C	 0.850167	 0.441173	 0.000644
C	 -0.623425	 0.760064	 0.000248
O	 1.713366	 1.224810	 0.229871
C	 -1.518387	 -0.473136	 -0.000101
H	 -0.818289	 1.390622	 -0.866171
H	 -0.818694	 1.390413	 0.866696
H	 -1.333417	 -1.085530	 -0.874338
H	 -2.563510	 -0.183466	 -0.000351
H	 -1.333864	 -1.085676	 0.874123

	symmetry c1
}
set optking {
	frozen_dihedral = ("
		4 2 3 6
	")
}

ee = optimize('scf')
oeprop('DIPOLE', 'QUADRUPOLE', 'MULLIKEN_CHARGES')
f=open( 'psi4out.xyz', 'w' )
f.write( "10  " )
f.write( str(ee) + "\n" )
f.write( MOL.save_string_xyz() )
f.close()
--------------------------------------------------------------------------

    Molecular point group: c1
  Charge       = 0
  Multiplicity = 1
  Basis Set: 6-31G*
  Basis Set:
  @DF-RHF Final Energy:  -191.94912868087835
    Total Energy =                       -191.9491286808783457
    Molecular point group: c1
  Basis Set: 6-31G*
  Basis Set:
  Basis Set: 6-31G*
  Basis Set:
  @DF-RHF Final Energy:  -191.94874186801923
    Total Energy =                       -191.9487418680192548
  Basis Set: 6-31G*
  Basis Set:
  Basis Set: 6-31G*
  Basis Set:
  @DF-RHF Final Energy:  -191.94920498945996
    Total Energy =                       -191.9492049894599859
  Basis Set: 6-31G*
  Basis Set:
  Charge       = 0
  Multiplicity = 1
  Basis Set: 6-31G*
  Basis Set:

    Orbital Energies (a.u.)
    -----------------------

    Doubly Occupied:

       1A    -20.563052     2A    -11.329045     3A    -11.239383
       4A    -11.232107     5A     -1.404064     6A     -1.066422
       7A     -0.901887     8A     -0.798150     9A     -0.659466
      10A     -0.640304    11A     -0.635566    12A     -0.553750
      13A     -0.543962    14A     -0.525186    15A     -0.489505
      16A     -0.412679

  @DF-RHF Final Energy:  -191.94933205723495

   => Energetics <=

    Nuclear Repulsion Energy =            116.8462367643720370
    One-Electron Energy =                -491.6020818329525355
    Two-Electron Energy =                 182.8065130113456007
    DFT Exchange-Correlation Energy =       0.0000000000000000
    Empirical Dispersion Energy =           0.0000000000000000
    PCM Polarization Energy =               0.0000000000000000
    EFP Energy =                            0.0000000000000000
    Total Energy =                       -191.9493320572348694
    Molecular point group: c1
  Basis Set: 6-31G*
  Basis Set:

  -Total Gradient:
     Atom            X                  Y                   Z
    ------   -----------------  -----------------  -----------------
       1        0.000087461223    -0.000069020776    -0.000033247916
       2       -0.000079298299     0.000069134635     0.000983565273
       3       -0.000008422824    -0.000481696125    -0.000587160627
       4        0.000083799346     0.000048482141    -0.000624275325
       5       -0.000091391165     0.000033007091    -0.000010641459
       6        0.000073532675     0.000499134881     0.000284350144
       7       -0.000050925935    -0.000016994813    -0.000032622795
       8       -0.000009809708    -0.000001638363    -0.000035035975
       9        0.000003689546    -0.000058093598    -0.000002600891
      10       -0.000008634865    -0.000022315076     0.000057669571

  **** Optimization is complete! (in 4 steps) ****
    Final optimized geometry and variables:
    Molecular point group: c1

    Geometry (in Angstrom), charge = 0, multiplicity = 1:

    H            1.015919162469    -1.088716088670    -0.294324733617
    C            0.751230113812    -0.051240088081    -0.056393760279
    C           -0.726447787823     0.275746639229    -0.050481800327
    O            1.603363851827     0.747086959606     0.160781668207
    C           -1.624882375598    -0.958835445899    -0.058302473253
    H           -0.918126937375     0.896006491441    -0.923122794370
    H           -0.920090685585     0.902424708598     0.813864845943
    H           -1.444022440041    -1.573738912238    -0.934998808001
    H           -2.670650355383    -0.674133054065    -0.066425061295
    H           -1.457459437586    -1.575126994377     0.820031351976

  Mulliken Charges: (a.u.)
   Center  Symbol    Alpha    Beta     Spin     Total
       1     H     0.42913  0.42913  0.00000  0.14175
       2     C     2.83665  2.83665  0.00000  0.32671
       3     C     3.20521  3.20521  0.00000 -0.41042
       4     O     4.23874  4.23874  0.00000 -0.47747
       5     C     3.25299  3.25299  0.00000 -0.50597
       6     H     0.39929  0.39929  0.00000  0.20143
       7     H     0.39746  0.39746  0.00000  0.20508
       8     H     0.41628  0.41628  0.00000  0.16744
       9     H     0.40958  0.40958  0.00000  0.18084
      10     H     0.41469  0.41469  0.00000  0.17062

   Total alpha = 16.00000, Total beta = 16.00000, Total charge = -0.00000
