                              Psi4 1.0.54 Driver

  ==> Input File <==

--------------------------------------------------------------------------
set {
	reference rhf
	basis cc-pvtz
}

set_num_threads( 4 )
memory 2 gb

molecule MOL {
0 1

H	 -1.391009	 1.045102	 -2.125915
C	 -1.063166	 0.572876	 -1.223997
C	 -1.921220	 0.444315	 -0.085415
C	 0.173698	 0.079566	 -1.124775
H	 -2.922007	 0.830741	 -0.132913
C	 -1.486262	 -0.150445	 1.029776
H	 0.874050	 0.137816	 -1.934253
N	 0.640204	 -0.530428	 -0.000115
H	 -2.099679	 -0.264177	 1.899687
C	 -0.137141	 -0.687261	 1.134331
C	 2.006991	 -1.033007	 -0.000020
O	 0.289851	 -1.227899	 2.118013
H	 2.182444	 -1.636914	 -0.880881
H	 2.678769	 -0.195442	 -0.002236
H	 2.183828	 -1.633244	 0.883082

	symmetry c1
}
set optking {
	frozen_dihedral = ("
		10 8 11 13
	")
}

ee,wfn = optimize('scf', return_wfn=True)
oeprop( wfn, 'DIPOLE', 'QUADRUPOLE', 'MULLIKEN_CHARGES')
f=open( 'psi4out.xyz', 'w' )
f.write( "15  " )
f.write( str(ee) + "\n" )
f.write( MOL.save_string_xyz() )
f.close()
--------------------------------------------------------------------------

    Molecular point group: c1
  Charge       = 0
  Multiplicity = 1
  Basis Set: CC-PVTZ
  Basis Set:
  @DF-RHF Final Energy:  -360.72223853723318
    Total Energy =                       -360.7222385372332383
    Molecular point group: c1
  Basis Set: CC-PVTZ
  Basis Set:
  Basis Set: CC-PVTZ
  Basis Set:
  @DF-RHF Final Energy:  -360.72254366640152
    Total Energy =                       -360.7225436664017479
  Basis Set: CC-PVTZ
  Basis Set:
  Basis Set: CC-PVTZ
  Basis Set:
  @DF-RHF Final Energy:  -360.72256562754160
    Total Energy =                       -360.7225656275415986
  Basis Set: CC-PVTZ
  Basis Set:
  Basis Set: CC-PVTZ
  Basis Set:
  @DF-RHF Final Energy:  -360.72257525109410
    Total Energy =                       -360.7225752510940993
  Basis Set: CC-PVTZ
  Basis Set:
  Charge       = 0
  Multiplicity = 1
  Basis Set: CC-PVTZ
  Basis Set:

    Orbital Energies (a.u.)
    -----------------------

    Doubly Occupied:

       1A    -20.501771     2A    -15.616489     3A    -11.339557
       4A    -11.293213     5A    -11.263523     6A    -11.258214
       7A    -11.230679     8A    -11.228377     9A     -1.390539
      10A     -1.285758    11A     -1.118803    12A     -1.028869
      13A     -0.972300    14A     -0.875740    15A     -0.838573
      16A     -0.719113    17A     -0.703072    18A     -0.663386
      19A     -0.652774    20A     -0.625220    21A     -0.611922
      22A     -0.573883    23A     -0.558159    24A     -0.550438
      25A     -0.529338    26A     -0.482813    27A     -0.420142
      28A     -0.410819    29A     -0.311002

  @DF-RHF Final Energy:  -360.72258441629037

   => Energetics <=

    Nuclear Repulsion Energy =            358.4526298036207663
    One-Electron Energy =               -1200.2414601755572221
    Two-Electron Energy =                 481.0662459556457407
    DFT Exchange-Correlation Energy =       0.0000000000000000
    Empirical Dispersion Energy =           0.0000000000000000
    PCM Polarization Energy =               0.0000000000000000
    EFP Energy =                            0.0000000000000000
    Total Energy =                       -360.7225844162907151
    Molecular point group: c1
  Basis Set: CC-PVTZ
  Basis Set:

  -Total Gradient:
     Atom            X                  Y                   Z
    ------   -----------------  -----------------  -----------------
       1        0.000004645521     0.000009277381     0.000007600962
       2        0.000023826383     0.000032194812     0.000021949100
       3       -0.000018893666    -0.000036940489    -0.000004209589
       4       -0.000043942651    -0.000078451971    -0.000042282480
       5        0.000000664847     0.000008291078     0.000006201193
       6       -0.000003243993     0.000018778542     0.000008980299
       7        0.000014486837     0.000013456512     0.000012247838
       8        0.000101362971     0.000323633932     0.000205990007
       9       -0.000001257036     0.000005570003    -0.000001628581
      10       -0.000127805343    -0.000209394957    -0.000187766222
      11        0.000088526098     0.000239203733    -0.000267391330
      12        0.000034393843    -0.000021259214     0.000043482189
      13       -0.000085563248    -0.000249678796     0.000157466193
      14       -0.000019684245    -0.000019512671    -0.000000832912
      15        0.000032483680    -0.000035167897     0.000040193332

  **** Optimization is complete! (in 5 steps) ****
    Final optimized geometry and variables:
    Molecular point group: c1

    Geometry (in Angstrom), charge = 0, multiplicity = 1:

    H           -1.223140746545     1.455929647882    -2.369733655328
    C           -0.909426890762     0.962778551059    -1.474000668806
    C           -1.776051663755     0.832407631254    -0.341983336322
    C            0.316035094729     0.440924248460    -1.378234089870
    H           -2.768903629336     1.238962141537    -0.388200097530
    C           -1.358727723098     0.211137723649     0.765403854847
    H            1.020684783165     0.497168870416    -2.184038882101
    N            0.763717002879    -0.198365117515    -0.262304140180
    H           -1.978343511292     0.095864955928     1.630795534232
    C           -0.019037308557    -0.349249741724     0.869149569492
    C            2.121965534264    -0.723220657063    -0.257849190100
    O            0.397678990295    -0.902932997981     1.849847257844
    H            2.285382809557    -1.324296462860    -1.142123252979
    H            2.841985913721     0.085196347442    -0.237449403991
    H            2.251018132830    -1.331712370795     0.617703145444

  Mulliken Charges: (a.u.)
   Center  Symbol    Alpha    Beta     Spin     Total
       1     H     0.41409  0.41409  0.00000  0.17183
       2     C     3.10222  3.10222  0.00000 -0.20443
       3     C     3.06190  3.06190  0.00000 -0.12380
       4     C     3.03296  3.03296  0.00000 -0.06593
       5     H     0.41834  0.41834  0.00000  0.16333
       6     C     3.11621  3.11621  0.00000 -0.23243
       7     H     0.42058  0.42058  0.00000  0.15883
       8     N     3.51260  3.51260  0.00000 -0.02520
       9     H     0.40888  0.40888  0.00000  0.18223
      10     C     2.84548  2.84548  0.00000  0.30905
      11     C     3.10869  3.10869  0.00000 -0.21739
      12     O     4.23658  4.23658  0.00000 -0.47317
      13     H     0.45198  0.45198  0.00000  0.09603
      14     H     0.44806  0.44806  0.00000  0.10388
      15     H     0.42141  0.42141  0.00000  0.15717

   Total alpha = 29.00000, Total beta = 29.00000, Total charge = -0.00000

*** Psi4 exiting successfully. Buy a developer a beer!
