  ==> Input File <==

--------------------------------------------------------------------------
set {
	reference rhf
	basis 6-31G*
}

set_num_threads( 4 )
memory 2 gb

molecule MOL {
0 1

O	 -1.276010	 1.052711	 -0.768302
C	 -1.204840	 0.067374	 -0.106123
C	 -2.388195	 -0.672128	 0.458071
O	 -0.067104	 -0.527208	 0.221609
H	 -2.388023	 -1.694060	 0.097175
H	 -3.300579	 -0.174919	 0.164318
H	 -2.315377	 -0.706351	 1.539059
C	 0.172465	 -0.863782	 1.595382
C	 1.681630	 -0.909663	 1.756323
C	 -0.502199	 -2.186077	 1.925547
H	 -0.245123	 -0.077773	 2.207197
H	 2.123636	 0.045485	 1.496381
H	 1.941047	 -1.138963	 2.784650
H	 2.112599	 -1.671532	 1.115639
H	 -0.305381	 -2.457896	 2.957725
H	 -1.574314	 -2.113443	 1.794131
H	 -0.121955	 -2.975922	 1.285572

	symmetry c1
}
set optking {
	frozen_dihedral = ("
		8 4 2 1
	")
}

ee = optimize('scf')
oeprop('DIPOLE', 'QUADRUPOLE', 'MULLIKEN_CHARGES')
f=open( 'psi4out.xyz', 'w' )
f.write( "17  " )
f.write( str(ee) + "\n" )
f.write( MOL.save_string_xyz() )
f.close()
--------------------------------------------------------------------------

    Molecular point group: c1
  Charge       = 0
  Multiplicity = 1
  Basis Set: 6-31G*
  Basis Set:
  @DF-RHF Final Energy:  -344.87402985279977
    Total Energy =                       -344.8740298527998220
    Molecular point group: c1
  Basis Set: 6-31G*
  Basis Set:
  Basis Set: 6-31G*
  Basis Set:
  @DF-RHF Final Energy:  -344.88929602541981
    Total Energy =                       -344.8892960254196396
  Basis Set: 6-31G*
  Basis Set:
  Basis Set: 6-31G*
  Basis Set:
  @DF-RHF Final Energy:  -344.89185243296055
    Total Energy =                       -344.8918524329606612
  Basis Set: 6-31G*
  Basis Set:
  Basis Set: 6-31G*
  Basis Set:
  @DF-RHF Final Energy:  -344.89190798644796
    Total Energy =                       -344.8919079864477908
  Basis Set: 6-31G*
  Basis Set:
  @DF-RHF Final Energy:  -344.89403821404107
    Total Energy =                       -344.8940382140411316
  @DF-RHF Final Energy:  -344.89443532744497
    Total Energy =                       -344.8944353274446826
  @DF-RHF Final Energy:  -344.89468741226244
    Total Energy =                       -344.8946874122622148
  @DF-RHF Final Energy:  -344.89476495711284
    Total Energy =                       -344.8947649571128977
  @DF-RHF Final Energy:  -344.89478289782255
    Total Energy =                       -344.8947828978223242
  Basis Set: 6-31G*
  Basis Set:
  @DF-RHF Final Energy:  -344.89478765372536
    Total Energy =                       -344.8947876537253023
  Basis Set: 6-31G*
  Basis Set:
  Basis Set: 6-31G*
  Basis Set:
  @DF-RHF Final Energy:  -344.89479006574925
    Total Energy =                       -344.8947900657493619
  Basis Set: 6-31G*
  Basis Set:
  Basis Set: 6-31G*
  Basis Set:
  @DF-RHF Final Energy:  -344.89479261081237
    Total Energy =                       -344.8947926108124307
  Basis Set: 6-31G*
  Basis Set:
  Charge       = 0
  Multiplicity = 1
  Basis Set: 6-31G*
  Basis Set:

    Orbital Energies (a.u.)
    -----------------------

    Doubly Occupied:

       1A    -20.586844     2A    -20.546449     3A    -11.376156
       4A    -11.305298     5A    -11.239450     6A    -11.227360
       7A    -11.222127     8A     -1.456506     9A     -1.364305
      10A     -1.076318    11A     -1.014641    12A     -0.954447
      13A     -0.853940    14A     -0.776567    15A     -0.697535
      16A     -0.666847    17A     -0.654844    18A     -0.612935
      19A     -0.602123    20A     -0.589345    21A     -0.560278
      22A     -0.556238    23A     -0.551403    24A     -0.523025
      25A     -0.507023    26A     -0.480614    27A     -0.444143
      28A     -0.434273

  @DF-RHF Final Energy:  -344.89479314590687

   => Energetics <=

    Nuclear Repulsion Energy =            321.5353233159411275
    One-Electron Energy =               -1107.0981582803117362
    Two-Electron Energy =                 440.6680418184638484
    DFT Exchange-Correlation Energy =       0.0000000000000000
    Empirical Dispersion Energy =           0.0000000000000000
    PCM Polarization Energy =               0.0000000000000000
    EFP Energy =                            0.0000000000000000
    Total Energy =                       -344.8947931459067604
    Molecular point group: c1
  Basis Set: 6-31G*
  Basis Set:

  -Total Gradient:
     Atom            X                  Y                   Z
    ------   -----------------  -----------------  -----------------
       1        0.000551208157     0.001385325846     0.001451524618
       2        0.000034105446    -0.001051374806    -0.001953689008
       3       -0.000031796371    -0.000081411241    -0.000133412897
       4       -0.001809325771    -0.001717741244     0.000714510816
       5       -0.000004113141    -0.000006323371     0.000000868711
       6       -0.000001468608    -0.000003596461    -0.000000129369
       7        0.000002107526    -0.000010503256     0.000011206542
       8        0.001262279229     0.001489342856    -0.000082756520
       9       -0.000000793599     0.000000714698    -0.000007377995
      10        0.000003178420    -0.000008201038    -0.000002042184
      11       -0.000004247459     0.000000192994     0.000005384182
      12       -0.000000415715    -0.000001846014     0.000001643657
      13       -0.000000354150    -0.000001314885     0.000001205751
      14        0.000004776571     0.000000182841    -0.000000389838
      15        0.000005347900     0.000002981138    -0.000004255049
      16       -0.000012468042     0.000008117925    -0.000004650462
      17        0.000001979607    -0.000004545981     0.000002359048

  **** Optimization is complete! (in 13 steps) ****
    Final optimized geometry and variables:
    Molecular point group: c1

    Geometry (in Angstrom), charge = 0, multiplicity = 1:

    O           -0.490715943938     1.454379630029    -1.695836349379
    C           -0.692052558356     0.637811802315    -0.864558276938
    C           -2.058789371599     0.394141964643    -0.267108982920
    O            0.291235960188    -0.183048827157    -0.465834139772
    H           -2.386904758594    -0.605532967047    -0.531257715306
    H           -2.751158492655     1.119982940779    -0.666112913258
    H           -2.051996844422     0.462066017834     0.813927906442
    C            0.608200355153    -0.388829140334     0.912511864460
    C            2.087356125475    -0.078634745342     1.074464751329
    C            0.259250832165    -1.817498845897     1.298897308034
    H            0.036255774889     0.304774328647     1.518297943439
    H            2.295258252322     0.940885790574     0.772709894838
    H            2.390531579339    -0.204639185424     2.109109042313
    H            2.679746952646    -0.743487773814     0.456100647173
    H            0.527920969256    -2.008311431475     2.332848184505
    H           -0.801819299718    -2.008236192271     1.183504137673
    H            0.799477097239    -2.515080870597     0.668382523532

  Mulliken Charges: (a.u.)
   Center  Symbol    Alpha    Beta     Spin     Total
       1     O     4.25506  4.25506  0.00000 -0.51013
       2     C     2.62406  2.62406  0.00000  0.75188
       3     C     3.29852  3.29852  0.00000 -0.59704
       4     O     4.31398  4.31398  0.00000 -0.62797
       5     H     0.39942  0.39942  0.00000  0.20115
       6     H     0.39215  0.39215  0.00000  0.21571
       7     H     0.40687  0.40687  0.00000  0.18625
       8     C     2.93144  2.93144  0.00000  0.13712
       9     C     3.23635  3.23635  0.00000 -0.47271
      10     C     3.24189  3.24189  0.00000 -0.48377
      11     H     0.42004  0.42004  0.00000  0.15992
      12     H     0.40690  0.40690  0.00000  0.18619
      13     H     0.42065  0.42065  0.00000  0.15870
      14     H     0.40998  0.40998  0.00000  0.18005
      15     H     0.41784  0.41784  0.00000  0.16431
      16     H     0.41586  0.41586  0.00000  0.16828
      17     H     0.40898  0.40898  0.00000  0.18203

   Total alpha = 28.00000, Total beta = 28.00000, Total charge =  0.00000
