  ==> Input File <==

--------------------------------------------------------------------------
set {
	reference rhf
	basis cc-pvtz
}

set_num_threads( 4 )
memory 2 gb

molecule MOL {
0 1

H	 -1.835082	 1.385983	 0.000069
C	 -1.300516	 0.441153	 -0.000028
O	 -0.006604	 0.654344	 -0.000106
O	 -1.828920	 -0.612308	 0.000113
C	 0.804152	 -0.191257	 0.810730
C	 2.239448	 0.247683	 0.643523
H	 0.661224	 -1.216004	 0.498605
H	 0.478211	 -0.107460	 1.837718
H	 2.550850	 0.162164	 -0.389766
H	 2.884466	 -0.377533	 1.249255
H	 2.366915	 1.276296	 0.956056

	symmetry c1
}
set optking {
	frozen_dihedral = ("
		5 3 2 4
	")
}

ee = optimize('scf')
oeprop('DIPOLE', 'QUADRUPOLE', 'MULLIKEN_CHARGES')
f=open( 'psi4out.xyz', 'w' )
f.write( "11  " )
f.write( str(ee) + "\n" )
f.write( MOL.save_string_xyz() )
f.close()
--------------------------------------------------------------------------

    Molecular point group: c1
  Charge       = 0
  Multiplicity = 1
  Basis Set: CC-PVTZ
  Basis Set:
  @DF-RHF Final Energy:  -266.92335232463608
    Total Energy =                       -266.9233523246360278
    Molecular point group: c1
  Basis Set: CC-PVTZ
  Basis Set:
  Basis Set: CC-PVTZ
  Basis Set:
  @DF-RHF Final Energy:  -266.91565291742342
    Total Energy =                       -266.9156529174233583
  Basis Set: CC-PVTZ
  Basis Set:
  Basis Set: CC-PVTZ
  Basis Set:
  @DF-RHF Final Energy:  -266.92380284724902
    Total Energy =                       -266.9238028472490214
  Basis Set: CC-PVTZ
  Basis Set:
  Basis Set: CC-PVTZ
  Basis Set:
  @DF-RHF Final Energy:  -266.92404944133079
    Total Energy =                       -266.9240494413310216
  Basis Set: CC-PVTZ
  Basis Set:
  Basis Set: CC-PVTZ
  Basis Set:
  @DF-RHF Final Energy:  -266.92405257155542
    Total Energy =                       -266.9240525715554213
  Basis Set: CC-PVTZ
  Basis Set:
  Charge       = 0
  Multiplicity = 1
  Basis Set: CC-PVTZ
  Basis Set:

    Orbital Energies (a.u.)
    -----------------------

    Doubly Occupied:

       1A    -20.597312     2A    -20.550598     3A    -11.371452
       4A    -11.293044     5A    -11.225678     6A     -1.474286
       7A     -1.378572     8A     -1.052527     9A     -0.899767
      10A     -0.810761    11A     -0.741660    12A     -0.690273
      13A     -0.675825    14A     -0.610975    15A     -0.565671
      16A     -0.556601    17A     -0.525117    18A     -0.513604
      19A     -0.466176    20A     -0.453570

  @DF-RHF Final Energy:  -266.92405314161709

   => Energetics <=

    Nuclear Repulsion Energy =            178.7461847421022298
    One-Electron Energy =                -718.4335382052054229
    Two-Electron Energy =                 272.7633003214862129
    DFT Exchange-Correlation Energy =       0.0000000000000000
    Empirical Dispersion Energy =           0.0000000000000000
    PCM Polarization Energy =               0.0000000000000000
    EFP Energy =                            0.0000000000000000
    Total Energy =                       -266.9240531416169233
    Molecular point group: c1
  Basis Set: CC-PVTZ
  Basis Set:

  -Total Gradient:
     Atom            X                  Y                   Z
    ------   -----------------  -----------------  -----------------
       1        0.000014212322    -0.000014354459     0.000006823611
       2        0.000222579280     0.002768346285     0.018480324844
       3        0.000583069573    -0.007543260471    -0.014200423412
       4       -0.000287176256    -0.000168136801    -0.010196895670
       5       -0.000543831006     0.004949589349     0.005908350616
       6        0.000005284372     0.000005173221     0.000007150966
       7       -0.000002385112     0.000004054292     0.000007356862
       8        0.000003439858     0.000003105311    -0.000018947320
       9       -0.000004547016    -0.000002116358     0.000005009102
      10        0.000008536908    -0.000001014941     0.000002192533
      11        0.000000817080    -0.000001385429    -0.000000942133

  **** Optimization is complete! (in 6 steps) ****
    Final optimized geometry and variables:
    Molecular point group: c1

    Geometry (in Angstrom), charge = 0, multiplicity = 1:

    H           -1.817783045782     1.291662469674    -0.369130199897
    C           -1.290151438777     0.346451258616    -0.276093203287
    O            0.016531114831     0.534829487262    -0.307792068737
    O           -1.833942328131    -0.696354818273    -0.252473573001
    C            0.835583268014    -0.315266411818     0.492232830859
    C            2.265973323041     0.144133776216     0.342322943469
    H            0.713137606649    -1.338989292714     0.170256610573
    H            0.504457262110    -0.240735401784     1.520242801918
    H            2.584076024898     0.070619773347    -0.689709606354
    H            2.914661552995    -0.478371283415     0.947085035763
    H            2.376994592081     1.171849144785     0.663559507511

  Mulliken Charges: (a.u.)
   Center  Symbol    Alpha    Beta     Spin     Total
       1     H     0.45446  0.45446  0.00000  0.09108
       2     C     2.84158  2.84158  0.00000  0.31683
       3     O     4.15167  4.15167  0.00000 -0.30334
       4     O     4.18453  4.18453  0.00000 -0.36906
       5     C     2.97161  2.97161  0.00000  0.05677
       6     C     3.13367  3.13367  0.00000 -0.26733
       7     H     0.44782  0.44782  0.00000  0.10436
       8     H     0.46046  0.46046  0.00000  0.07909
       9     H     0.44851  0.44851  0.00000  0.10298
      10     H     0.45488  0.45488  0.00000  0.09025
      11     H     0.45081  0.45081  0.00000  0.09837

   Total alpha = 20.00000, Total beta = 20.00000, Total charge = -0.00000
