                              Psi4 1.0.54 Driver

  ==> Input File <==

--------------------------------------------------------------------------
set {
	reference rhf
	basis cc-pvtz
}

set_num_threads( 4 )
memory 2 gb

molecule MOL {
0 1

H	 2.168389	 -2.732781	 4.217228
C	 1.942827	 -2.584602	 3.167812
C	 0.702370	 -1.715957	 2.990685
H	 2.810914	 -2.126390	 2.705744
H	 1.807737	 -3.562695	 2.718255
C	 0.348313	 -1.482538	 1.529477
H	 0.848877	 -0.754466	 3.470097
H	 -0.140568	 -2.185971	 3.491801
N	 -0.817866	 -0.636581	 1.394873
H	 1.179750	 -0.990725	 1.033492
H	 0.218384	 -2.447093	 1.029641
C	 -1.215959	 -0.382435	 0.027143
H	 -1.582333	 -1.033611	 1.900122
C	 -2.451944	 0.502410	 -0.038737
H	 -0.392141	 0.114742	 -0.476161
H	 -1.402480	 -1.307180	 -0.527054
C	 -3.752217	 -0.292550	 0.005776
H	 -2.407325	 1.093801	 -0.946480
H	 -2.431979	 1.206234	 0.790023
H	 -3.817783	 -0.982946	 -0.828547
H	 -4.612613	 0.364348	 -0.042306
H	 -3.830160	 -0.871666	 0.919868

	symmetry c1
}
set optking {
	frozen_dihedral = ("
		15 12 14 18
	")
}

ee,wfn = optimize('scf', return_wfn=True)
oeprop( wfn, 'DIPOLE', 'QUADRUPOLE', 'MULLIKEN_CHARGES')
f=open( 'psi4out.xyz', 'w' )
f.write( "22  " )
f.write( str(ee) + "\n" )
f.write( MOL.save_string_xyz() )
f.close()
--------------------------------------------------------------------------

    Molecular point group: c1
  Charge       = 0
  Multiplicity = 1
  Basis Set: CC-PVTZ
  Basis Set:
  @DF-RHF Final Energy:  -290.48678639267774
    Total Energy =                       -290.4867863926779137
    Molecular point group: c1
  Basis Set: CC-PVTZ
  Basis Set:
  Basis Set: CC-PVTZ
  Basis Set:
  @DF-RHF Final Energy:  -290.48708720294036
    Total Energy =                       -290.4870872029405291
  Basis Set: CC-PVTZ
  Basis Set:
  Basis Set: CC-PVTZ
  Basis Set:
  @DF-RHF Final Energy:  -290.48715018223021
    Total Energy =                       -290.4871501822299820
  Basis Set: CC-PVTZ
  Basis Set:
  Basis Set: CC-PVTZ
  Basis Set:
  @DF-RHF Final Energy:  -290.48715138649698
    Total Energy =                       -290.4871513864967483
  Basis Set: CC-PVTZ
  Basis Set:
  Charge       = 0
  Multiplicity = 1
  Basis Set: CC-PVTZ
  Basis Set:

    Orbital Energies (a.u.)
    -----------------------

    Doubly Occupied:

       1A    -15.528486     2A    -11.236228     3A    -11.236169
       4A    -11.211849     5A    -11.211679     6A    -11.209215
       7A    -11.207564     8A     -1.207483     9A     -1.059697
      10A     -1.025466    11A     -0.929305    12A     -0.876698
      13A     -0.807700    14A     -0.792643    15A     -0.667518
      16A     -0.635978    17A     -0.620987    18A     -0.590646
      19A     -0.576263    20A     -0.569264    21A     -0.549991
      22A     -0.527737    23A     -0.507030    24A     -0.488358
      25A     -0.479592    26A     -0.470355    27A     -0.467896
      28A     -0.452375    29A     -0.360845

  @DF-RHF Final Energy:  -290.48715152726425

   => Energetics <=

    Nuclear Repulsion Energy =            316.5432216134772716
    One-Electron Energy =               -1019.0507111331307897
    Two-Electron Energy =                 412.0203379923893863
    DFT Exchange-Correlation Energy =       0.0000000000000000
    Empirical Dispersion Energy =           0.0000000000000000
    PCM Polarization Energy =               0.0000000000000000
    EFP Energy =                            0.0000000000000000
    Total Energy =                       -290.4871515272641318
    Molecular point group: c1
  Basis Set: CC-PVTZ
  Basis Set:

  -Total Gradient:
     Atom            X                  Y                   Z
    ------   -----------------  -----------------  -----------------
       1       -0.000003881538     0.000001497204    -0.000001011658
       2       -0.000002577242    -0.000000737212    -0.000004874570
       3       -0.000001294345    -0.000003513159     0.000003627780
       4        0.000000796949     0.000001418815     0.000000275709
       5        0.000001075829    -0.000003075263    -0.000001273537
       6        0.000032823264    -0.000009287080     0.000005398649
       7        0.000000934720     0.000003983687    -0.000003740742
       8       -0.000001850525    -0.000002329521     0.000003574002
       9       -0.000009990322     0.000011586162    -0.000014407041
      10       -0.000000262938     0.000002904391     0.000000747708
      11       -0.000005124817     0.000002934051     0.000003101875
      12        0.001513535961     0.002634580932     0.004327918808
      13       -0.000006812132    -0.000006998663    -0.000000191223
      14       -0.002351760032    -0.003693057647    -0.002977188127
      15       -0.000901921791    -0.001610752574    -0.003155177139
      16       -0.000005302924    -0.000011193684     0.000004892520
      17        0.000012525055     0.000010618511     0.000002058925
      18        0.001726668977     0.002660791614     0.001794508258
      19       -0.000000917861     0.000000819098     0.000009707044
      20        0.000006710709     0.000005565473     0.000003257991
      21       -0.000003129111     0.000002220173     0.000001496479
      22       -0.000000245888     0.000002024693    -0.000002701708

  **** Optimization is complete! (in 5 steps) ****
    Final optimized geometry and variables:
    Molecular point group: c1

    Geometry (in Angstrom), charge = 0, multiplicity = 1:

    H            2.881815337030    -1.859626097445     2.909597714121
    C            2.659624689862    -1.698270763605     1.861392742971
    C            1.442090094175    -0.796460847913     1.691363358267
    H            3.539025917880    -1.259479359297     1.401876870518
    H            2.498791005274    -2.669307634522     1.405057299193
    C            1.094221536125    -0.542719749693     0.232067282469
    H            1.613519920692     0.157132216048     2.178151671645
    H            0.587247730681    -1.248462345345     2.188931281950
    N           -0.049684307791     0.334280322779     0.104112513169
    H            1.937796581113    -0.068256961692    -0.260463887529
    H            0.939486967146    -1.499434835690    -0.275491294726
    C           -0.431245345363     0.614985289845    -1.263994105834
    H           -0.824438351174    -0.052713706169     0.600781934122
    C           -1.684850050584     1.485664619208    -1.348405363335
    H            0.393411383193     1.116462087352    -1.758581798971
    H           -0.596619808759    -0.303362079422    -1.836807288824
    C           -2.994614178043     0.705664038903    -1.288977744004
    H           -1.645643902066     2.076991201996    -2.257088106232
    H           -1.648013961649     2.201135020257    -0.533304550574
    H           -3.079571791387     0.019445127758    -2.124640059101
    H           -3.847595955991     1.373586504333    -1.320349803434
    H           -3.073660162648     0.123396551349    -0.376459227576

  Mulliken Charges: (a.u.)
   Center  Symbol    Alpha    Beta     Spin     Total
       1     H     0.44771  0.44771  0.00000  0.10457
       2     C     3.15332  3.15332  0.00000 -0.30665
       3     C     3.08028  3.08028  0.00000 -0.16056
       4     H     0.45467  0.45467  0.00000  0.09066
       5     H     0.45612  0.45612  0.00000  0.08777
       6     C     3.02170  3.02170  0.00000 -0.04341
       7     H     0.44915  0.44915  0.00000  0.10170
       8     H     0.45985  0.45985  0.00000  0.08030
       9     N     3.63619  3.63619  0.00000 -0.27237
      10     H     0.45918  0.45918  0.00000  0.08163
      11     H     0.47426  0.47426  0.00000  0.05148
      12     C     3.03140  3.03140  0.00000 -0.06279
      13     H     0.44528  0.44528  0.00000  0.10944
      14     C     3.09221  3.09221  0.00000 -0.18441
      15     H     0.45425  0.45425  0.00000  0.09151
      16     H     0.47572  0.47572  0.00000  0.04856
      17     C     3.14623  3.14623  0.00000 -0.29245
      18     H     0.45085  0.45085  0.00000  0.09829
      19     H     0.45034  0.45034  0.00000  0.09933
      20     H     0.45451  0.45451  0.00000  0.09098
      21     H     0.44725  0.44725  0.00000  0.10551
      22     H     0.45954  0.45954  0.00000  0.08093

   Total alpha = 29.00000, Total beta = 29.00000, Total charge = -0.00000

*** Psi4 exiting successfully. Buy a developer a beer!
