                              Psi4 1.0.54 Driver

  ==> Input File <==

--------------------------------------------------------------------------
set {
	reference rhf
	basis cc-pvtz
}

set_num_threads( 4 )
memory 2 gb

molecule MOL {
0 1

H	 -2.362939	 -1.309000	 -0.383250
C	 -1.359344	 -1.272457	 0.020748
C	 -0.684082	 0.000127	 -0.464918
H	 -0.825835	 -2.151141	 -0.318537
H	 -1.416276	 -1.292399	 1.099455
C	 -1.359089	 1.272668	 0.021259
N	 0.742439	 -0.000109	 0.007333
H	 -0.596914	 0.000345	 -1.538146
H	 -2.362696	 1.309620	 -0.382686
H	 -0.825392	 2.151374	 -0.317674
H	 -1.415983	 1.292181	 1.099973
O	 0.933433	 -0.183106	 1.162183
O	 1.587164	 0.182552	 -0.804680

	symmetry c1
}
set optking {
	frozen_dihedral = ("
		12 7 3 8
	")
}

ee,wfn = optimize('scf', return_wfn=True)
oeprop( wfn, 'DIPOLE', 'QUADRUPOLE', 'MULLIKEN_CHARGES')
f=open( 'psi4out.xyz', 'w' )
f.write( "13  " )
f.write( str(ee) + "\n" )
f.write( MOL.save_string_xyz() )
f.close()
--------------------------------------------------------------------------

    Molecular point group: c1
  Charge       = 0
  Multiplicity = 1
  Basis Set: CC-PVTZ
  Basis Set:
  @DF-RHF Final Energy:  -321.86449967032115
    Total Energy =                       -321.8644996703214929
    Molecular point group: c1
  Basis Set: CC-PVTZ
  Basis Set:
  Basis Set: CC-PVTZ
  Basis Set:
  @DF-RHF Final Energy:  -321.86252813453444
    Total Energy =                       -321.8625281345345002
  Basis Set: CC-PVTZ
  Basis Set:
  Basis Set: CC-PVTZ
  Basis Set:
  @DF-RHF Final Energy:  -321.86439854996354
    Total Energy =                       -321.8643985499637097
  Basis Set: CC-PVTZ
  Basis Set:
  Basis Set: CC-PVTZ
  Basis Set:
  @DF-RHF Final Energy:  -321.86457161008701
    Total Energy =                       -321.8645716100868981
  Basis Set: CC-PVTZ
  Basis Set:
  Basis Set: CC-PVTZ
  Basis Set:
  @DF-RHF Final Energy:  -321.86457401530964
    Total Energy =                       -321.8645740153094152
  Basis Set: CC-PVTZ
  Basis Set:
  Charge       = 0
  Multiplicity = 1
  Basis Set: CC-PVTZ
  Basis Set:

    Orbital Energies (a.u.)
    -----------------------

    Doubly Occupied:

       1A    -20.590193     2A    -20.587886     3A    -15.832582
       4A    -11.304218     5A    -11.244556     6A    -11.241708
       7A     -1.633911     8A     -1.418153     9A     -1.142630
      10A     -0.974229    11A     -0.957236    12A     -0.816615
      13A     -0.751802    14A     -0.732915    15A     -0.726572
      16A     -0.650475    17A     -0.595197    18A     -0.588593
      19A     -0.570930    20A     -0.529893    21A     -0.522762
      22A     -0.485589    23A     -0.469703    24A     -0.452257

  @DF-RHF Final Energy:  -321.86457462352064

   => Energetics <=

    Nuclear Repulsion Energy =            257.3332583616063403
    One-Electron Energy =                -948.7544554653209161
    Two-Electron Energy =                 369.5566224801940507
    DFT Exchange-Correlation Energy =       0.0000000000000000
    Empirical Dispersion Energy =           0.0000000000000000
    PCM Polarization Energy =               0.0000000000000000
    EFP Energy =                            0.0000000000000000
    Total Energy =                       -321.8645746235205252
    Molecular point group: c1
  Basis Set: CC-PVTZ
  Basis Set:

  -Total Gradient:
     Atom            X                  Y                   Z
    ------   -----------------  -----------------  -----------------
       1        0.000007547206     0.000008120338    -0.000001330544
       2       -0.000006641226    -0.000013087977     0.000003206331
       3       -0.000009071758     0.000293410502    -0.000006659744
       4        0.000003881489    -0.000001721338    -0.000002409681
       5        0.000001796387     0.000003308089     0.000002070650
       6       -0.000014455828    -0.000020239782    -0.000029449988
       7       -0.000071376242     0.000314808296     0.000120285163
       8       -0.000013405624    -0.000323845887     0.000005451006
       9       -0.000011374853     0.000018621322     0.000009243964
      10       -0.000002326505     0.000004380204     0.000003931997
      11       -0.000001378628    -0.000005534672    -0.000004789904
      12        0.000067756726    -0.000278415539    -0.000174596850
      13        0.000049048863     0.000000196441     0.000075047602

  **** Optimization is complete! (in 6 steps) ****
    Final optimized geometry and variables:
    Molecular point group: c1

    Geometry (in Angstrom), charge = 0, multiplicity = 1:

    H           -2.357159792369    -1.328778230550    -0.405858452782
    C           -1.359363575896    -1.290478055519     0.012655718503
    C           -0.682926235181    -0.017823276354    -0.466093867167
    H           -0.819887382359    -2.168580568550    -0.318441845219
    H           -1.430816094619    -1.312184468739     1.089948207983
    C           -1.359799779085     1.254669852278     0.022241942440
    N            0.742745839600     0.004800233169     0.009161727840
    H           -0.593203602457    -0.011110835607    -1.539198928231
    H           -2.366482687118     1.289348656725    -0.373665788364
    H           -0.829641193872     2.133606397990    -0.320800423097
    H           -1.410263584984     1.273000629735     1.101983107320
    O            0.939717493060    -0.179788246420     1.163615403512
    O            1.580367738060     0.223679316779    -0.799869136396

  Mulliken Charges: (a.u.)
   Center  Symbol    Alpha    Beta     Spin     Total
       1     H     0.44959  0.44959  0.00000  0.10083
       2     C     3.14472  3.14472  0.00000 -0.28944
       3     C     3.00762  3.00762  0.00000 -0.01524
       4     H     0.44128  0.44128  0.00000  0.11744
       5     H     0.43810  0.43810  0.00000  0.12380
       6     C     3.14361  3.14361  0.00000 -0.28721
       7     N     3.27525  3.27525  0.00000  0.44950
       8     H     0.42481  0.42481  0.00000  0.15038
       9     H     0.44866  0.44866  0.00000  0.10268
      10     H     0.43964  0.43964  0.00000  0.12072
      11     H     0.43999  0.43999  0.00000  0.12003
      12     O     4.17742  4.17742  0.00000 -0.35484
      13     O     4.16932  4.16932  0.00000 -0.33865

   Total alpha = 24.00000, Total beta = 24.00000, Total charge =  0.00000

*** Psi4 exiting successfully. Buy a developer a beer!
