  ==> Input File <==

--------------------------------------------------------------------------
set {
	reference rhf
	basis cc-pvtz
}

set_num_threads( 4 )
memory 2 gb

molecule MOL {
0 1

O	 1.847685	 1.294399	 -0.000190
C	 1.704209	 0.119472	 -0.000093
C	 0.380337	 -0.600947	 -0.000234
O	 2.715427	 -0.733672	 0.000025
C	 -0.824290	 0.329213	 -0.000115
H	 0.371455	 -1.255476	 -0.865660
H	 0.371410	 -1.255787	 0.864952
C	 -2.146151	 -0.432825	 -0.000068
H	 -0.773936	 0.979158	 -0.866319
H	 -0.773838	 0.979034	 0.866186
C	 -3.366283	 0.483552	 0.000557
H	 -2.189286	 -1.084450	 -0.869996
H	 -2.188867	 -1.085083	 0.869399
C	 -3.908299	 0.760351	 -1.397661
H	 -3.107577	 1.423593	 0.479673
H	 -4.148293	 0.037832	 0.608796
H	 -3.159405	 1.238185	 -2.020610
H	 -4.772718	 1.413181	 -1.361234
H	 -4.208721	 -0.158489	 -1.890322
C	 4.020999	 -0.192556	 0.000019
H	 4.182809	 0.412891	 -0.879449
H	 4.692590	 -1.035653	 0.000152
H	 4.182726	 0.413087	 0.879368

	symmetry c1
}
set optking {
	frozen_dihedral = ("
		15 11 8 12
	")
}

ee = optimize('scf')
oeprop('DIPOLE', 'QUADRUPOLE', 'MULLIKEN_CHARGES')
f=open( 'psi4out.xyz', 'w' )
f.write( "23  " )
f.write( str(ee) + "\n" )
f.write( MOL.save_string_xyz() )
f.close()
--------------------------------------------------------------------------

    Molecular point group: c1
  Charge       = 0
  Multiplicity = 1
  Basis Set: CC-PVTZ
  Basis Set:
  @DF-RHF Final Energy:  -423.12715376424399
    Total Energy =                       -423.1271537642435305
    Molecular point group: c1
  Basis Set: CC-PVTZ
  Basis Set:
  Basis Set: CC-PVTZ
  Basis Set:
  @DF-RHF Final Energy:  -423.12742906584833
    Total Energy =                       -423.1274290658482187
  Basis Set: CC-PVTZ
  Basis Set:
  Basis Set: CC-PVTZ
  Basis Set:
  @DF-RHF Final Energy:  -423.12748426176512
    Total Energy =                       -423.1274842617648346
  Basis Set: CC-PVTZ
  Basis Set:
  Basis Set: CC-PVTZ
  Basis Set:
  @DF-RHF Final Energy:  -423.12723839239544
    Total Energy =                       -423.1272383923953839
  Basis Set: CC-PVTZ
  Basis Set:
  Basis Set: CC-PVTZ
  Basis Set:
  @DF-RHF Final Energy:  -423.12749551224744
    Total Energy =                       -423.1274955122478332
  Basis Set: CC-PVTZ
  Basis Set:
  Charge       = 0
  Multiplicity = 1
  Basis Set: CC-PVTZ
  Basis Set:

    Orbital Energies (a.u.)
    -----------------------

    Doubly Occupied:

       1A    -20.596329     2A    -20.534152     3A    -11.364607
       4A    -11.278495     5A    -11.233645     6A    -11.217260
       7A    -11.215802     8A    -11.214509     9A    -11.207267
      10A     -1.472224    11A     -1.365792    12A     -1.093962
      13A     -1.043256    14A     -0.986869    15A     -0.931791
      16A     -0.849849    17A     -0.790639    18A     -0.769567
      19A     -0.698880    20A     -0.686598    21A     -0.675982
      22A     -0.644140    23A     -0.617351    24A     -0.598148
      25A     -0.586478    26A     -0.564596    27A     -0.535891
      28A     -0.530525    29A     -0.522974    30A     -0.506372
      31A     -0.493882    32A     -0.468385    33A     -0.463216
      34A     -0.461914    35A     -0.456712    36A     -0.438352

  @DF-RHF Final Energy:  -423.12749578051381

   => Energetics <=

    Nuclear Repulsion Energy =            456.3714102324833561
    One-Electron Energy =               -1480.7649896610716951
    Two-Electron Energy =                 601.2660836480744138
    DFT Exchange-Correlation Energy =       0.0000000000000000
    Empirical Dispersion Energy =           0.0000000000000000
    PCM Polarization Energy =               0.0000000000000000
    EFP Energy =                            0.0000000000000000
    Total Energy =                       -423.1274957805138683
    Molecular point group: c1
  Basis Set: CC-PVTZ
  Basis Set:

  -Total Gradient:
     Atom            X                  Y                   Z
    ------   -----------------  -----------------  -----------------
       1       -0.000000518827    -0.000003706765     0.000002934574
       2        0.000002416885    -0.000001275516     0.000003869493
       3        0.000002593964    -0.000004571906    -0.000042951078
       4        0.000003208329     0.000001177701    -0.000011684357
       5       -0.000032173282    -0.000009880052     0.000050702113
       6        0.000006807464    -0.000006608718     0.000011187738
       7        0.000000128892     0.000005926613     0.000009539478
       8       -0.001849471284    -0.002424189852     0.001454520770
       9       -0.000002481089     0.000008756612    -0.000001284442
      10        0.000007651805     0.000001689889    -0.000004861079
      11       -0.000835181230    -0.000920138102     0.003126243096
      12        0.001691029241     0.002171798665    -0.001723426516
      13        0.000005257755     0.000012224801    -0.000003514459
      14       -0.000008359501    -0.000011961875     0.000022309218
      15        0.000999263739     0.001174483917    -0.002870086729
      16        0.000009931873     0.000002641318    -0.000007540106
      17       -0.000002669858     0.000004357817     0.000001429923
      18       -0.000011975490    -0.000001256715    -0.000010083593
      19        0.000010955883     0.000001045787    -0.000011260033
      20        0.000003452880    -0.000000418568     0.000005534319
      21       -0.000001159988    -0.000000290101    -0.000000420693
      22        0.000000470831     0.000000253938    -0.000000430789
      23        0.000000821010    -0.000000058887    -0.000000726849

  **** Optimization is complete! (in 6 steps) ****
    Final optimized geometry and variables:
    Molecular point group: c1

    Geometry (in Angstrom), charge = 0, multiplicity = 1:

    O            1.749591310041     1.176754316327     0.176582391628
    C            1.609190558452     0.001530568521     0.159783121049
    C            0.287218906912    -0.722343369594     0.161386141869
    O            2.622679254137    -0.848608396367     0.135977757185
    C           -0.919476216254     0.204289328772     0.194958779950
    H            0.269869261368    -1.359493661216    -0.716788311374
    H            0.290120237813    -1.394514140485     1.013328410462
    C           -2.241228107172    -0.563474680034     0.205820260811
    H           -0.881601898874     0.869111661052    -0.660402319853
    H           -0.858377803539     0.838954044464     1.071457954532
    C           -3.470386665986     0.356864144947     0.159186217204
    H           -2.258566659329    -1.227183853084    -0.654880830418
    H           -2.278355465073    -1.191684875302     1.090168003842
    C           -3.954112110766     0.642976706995    -1.261432567129
    H           -3.226819088152     1.303469602202     0.631670867632
    H           -4.283612974969    -0.080767901451     0.727077391249
    H           -3.168783961454     1.084783692532    -1.865410989232
    H           -4.791465308571     1.331456598963    -1.258459231824
    H           -4.276103033096    -0.268228261699    -1.754291090077
    C            3.926673262487    -0.303900416586     0.130733297418
    H            4.077685624572     0.315647182570    -0.740817407821
    H            4.600520730905    -1.144974671954     0.110634554628
    H            4.096135050756     0.288420144755     1.017681327044

  Mulliken Charges: (a.u.)
   Center  Symbol    Alpha    Beta     Spin     Total
       1     O     4.19707  4.19707  0.00000 -0.39415
       2     C     2.80603  2.80603  0.00000  0.38794
       3     C     3.10288  3.10288  0.00000 -0.20576
       4     O     4.14645  4.14645  0.00000 -0.29290
       5     C     3.08454  3.08454  0.00000 -0.16908
       6     H     0.43971  0.43971  0.00000  0.12058
       7     H     0.43975  0.43975  0.00000  0.12050
       8     C     3.09724  3.09724  0.00000 -0.19448
       9     H     0.44564  0.44564  0.00000  0.10872
      10     H     0.44614  0.44614  0.00000  0.10772
      11     C     3.09090  3.09090  0.00000 -0.18180
      12     H     0.45690  0.45690  0.00000  0.08621
      13     H     0.44790  0.44790  0.00000  0.10420
      14     C     3.14816  3.14816  0.00000 -0.29632
      15     H     0.45346  0.45346  0.00000  0.09308
      16     H     0.44732  0.44732  0.00000  0.10536
      17     H     0.45427  0.45427  0.00000  0.09146
      18     H     0.44816  0.44816  0.00000  0.10368
      19     H     0.45568  0.45568  0.00000  0.08863
      20     C     3.03775  3.03775  0.00000 -0.07549
      21     H     0.45435  0.45435  0.00000  0.09129
      22     H     0.44534  0.44534  0.00000  0.10932
      23     H     0.45435  0.45435  0.00000  0.09130

   Total alpha = 36.00000, Total beta = 36.00000, Total charge = -0.00000
