  ==> Input File <==

--------------------------------------------------------------------------
set {
	reference rhf
	basis 6-31G*
}

set_num_threads( 4 )
memory 2 gb

molecule MOL {
0 1

H	 -3.892951	 0.981613	 -0.358725
C	 -3.196921	 0.361773	 0.172313
C	 -2.076860	 -0.007332	 -0.404944
H	 -3.439953	 0.057760	 1.173024
O	 -1.063245	 0.867923	 -0.635973
H	 -1.886990	 -1.021252	 -0.710084
C	 0.009338	 0.442705	 -1.404482
C	 -0.246533	 0.642591	 -2.881259
H	 0.244659	 -0.603064	 -1.241123
H	 0.866718	 1.040796	 -1.133058
F	 0.818206	 0.256890	 -3.569278
F	 -1.277007	 -0.072234	 -3.301948
F	 -0.485336	 1.903747	 -3.175961

	symmetry c1
}
set optking {
	frozen_dihedral = ("
		6 3 2 1
	")
}

ee = optimize('scf')
oeprop('DIPOLE', 'QUADRUPOLE', 'MULLIKEN_CHARGES')
f=open( 'psi4out.xyz', 'w' )
f.write( "13  " )
f.write( str(ee) + "\n" )
f.write( MOL.save_string_xyz() )
f.close()
--------------------------------------------------------------------------

    Molecular point group: c1
  Charge       = 0
  Multiplicity = 1
  Basis Set: 6-31G*
  Basis Set:
  @DF-RHF Final Energy:  -527.43353689858793
    Total Energy =                       -527.4335368985878176
    Molecular point group: c1
  Basis Set: 6-31G*
  Basis Set:
  Basis Set: 6-31G*
  Basis Set:
  @DF-RHF Final Energy:  -527.46445546084249
    Total Energy =                       -527.4644554608427143
  Basis Set: 6-31G*
  Basis Set:
  Basis Set: 6-31G*
  Basis Set:
  @DF-RHF Final Energy:  -527.49047317635336
    Total Energy =                       -527.4904731763531345
  Basis Set: 6-31G*
  Basis Set:
  Basis Set: 6-31G*
  Basis Set:
  @DF-RHF Final Energy:  -527.49403328148867
    Total Energy =                       -527.4940332814885551
  Basis Set: 6-31G*
  Basis Set:
  @DF-RHF Final Energy:  -527.49441967002349
    Total Energy =                       -527.4944196700237171
  @DF-RHF Final Energy:  -527.49449363831809
    Total Energy =                       -527.4944936383180902
  @DF-RHF Final Energy:  -527.49450345256196
    Total Energy =                       -527.4945034525617302
  @DF-RHF Final Energy:  -527.44842640441539
    Total Energy =                       -527.4484264044153861
  @DF-RHF Final Energy:  -527.48816981624111
    Total Energy =                       -527.4881698162413386
  @DF-RHF Final Energy:  -527.49410082372628
    Total Energy =                       -527.4941008237261713
  @DF-RHF Final Energy:  -527.49439247500413
    Total Energy =                       -527.4943924750043607
  @DF-RHF Final Energy:  -527.49446801981037
    Total Energy =                       -527.4944680198100286
  @DF-RHF Final Energy:  -527.49450239560235
    Total Energy =                       -527.4945023956022396
  @DF-RHF Final Energy:  -527.49449741804096
    Total Energy =                       -527.4944974180408508
  @DF-RHF Final Energy:  -527.44459302441373
    Total Energy =                       -527.4445930244135070
  @DF-RHF Final Energy:  -527.48406730090323
    Total Energy =                       -527.4840673009028933
  @DF-RHF Final Energy:  -527.49421256018695
    Total Energy =                       -527.4942125601867247
  @DF-RHF Final Energy:  -527.49370021362802
    Total Energy =                       -527.4937002136281308
  @DF-RHF Final Energy:  -527.49448561011445
    Total Energy =                       -527.4944856101142250
  @DF-RHF Final Energy:  -527.49450660450213
    Total Energy =                       -527.4945066045019075
  @DF-RHF Final Energy:  -527.49439577586008
    Total Energy =                       -527.4943957758600845
  @DF-RHF Final Energy:  -527.49451431671218
    Total Energy =                       -527.4945143167117294
  @DF-RHF Final Energy:  -527.49451828835072
    Total Energy =                       -527.4945182883509460
  @DF-RHF Final Energy:  -527.49451938186417
    Total Energy =                       -527.4945193818642792
  @DF-RHF Final Energy:  -527.49451960700310
    Total Energy =                       -527.4945196070028715
  @DF-RHF Final Energy:  -527.49447994299624
    Total Energy =                       -527.4944799429960085
  @DF-RHF Final Energy:  -527.49407043184044
    Total Energy =                       -527.4940704318403277
  @DF-RHF Final Energy:  -527.49450259701257
    Total Energy =                       -527.4945025970130246
  @DF-RHF Final Energy:  -527.49450812543989
    Total Energy =                       -527.4945081254400066
  @DF-RHF Final Energy:  -527.49451714791394
    Total Energy =                       -527.4945171479139390
  @DF-RHF Final Energy:  -527.49451801237751
    Total Energy =                       -527.4945180123775117
  @DF-RHF Final Energy:  -527.49451819299418
    Total Energy =                       -527.4945181929941782
  @DF-RHF Final Energy:  -527.49451897128347
    Total Energy =                       -527.4945189712835827
  @DF-RHF Final Energy:  -527.49451842706583
    Total Energy =                       -527.4945184270659411
  @DF-RHF Final Energy:  -527.49451769631526
    Total Energy =                       -527.4945176963151425
  @DF-RHF Final Energy:  -527.49451764391722
    Total Energy =                       -527.4945176439171064
  Basis Set: 6-31G*
  Basis Set:
  @DF-RHF Final Energy:  -527.49451736488800
    Total Energy =                       -527.4945173648884520
  Basis Set: 6-31G*
  Basis Set:
  Basis Set: 6-31G*
  Basis Set:
  @DF-RHF Final Energy:  -527.49451764458308
    Total Energy =                       -527.4945176445830839
  Basis Set: 6-31G*
  Basis Set:
  Basis Set: 6-31G*
  Basis Set:
  @DF-RHF Final Energy:  -527.49451763728121
    Total Energy =                       -527.4945176372814331
  Basis Set: 6-31G*
  Basis Set:
  Charge       = 0
  Multiplicity = 1
  Basis Set: 6-31G*
  Basis Set:

    Orbital Energies (a.u.)
    -----------------------

    Doubly Occupied:

       1A    -26.346928     2A    -26.346769     3A    -26.342670
       4A    -20.606280     5A    -11.504992     6A    -11.318356
       7A    -11.308999     8A    -11.216824     9A     -1.744049
      10A     -1.642374    11A     -1.640524    12A     -1.436194
      13A     -1.085717    14A     -1.017292    15A     -0.926625
      16A     -0.839025    17A     -0.833426    18A     -0.823849
      19A     -0.791156    20A     -0.724214    21A     -0.712886
      22A     -0.697125    23A     -0.675637    24A     -0.661427
      25A     -0.656544    26A     -0.645610    27A     -0.633021
      28A     -0.590879    29A     -0.555464    30A     -0.526243
      31A     -0.502651    32A     -0.339966

  @DF-RHF Final Energy:  -527.49451751747347

   => Energetics <=

    Nuclear Repulsion Energy =            414.2975375590197586
    One-Electron Energy =               -1552.1966747165681682
    Two-Electron Energy =                 610.4046196400752251
    DFT Exchange-Correlation Energy =       0.0000000000000000
    Empirical Dispersion Energy =           0.0000000000000000
    PCM Polarization Energy =               0.0000000000000000
    EFP Energy =                            0.0000000000000000
    Total Energy =                       -527.4945175174732412
    Molecular point group: c1
  Basis Set: 6-31G*
  Basis Set:

  -Total Gradient:
     Atom            X                  Y                   Z
    ------   -----------------  -----------------  -----------------
       1       -0.019217531460    -0.023229855067    -0.024102190805
       2        0.024987385096     0.042684917976     0.019349193522
       3        0.001719009745    -0.037168546625     0.037436555344
       4        0.000223239671     0.000054584692     0.000220518840
       5       -0.001217919274    -0.000864377391     0.000737800792
       6       -0.006996999357     0.018327786723    -0.033406458297
       7        0.000349745734     0.000275374554    -0.000231151759
       8        0.000388815411    -0.000052754432     0.000010250639
       9       -0.000009094137     0.000142963069    -0.000028329655
      10       -0.000015893591    -0.000205974921    -0.000103152964
      11       -0.000179272455     0.000127060284     0.000047481152
      12       -0.000062137966     0.000007941879     0.000095832214
      13        0.000030652583    -0.000099120735    -0.000026349020

    Molecular point group: c1

    Geometry (in Angstrom), charge = 0, multiplicity = 1:

    H           -2.739611312163     0.756181051833     1.898070540825
    C           -2.201321666078    -0.090009641956     2.282655201054
    C           -1.057704812134    -0.541251099652     1.794739631316
    H           -2.884684296741    -0.872580172397     2.576092098994
    O           -0.113939336000     0.370334795887     1.411544976637
    H           -0.932315376219    -1.467591361084     1.260477561757
    C            0.928924751137    -0.049831800971     0.601061497348
    C            0.570332898146     0.046382006613    -0.863934241443
    H            1.222746507344    -1.073360712208     0.807866069629
    H            1.773781939083     0.598689265990     0.779762158897
    F            1.598981175534    -0.340467731373    -1.602026655880
    F           -0.456569103046    -0.735429428559    -1.164688170548
    F            0.253895600543     1.274220354244    -1.219481853618

  Mulliken Charges: (a.u.)
   Center  Symbol    Alpha    Beta     Spin     Total
       1     H     0.39545  0.39545  0.00000  0.20910
       2     C     3.22635  3.22635  0.00000 -0.45269
       3     C     2.90888  2.90888  0.00000  0.18224
       4     H     0.41954  0.41954  0.00000  0.16093
       5     O     4.29471  4.29471  0.00000 -0.58942
       6     H     0.39993  0.39993  0.00000  0.20014
       7     C     3.06505  3.06505  0.00000 -0.13010
       8     C     2.45617  2.45617  0.00000  1.08766
       9     H     0.40593  0.40593  0.00000  0.18814
      10     H     0.39013  0.39013  0.00000  0.21974
      11     F     4.68186  4.68186  0.00000 -0.36372
      12     F     4.68182  4.68182  0.00000 -0.36364
      13     F     4.67419  4.67419  0.00000 -0.34837

   Total alpha = 32.00000, Total beta = 32.00000, Total charge = -0.00000
