                              Psi4 1.0.54 Driver

  ==> Input File <==

--------------------------------------------------------------------------
set {
	reference rhf
	basis cc-pvtz
}

set_num_threads( 4 )
memory 2 gb

molecule MOL {
0 1

H	 -3.162190	 0.493205	 -0.000107
C	 -2.363908	 -0.234727	 0.000005
O	 -1.158738	 0.454634	 -0.000087
H	 -2.464314	 -0.863616	 -0.882153
H	 -2.464327	 -0.863359	 0.882345
C	 -1.279408	 1.826974	 -0.206095
C	 0.098104	 2.458130	 -0.183818
H	 -1.907144	 2.267584	 0.568791
H	 -1.765778	 2.020118	 -1.162537
C	 0.051302	 3.966119	 -0.403198
H	 0.565613	 2.233509	 0.768498
H	 0.705826	 1.988048	 -0.949095
H	 -0.532611	 4.459709	 0.366543
H	 1.047505	 4.390580	 -0.382383
H	 -0.391179	 4.212596	 -1.362640

	symmetry c1
}
set optking {
	frozen_dihedral = ("
		6 3 2 4
	")
}

ee,wfn = optimize('scf', return_wfn=True)
oeprop( wfn, 'DIPOLE', 'QUADRUPOLE', 'MULLIKEN_CHARGES')
f=open( 'psi4out.xyz', 'w' )
f.write( "15  " )
f.write( str(ee) + "\n" )
f.write( MOL.save_string_xyz() )
f.close()
--------------------------------------------------------------------------

    Molecular point group: c1
  Charge       = 0
  Multiplicity = 1
  Basis Set: CC-PVTZ
  Basis Set:
  @DF-RHF Final Energy:  -232.22370209648167
    Total Energy =                       -232.2237020964816452
    Molecular point group: c1
  Basis Set: CC-PVTZ
  Basis Set:
  Basis Set: CC-PVTZ
  Basis Set:
  @DF-RHF Final Energy:  -232.22454917916798
    Total Energy =                       -232.2245491791679797
  Basis Set: CC-PVTZ
  Basis Set:
  Basis Set: CC-PVTZ
  Basis Set:
  @DF-RHF Final Energy:  -232.22484325391639
    Total Energy =                       -232.2248432539162764
  Basis Set: CC-PVTZ
  Basis Set:
  Charge       = 0
  Multiplicity = 1
  Basis Set: CC-PVTZ
  Basis Set:

    Orbital Energies (a.u.)
    -----------------------

    Doubly Occupied:

       1A    -20.544168     2A    -11.264870     3A    -11.261261
       4A    -11.212247     5A    -11.210464     6A     -1.377171
       7A     -1.058061     8A     -0.956159     9A     -0.877330
      10A     -0.809193    11A     -0.673285    12A     -0.653969
      13A     -0.631834    14A     -0.608180    15A     -0.563791
      16A     -0.545257    17A     -0.502956    18A     -0.489736
      19A     -0.479164    20A     -0.462067    21A     -0.411157

  @DF-RHF Final Energy:  -232.22484595958451

   => Energetics <=

    Nuclear Repulsion Energy =            189.6815337586552914
    One-Electron Energy =                -690.6281190780447332
    Two-Electron Energy =                 268.7217393598049284
    DFT Exchange-Correlation Energy =       0.0000000000000000
    Empirical Dispersion Energy =           0.0000000000000000
    PCM Polarization Energy =               0.0000000000000000
    EFP Energy =                            0.0000000000000000
    Total Energy =                       -232.2248459595845134
    Molecular point group: c1
  Basis Set: CC-PVTZ
  Basis Set:

  -Total Gradient:
     Atom            X                  Y                   Z
    ------   -----------------  -----------------  -----------------
       1       -0.000051441822    -0.000019975625    -0.000005875443
       2       -0.000778482717     0.001738320603    -0.000332426267
       3        0.000160531840    -0.000717165219    -0.001635856676
       4        0.000752132996    -0.001158877864     0.000754757989
       5       -0.000031342117    -0.000061220084    -0.000005258085
       6       -0.000065013649     0.000239592211     0.001201058975
       7       -0.000002785034    -0.000005522491     0.000002844454
       8        0.000001622197    -0.000035118147     0.000000218221
       9        0.000003389542    -0.000020819677     0.000020111581
      10        0.000017357234     0.000023812753    -0.000001646834
      11       -0.000000079031     0.000000386526    -0.000003240572
      12       -0.000007244687     0.000000917133     0.000005190978
      13        0.000001293306     0.000000998103    -0.000000553973
      14       -0.000000487044     0.000014593906    -0.000001453311
      15        0.000000548983     0.000000077870     0.000002128964

  **** Optimization is complete! (in 4 steps) ****
    Final optimized geometry and variables:
    Molecular point group: c1

    Geometry (in Angstrom), charge = 0, multiplicity = 1:

    H           -2.268190066047    -1.292039170099     0.186360739229
    C           -1.395760913610    -1.936419528298     0.153002239894
    O           -0.206547587666    -1.209710149004     0.152819153786
    H           -1.457834155280    -2.560683691354    -0.732584680422
    H           -1.417305416157    -2.582057829381     1.022787081457
    C           -0.327554160066     0.163829952698    -0.053129494402
    C            1.051323380772     0.791511370364    -0.022792216315
    H           -0.956184964408     0.604693672852     0.719903021910
    H           -0.806555287599     0.362608882853    -1.011792433534
    C            1.008711226471     2.300794609604    -0.235249593039
    H            1.514575983565     0.561118442693     0.930316239006
    H            1.661168064974     0.323607768416    -0.787761184397
    H            0.423162010775     2.792143686979     0.534763558342
    H            2.005783019837     2.723133333082    -0.208923892859
    H            0.570179113855     2.552815695795    -1.195127370977

  Mulliken Charges: (a.u.)
   Center  Symbol    Alpha    Beta     Spin     Total
       1     H     0.47317  0.47317  0.00000  0.05365
       2     C     3.02928  3.02928  0.00000 -0.05855
       3     O     4.17626  4.17626  0.00000 -0.35252
       4     H     0.46049  0.46049  0.00000  0.07903
       5     H     0.45552  0.45552  0.00000  0.08895
       6     C     2.95541  2.95541  0.00000  0.08918
       7     C     3.08205  3.08205  0.00000 -0.16410
       8     H     0.47544  0.47544  0.00000  0.04912
       9     H     0.47606  0.47606  0.00000  0.04787
      10     C     3.15591  3.15591  0.00000 -0.31182
      11     H     0.45124  0.45124  0.00000  0.09752
      12     H     0.45112  0.45112  0.00000  0.09776
      13     H     0.45590  0.45590  0.00000  0.08819
      14     H     0.44629  0.44629  0.00000  0.10742
      15     H     0.45585  0.45585  0.00000  0.08830

   Total alpha = 21.00000, Total beta = 21.00000, Total charge =  0.00000

*** Psi4 exiting successfully. Buy a developer a beer!
