  ==> Input File <==

--------------------------------------------------------------------------
set {
	reference rhf
	basis 6-31G*
}

set_num_threads( 4 )
memory 2 gb

molecule MOL {
0 1

H	 -0.821032	 -1.655889	 0.000000
O	 -1.037828	 -0.728600	 0.000000
C	 0.100509	 -0.036935	 0.000000
C	 0.452571	 0.460238	 1.372871
O	 0.734070	 0.144296	 -0.987410
H	 -0.343962	 1.093088	 1.746704
H	 1.378190	 1.013956	 1.330715
H	 0.550995	 -0.379826	 2.050602

	symmetry c1
}
set optking {
	frozen_dihedral = ("
		4 3 2 1
	")
}

ee = optimize('scf')
oeprop('DIPOLE', 'QUADRUPOLE', 'MULLIKEN_CHARGES')
f=open( 'psi4out.xyz', 'w' )
f.write( "8  " )
f.write( str(ee) + "\n" )
f.write( MOL.save_string_xyz() )
f.close()
--------------------------------------------------------------------------

    Molecular point group: c1
  Charge       = 0
  Multiplicity = 1
  Basis Set: 6-31G*
  Basis Set:
  @DF-RHF Final Energy:  -227.78811350704450
    Total Energy =                       -227.7881135070444145
    Molecular point group: c1
  Basis Set: 6-31G*
  Basis Set:
  Basis Set: 6-31G*
  Basis Set:
  @DF-RHF Final Energy:  -227.78922590420439
    Total Energy =                       -227.7892259042043577
  Basis Set: 6-31G*
  Basis Set:
  Basis Set: 6-31G*
  Basis Set:
  @DF-RHF Final Energy:  -227.78853296155660
    Total Energy =                       -227.7885329615564558
  Basis Set: 6-31G*
  Basis Set:
  Basis Set: 6-31G*
  Basis Set:
  @DF-RHF Final Energy:  -227.78954309522982
    Total Energy =                       -227.7895430952298170
  Basis Set: 6-31G*
  Basis Set:
  Basis Set: 6-31G*
  Basis Set:
  @DF-RHF Final Energy:  -227.78955823522409
    Total Energy =                       -227.7895582352240353
  Basis Set: 6-31G*
  Basis Set:
  Basis Set: 6-31G*
  Basis Set:
  @DF-RHF Final Energy:  -227.78956157682103
    Total Energy =                       -227.7895615768210575
  Basis Set: 6-31G*
  Basis Set:
  Charge       = 0
  Multiplicity = 1
  Basis Set: 6-31G*
  Basis Set:

    Orbital Energies (a.u.)
    -----------------------

    Doubly Occupied:

       1A    -20.596256     2A    -20.564360     3A    -11.386527
       4A    -11.242193     5A     -1.462830     6A     -1.369251
       7A     -1.023158     8A     -0.825707     9A     -0.707718
      10A     -0.671295    11A     -0.659827    12A     -0.588683
      13A     -0.577674    14A     -0.513092    15A     -0.498215
      16A     -0.450395

  @DF-RHF Final Energy:  -227.78956182537235

   => Energetics <=

    Nuclear Repulsion Energy =            121.7075293303158787
    One-Electron Energy =                -552.7198186163905120
    Two-Electron Energy =                 203.2227274607024867
    DFT Exchange-Correlation Energy =       0.0000000000000000
    Empirical Dispersion Energy =           0.0000000000000000
    PCM Polarization Energy =               0.0000000000000000
    EFP Energy =                            0.0000000000000000
    Total Energy =                       -227.7895618253721466
    Molecular point group: c1
  Basis Set: 6-31G*
  Basis Set:

  -Total Gradient:
     Atom            X                  Y                   Z
    ------   -----------------  -----------------  -----------------
       1       -0.000099644961     0.000012095648     0.005716740049
       2        0.000874203790    -0.001357068789    -0.006829922180
       3       -0.002505463575     0.004426792745     0.000411044881
       4        0.001806907036    -0.003170319351     0.000696085588
       5       -0.000062943423     0.000029771249     0.000034389700
       6        0.000019752483     0.000045795159    -0.000023512705
       7       -0.000010601550     0.000011944892    -0.000006194393
       8       -0.000022209799     0.000000988448     0.000001369062

  **** Optimization is complete! (in 7 steps) ****
    Final optimized geometry and variables:
    Molecular point group: c1

    Geometry (in Angstrom), charge = 0, multiplicity = 1:

    H           -0.942503569238    -1.599603064253    -0.115876585015
    O           -1.104225027743    -0.663788240669    -0.120928132518
    C            0.062900489539     0.037560108710    -0.094931035779
    C            0.411429276997     0.548237019322     1.275927845886
    O            0.715916078403     0.200063683767    -1.063420738155
    H           -0.406175122747     1.142197900285     1.668054018058
    H            1.315975012413     1.136827240714     1.236735230043
    H            0.547685224721    -0.294762888964     1.945636681370

  Mulliken Charges: (a.u.)
   Center  Symbol    Alpha    Beta     Spin     Total
       1     H     0.26500  0.26500  0.00000  0.46999
       2     O     4.36472  4.36472  0.00000 -0.72945
       3     C     2.64451  2.64451  0.00000  0.71098
       4     C     3.28362  3.28362  0.00000 -0.56725
       5     O     4.24281  4.24281  0.00000 -0.48562
       6     H     0.39680  0.39680  0.00000  0.20640
       7     H     0.39609  0.39609  0.00000  0.20782
       8     H     0.40644  0.40644  0.00000  0.18712

   Total alpha = 16.00000, Total beta = 16.00000, Total charge = -0.00000
