                              Psi4 1.0.54 Driver

  ==> Input File <==

--------------------------------------------------------------------------
set {
	reference rhf
	basis cc-pvtz
}

set_num_threads( 4 )
memory 2 gb

molecule MOL {
0 1

H	 -3.268214	 -0.875720	 0.463107
C	 -2.806015	 0.000007	 0.024886
N	 -1.391133	 0.000016	 0.301321
H	 -3.029448	 0.000055	 -1.045738
H	 -3.268126	 0.875758	 0.463150
C	 -0.722652	 1.158915	 -0.249734
C	 -0.745859	 -1.220632	 -0.131313
H	 -0.806631	 1.186785	 -1.340156
H	 -1.195493	 2.053613	 0.137593
C	 0.745582	 1.163668	 0.132732
H	 -1.235633	 -2.063097	 0.342464
H	 -0.831416	 -1.354972	 -1.213662
C	 0.722375	 -1.215879	 0.251153
H	 1.235356	 2.006133	 -0.341045
H	 0.831139	 1.298008	 1.215081
N	 1.390856	 -0.056980	 -0.299902
H	 1.195216	 -2.110577	 -0.136174
H	 0.806354	 -1.243749	 1.341575
C	 2.805738	 -0.056971	 -0.023467
H	 3.276313	 0.791367	 -0.504556
H	 3.259218	 -0.957866	 -0.417556
H	 3.029418	 -0.005982	 1.045890

	symmetry c1
}
set optking {
	frozen_dihedral = ("
		6 3 2 4
	")
}

ee,wfn = optimize('scf', return_wfn=True)
oeprop( wfn, 'DIPOLE', 'QUADRUPOLE', 'MULLIKEN_CHARGES')
f=open( 'psi4out.xyz', 'w' )
f.write( "22  " )
f.write( str(ee) + "\n" )
f.write( MOL.save_string_xyz() )
f.close()
--------------------------------------------------------------------------

    Molecular point group: c1
  Charge       = 0
  Multiplicity = 1
  Basis Set: CC-PVTZ
  Basis Set:
  @DF-RHF Final Energy:  -344.35068298904849
    Total Energy =                       -344.3506829890482095
    Molecular point group: c1
  Basis Set: CC-PVTZ
  Basis Set:
  Charge       = 0
  Multiplicity = 1
  Basis Set: CC-PVTZ
  Basis Set:

    Orbital Energies (a.u.)
    -----------------------

    Doubly Occupied:

       1A    -15.537832     2A    -15.537668     3A    -11.237616
       4A    -11.237591     5A    -11.236965     6A    -11.236944
       7A    -11.234328     8A    -11.234326     9A     -1.257714
      10A     -1.206776    11A     -1.025946    12A     -0.993119
      13A     -0.912235    14A     -0.868203    15A     -0.836355
      16A     -0.755667    17A     -0.667105    18A     -0.638377
      19A     -0.632407    20A     -0.627453    21A     -0.623519
      22A     -0.582716    23A     -0.549988    24A     -0.546585
      25A     -0.542500    26A     -0.517722    27A     -0.496849
      28A     -0.491177    29A     -0.466366    30A     -0.457411
      31A     -0.353066    32A     -0.348066

  @DF-RHF Final Energy:  -344.35068741974140

   => Energetics <=

    Nuclear Repulsion Energy =            422.0597576257387686
    One-Electron Energy =               -1303.0397128144168164
    Two-Electron Energy =                 536.6292677689366428
    DFT Exchange-Correlation Energy =       0.0000000000000000
    Empirical Dispersion Energy =           0.0000000000000000
    PCM Polarization Energy =               0.0000000000000000
    EFP Energy =                            0.0000000000000000
    Total Energy =                       -344.3506874197414618
    Molecular point group: c1
  Basis Set: CC-PVTZ
  Basis Set:

  -Total Gradient:
     Atom            X                  Y                   Z
    ------   -----------------  -----------------  -----------------
       1       -0.000023280083    -0.000026617546    -0.000004647980
       2        0.000134421329    -0.000831720908    -0.000155114859
       3       -0.000080893093     0.000612262048     0.000608910010
       4       -0.000021673046     0.000658329953    -0.000007375012
       5        0.000027065062    -0.000029538198    -0.000008130324
       6       -0.000024365804    -0.000431031351    -0.000425939976
       7       -0.000010334047     0.000151680264     0.000006915351
       8       -0.000011235746    -0.000012778805     0.000000417577
       9       -0.000036135970    -0.000017415752     0.000009800135
      10        0.000007024369    -0.000005056128     0.000060041988
      11        0.000000545566     0.000038490736     0.000004132018
      12        0.000045599800    -0.000069077961    -0.000029358785
      13       -0.000033016775    -0.000061166014    -0.000020425702
      14        0.000003256597    -0.000009194913    -0.000004450662
      15        0.000003633944    -0.000004522852     0.000000310388
      16       -0.000031878467     0.000013365245    -0.000038439641
      17        0.000017548594     0.000002057300     0.000001567977
      18       -0.000003999518     0.000012600928    -0.000011216642
      19        0.000053501242     0.000010055350     0.000022202148
      20       -0.000004471408    -0.000002111244    -0.000001631815
      21       -0.000005240786     0.000000354786    -0.000002618428
      22       -0.000006071767     0.000001035063    -0.000004947764

  **** Optimization is complete! (in 2 steps) ****
    Final optimized geometry and variables:
    Molecular point group: c1

    Geometry (in Angstrom), charge = 0, multiplicity = 1:

    H           -3.271673647715    -0.843598546896     0.464197285436
    C           -2.805541987790     0.028418587998     0.023112153371
    N           -1.391311852728     0.026657162072     0.302674382838
    H           -3.026714596259     0.027905993047    -1.048023175597
    H           -3.265980512550     0.907916042147     0.456250325109
    C           -0.723660645888     1.185293576482    -0.249236808176
    C           -0.744942126996    -1.192334171138    -0.133723956535
    H           -0.807749295439     1.211219910934    -1.339700070469
    H           -1.197878017351     2.080213185070     0.136436228365
    C            0.744607152909     1.192187342891     0.133266444130
    H           -1.233457785279    -2.036529984045     0.338224150773
    H           -0.830078723653    -1.324641132033    -1.216472361647
    C            0.723468125147    -1.187273292199     0.248466908501
    H            1.233169882527     2.035814021627    -0.339891719372
    H            0.829911702384     1.325945858664     1.215763823387
    N            1.391368722579    -0.027144025571    -0.300462815618
    H            1.196947160238    -2.081208176856    -0.140098832948
    H            0.807192910934    -1.216851168242     1.338928275648
    C            2.806027966929    -0.026278392977    -0.023580359241
    H            3.276012747659     0.823170155620    -0.503410488505
    H            3.260508883003    -0.926291360128    -0.418694235843
    H            3.029493442074     0.023537312280     1.045951938487

  Mulliken Charges: (a.u.)
   Center  Symbol    Alpha    Beta     Spin     Total
       1     H     0.45207  0.45207  0.00000  0.09585
       2     C     3.09844  3.09844  0.00000 -0.19688
       3     N     3.61307  3.61307  0.00000 -0.22614
       4     H     0.47004  0.47004  0.00000  0.05993
       5     H     0.45173  0.45173  0.00000  0.09653
       6     C     3.03579  3.03579  0.00000 -0.07159
       7     C     3.03536  3.03536  0.00000 -0.07072
       8     H     0.46776  0.46776  0.00000  0.06448
       9     H     0.45384  0.45384  0.00000  0.09232
      10     C     3.03543  3.03543  0.00000 -0.07085
      11     H     0.45373  0.45373  0.00000  0.09254
      12     H     0.46818  0.46818  0.00000  0.06364
      13     C     3.03555  3.03555  0.00000 -0.07110
      14     H     0.45379  0.45379  0.00000  0.09243
      15     H     0.46799  0.46799  0.00000  0.06402
      16     N     3.61308  3.61308  0.00000 -0.22616
      17     H     0.45378  0.45378  0.00000  0.09243
      18     H     0.46803  0.46803  0.00000  0.06393
      19     C     3.09843  3.09843  0.00000 -0.19685
      20     H     0.45194  0.45194  0.00000  0.09612
      21     H     0.45194  0.45194  0.00000  0.09612
      22     H     0.47003  0.47003  0.00000  0.05994

   Total alpha = 32.00000, Total beta = 32.00000, Total charge = -0.00000

*** Psi4 exiting successfully. Buy a developer a beer!
