                              Psi4 1.0.54 Driver

  ==> Input File <==

--------------------------------------------------------------------------
set {
	reference rhf
	basis cc-pvtz
}

set_num_threads( 4 )
memory 2 gb

molecule MOL {
0 1

H	 -0.000105	 1.988529	 0.748933
O	 -0.000098	 1.879786	 -0.188206
C	 -0.000014	 0.545691	 -0.532416
C	 -1.286000	 -0.125171	 -0.046657
C	 1.286016	 -0.125031	 -0.046584
H	 0.000021	 0.481103	 -1.610604
F	 -2.305501	 0.360112	 -0.711472
F	 -1.269441	 -1.421770	 -0.226289
F	 -1.494908	 0.108956	 1.231199
F	 2.317750	 0.468717	 -0.594166
F	 1.336617	 -1.393765	 -0.365123
F	 1.414467	 -0.024806	 1.259108

	symmetry c1
}
set optking {
	frozen_dihedral = ("
		7 4 3 6
	")
}

ee,wfn = optimize('scf', return_wfn=True)
oeprop( wfn, 'DIPOLE', 'QUADRUPOLE', 'MULLIKEN_CHARGES')
f=open( 'psi4out.xyz', 'w' )
f.write( "12  " )
f.write( str(ee) + "\n" )
f.write( MOL.save_string_xyz() )
f.close()
--------------------------------------------------------------------------

    Molecular point group: c1
  Charge       = 0
  Multiplicity = 1
  Basis Set: CC-PVTZ
  Basis Set:
  @DF-RHF Final Energy:  -786.58921423903325
    Total Energy =                       -786.5892142390330264
    Molecular point group: c1
  Basis Set: CC-PVTZ
  Basis Set:
  Basis Set: CC-PVTZ
  Basis Set:
  @DF-RHF Final Energy:  -786.58929656024895
    Total Energy =                       -786.5892965602490676
  Basis Set: CC-PVTZ
  Basis Set:
  Basis Set: CC-PVTZ
  Basis Set:
  @DF-RHF Final Energy:  -786.58935176430987
    Total Energy =                       -786.5893517643097539
  Basis Set: CC-PVTZ
  Basis Set:
  Basis Set: CC-PVTZ
  Basis Set:
  @DF-RHF Final Energy:  -786.58936123986211
    Total Energy =                       -786.5893612398615460
  Basis Set: CC-PVTZ
  Basis Set:
  Charge       = 0
  Multiplicity = 1
  Basis Set: CC-PVTZ
  Basis Set:

    Orbital Energies (a.u.)
    -----------------------

    Doubly Occupied:

       1A    -26.359376     2A    -26.358207     3A    -26.357525
       4A    -26.356535     5A    -26.354447     6A    -26.353452
       7A    -20.609666     8A    -11.520490     9A    -11.519282
      10A    -11.351553    11A     -1.772123    12A     -1.766520
      13A     -1.667733    14A     -1.663666    15A     -1.663181
      16A     -1.660931    17A     -1.439585    18A     -1.102892
      19A     -1.002016    20A     -0.945309    21A     -0.871138
      22A     -0.869100    23A     -0.859259    24A     -0.852455
      25A     -0.840130    26A     -0.822457    27A     -0.749160
      28A     -0.734301    29A     -0.731725    30A     -0.725901
      31A     -0.696132    32A     -0.691784    33A     -0.690050
      34A     -0.681832    35A     -0.677691    36A     -0.669029
      37A     -0.663766    38A     -0.657352    39A     -0.625548
      40A     -0.554307    41A     -0.510182

  @DF-RHF Final Energy:  -786.58936204899385

   => Energetics <=

    Nuclear Repulsion Energy =            670.8008081514091145
    One-Electron Energy =               -2428.7847683379163755
    Two-Electron Energy =                 971.3945981375137535
    DFT Exchange-Correlation Energy =       0.0000000000000000
    Empirical Dispersion Energy =           0.0000000000000000
    PCM Polarization Energy =               0.0000000000000000
    EFP Energy =                            0.0000000000000000
    Total Energy =                       -786.5893620489936211
    Molecular point group: c1
  Basis Set: CC-PVTZ
  Basis Set:

  -Total Gradient:
     Atom            X                  Y                   Z
    ------   -----------------  -----------------  -----------------
       1       -0.000010946021    -0.000042068036    -0.000021188152
       2        0.000010704430    -0.000041620931    -0.000038725870
       3        0.000832201412    -0.001457825078    -0.000064982675
       4       -0.000449698865     0.001322066179     0.000984400135
       5        0.000049102297     0.000020018846    -0.000117761865
       6       -0.000594143467     0.001092285325    -0.000057317251
       7        0.000109615976    -0.000776812535    -0.000820298515
       8       -0.000015991053    -0.000015525194     0.000048734075
       9        0.000066368292    -0.000109092918    -0.000009072393
      10        0.000020054592    -0.000012421335    -0.000014327464
      11       -0.000024777618     0.000056705187     0.000033640116
      12        0.000007509993    -0.000035709505     0.000076899867

  **** Optimization is complete! (in 5 steps) ****
    Final optimized geometry and variables:
    Molecular point group: c1

    Geometry (in Angstrom), charge = 0, multiplicity = 1:

    H           -0.101740895290     1.995018381967     0.725447155898
    O           -0.044682437174     1.877729292158    -0.208806363329
    C            0.002318443287     0.540292581297    -0.538752090449
    C           -1.280131723515    -0.155510328446    -0.075367222665
    C            1.290958866493    -0.094516384048    -0.014882800995
    H            0.027856259143     0.472582717920    -1.616215730625
    F           -2.296469631434     0.305520100701    -0.762588084043
    F           -1.237912750838    -1.452964371020    -0.246009560525
    F           -1.514803037025     0.080394769067     1.197261072532
    F            2.321553221983     0.572512543515    -0.471392168356
    F            1.418588651718    -1.340175468763    -0.396827044999
    F            1.342278313315    -0.060405803462     1.299902877260

  Mulliken Charges: (a.u.)
   Center  Symbol    Alpha    Beta     Spin     Total
       1     H     0.38104  0.38104  0.00000  0.23791
       2     O     4.19013  4.19013  0.00000 -0.38025
       3     C     3.00645  3.00645  0.00000 -0.01291
       4     C     2.68385  2.68385  0.00000  0.63231
       5     C     2.68513  2.68513  0.00000  0.62974
       6     H     0.42414  0.42414  0.00000  0.15173
       7     F     4.60247  4.60247  0.00000 -0.20495
       8     F     4.60192  4.60192  0.00000 -0.20385
       9     F     4.61034  4.61034  0.00000 -0.22069
      10     F     4.60151  4.60151  0.00000 -0.20303
      11     F     4.60278  4.60278  0.00000 -0.20556
      12     F     4.61023  4.61023  0.00000 -0.22046

   Total alpha = 41.00000, Total beta = 41.00000, Total charge = -0.00000

*** Psi4 exiting successfully. Buy a developer a beer!
