                              Psi4 1.0.54 Driver

  ==> Input File <==

--------------------------------------------------------------------------
set {
	reference rhf
	basis cc-pvtz
}

set_num_threads( 4 )
memory 2 gb

molecule MOL {
0 1

H	 2.646708	 0.758099	 0.000000
O	 2.258158	 -0.097743	 0.000000
C	 0.911162	 -0.015915	 0.000000
C	 0.341860	 1.174977	 -0.420087
C	 0.105662	 -1.065788	 0.399197
H	 0.982153	 1.978614	 -0.726180
C	 -1.030010	 1.304459	 -0.436851
H	 0.547335	 -1.990058	 0.725237
C	 -1.270267	 -0.921592	 0.377177
H	 -1.465646	 2.229667	 -0.763365
C	 -1.847647	 0.259590	 -0.039204
H	 -1.888502	 -1.741939	 0.688854
H	 -2.914386	 0.367825	 -0.054983

	symmetry c1
}
set optking {
	frozen_dihedral = ("
		4 3 2 1
	")
}

ee,wfn = optimize('scf', return_wfn=True)
oeprop( wfn, 'DIPOLE', 'QUADRUPOLE', 'MULLIKEN_CHARGES')
f=open( 'psi4out.xyz', 'w' )
f.write( "13  " )
f.write( str(ee) + "\n" )
f.write( MOL.save_string_xyz() )
f.close()
--------------------------------------------------------------------------

    Molecular point group: c1
  Charge       = 0
  Multiplicity = 1
  Basis Set: CC-PVTZ
  Basis Set:
  @DF-RHF Final Energy:  -305.66812741966146
    Total Energy =                       -305.6681274196614595
    Molecular point group: c1
  Basis Set: CC-PVTZ
  Basis Set:
  Basis Set: CC-PVTZ
  Basis Set:
  @DF-RHF Final Energy:  -305.66986489928127
    Total Energy =                       -305.6698648992811513
  Basis Set: CC-PVTZ
  Basis Set:
  Basis Set: CC-PVTZ
  Basis Set:
  @DF-RHF Final Energy:  -305.67001560249105
    Total Energy =                       -305.6700156024911621
  Basis Set: CC-PVTZ
  Basis Set:
  Basis Set: CC-PVTZ
  Basis Set:
  @DF-RHF Final Energy:  -305.67003482004776
    Total Energy =                       -305.6700348200478743
  Basis Set: CC-PVTZ
  Basis Set:
  Basis Set: CC-PVTZ
  Basis Set:
  @DF-RHF Final Energy:  -305.67003872103612
    Total Energy =                       -305.6700387210360645
  Basis Set: CC-PVTZ
  Basis Set:
  Charge       = 0
  Multiplicity = 1
  Basis Set: CC-PVTZ
  Basis Set:

    Orbital Energies (a.u.)
    -----------------------

    Doubly Occupied:

       1A    -20.583534     2A    -11.296741     3A    -11.235105
       4A    -11.233363     5A    -11.226183     6A    -11.220857
       7A    -11.220040     8A     -1.413832     9A     -1.152710
      10A     -1.022737    11A     -1.008385    12A     -0.850194
      13A     -0.826834    14A     -0.741325    15A     -0.687964
      16A     -0.654457    17A     -0.615126    18A     -0.598043
      19A     -0.591839    20A     -0.561282    21A     -0.517504
      22A     -0.493814    23A     -0.484160    24A     -0.343075
      25A     -0.316020

  @DF-RHF Final Energy:  -305.67003923606148

   => Energetics <=

    Nuclear Repulsion Energy =            273.7849742244425215
    One-Electron Energy =                -957.1197757191930577
    Two-Electron Energy =                 377.6647622586889952
    DFT Exchange-Correlation Energy =       0.0000000000000000
    Empirical Dispersion Energy =           0.0000000000000000
    PCM Polarization Energy =               0.0000000000000000
    EFP Energy =                            0.0000000000000000
    Total Energy =                       -305.6700392360615410
    Molecular point group: c1
  Basis Set: CC-PVTZ
  Basis Set:

  -Total Gradient:
     Atom            X                  Y                   Z
    ------   -----------------  -----------------  -----------------
       1       -0.000006421427     0.000030574533     0.001709738508
       2       -0.000010076958    -0.000276671422    -0.002811410150
       3        0.000131703477     0.000709586461     0.002342065971
       4       -0.000053049871    -0.000425381057    -0.001217897684
       5       -0.000091120051    -0.000013148740    -0.000023442022
       6        0.000001987761     0.000001525577    -0.000000541110
       7        0.000019139226     0.000009817476    -0.000031619595
       8        0.000007680800     0.000004652943     0.000000983166
       9        0.000003881082    -0.000000737520    -0.000008871740
      10       -0.000007642620    -0.000002233534     0.000006683589
      11        0.000004754359    -0.000040643870     0.000028221225
      12       -0.000000736208    -0.000002896100     0.000006630351
      13       -0.000000099568     0.000005555253    -0.000000540509

  **** Optimization is complete! (in 6 steps) ****
    Final optimized geometry and variables:
    Molecular point group: c1

    Geometry (in Angstrom), charge = 0, multiplicity = 1:

    H            2.694926943719     0.570825267152     0.024537836286
    O            2.246793843691    -0.255449225979     0.035109781856
    C            0.907273639462    -0.077954900341     0.019405043897
    C            0.325093719993     1.101326428258    -0.407320633752
    C            0.112939661198    -1.140716329082     0.414099835518
    H            0.942864118198     1.920458261873    -0.727707272445
    C           -1.052804315499     1.219295051991    -0.423192012639
    H            0.581670656489    -2.049292734422     0.737138200021
    C           -1.259694316926    -1.012568499798     0.385556376920
    H           -1.497223102223     2.139540802338    -0.751793093456
    C           -1.853715601095     0.166905933578    -0.029428283109
    H           -1.870566069505    -1.839830085407     0.693597427122
    H           -2.921862387957     0.260889525336    -0.046243549086

  Mulliken Charges: (a.u.)
   Center  Symbol    Alpha    Beta     Spin     Total
       1     H     0.38682  0.38682  0.00000  0.22637
       2     O     4.17709  4.17709  0.00000 -0.35418
       3     C     2.85332  2.85332  0.00000  0.29336
       4     C     3.13159  3.13159  0.00000 -0.26319
       5     C     3.11061  3.11061  0.00000 -0.22123
       6     H     0.43293  0.43293  0.00000  0.13413
       7     C     3.06518  3.06518  0.00000 -0.13035
       8     H     0.41903  0.41903  0.00000  0.16195
       9     C     3.05742  3.05742  0.00000 -0.11483
      10     H     0.42236  0.42236  0.00000  0.15528
      11     C     3.09742  3.09742  0.00000 -0.19484
      12     H     0.42238  0.42238  0.00000  0.15525
      13     H     0.42386  0.42386  0.00000  0.15229

   Total alpha = 25.00000, Total beta = 25.00000, Total charge =  0.00000

*** Psi4 exiting successfully. Buy a developer a beer!
