  ==> Input File <==

--------------------------------------------------------------------------
set {
	reference rhf
	basis 6-31G*
}

set_num_threads( 4 )
memory 2 gb

molecule MOL {
0 1

H	 1.369396	 0.901746	 -2.491928
C	 0.638365	 0.696340	 -1.718411
C	 1.322923	 0.120767	 -0.479465
H	 0.125575	 1.625881	 -1.491756
H	 -0.089257	 0.001558	 -2.126379
C	 0.306652	 -0.176050	 0.621399
H	 2.057335	 0.823105	 -0.098954
H	 1.845471	 -0.795063	 -0.729386
N	 -1.068537	 -0.011044	 0.085269
H	 0.372515	 -1.192590	 0.973735
H	 0.391664	 0.520566	 1.441230
O	 -1.656956	 -0.997225	 -0.235017
O	 -1.478635	 1.104830	 -0.018026

	symmetry c1
}
set optking {
	frozen_dihedral = ("
		7 3 6 9
	")
}

ee = optimize('scf')
oeprop('DIPOLE', 'QUADRUPOLE', 'MULLIKEN_CHARGES')
f=open( 'psi4out.xyz', 'w' )
f.write( "13  " )
f.write( str(ee) + "\n" )
f.write( MOL.save_string_xyz() )
f.close()
--------------------------------------------------------------------------

    Molecular point group: c1
  Charge       = 0
  Multiplicity = 1
  Basis Set: 6-31G*
  Basis Set:
  @DF-RHF Final Energy:  -321.72184460843499
    Total Energy =                       -321.7218446084350489
    Molecular point group: c1
  Basis Set: 6-31G*
  Basis Set:
  Basis Set: 6-31G*
  Basis Set:
  @DF-RHF Final Energy:  -321.72321883538513
    Total Energy =                       -321.7232188353850120
  Basis Set: 6-31G*
  Basis Set:
  Basis Set: 6-31G*
  Basis Set:
  @DF-RHF Final Energy:  -321.72590058985020
    Total Energy =                       -321.7259005898499709
  Basis Set: 6-31G*
  Basis Set:
  Basis Set: 6-31G*
  Basis Set:
  @DF-RHF Final Energy:  -321.72708264910398
    Total Energy =                       -321.7270826491039202
  Basis Set: 6-31G*
  Basis Set:
  @DF-RHF Final Energy:  -321.72758966384174
    Total Energy =                       -321.7275896638417407
  @DF-RHF Final Energy:  -321.72788231704885
    Total Energy =                       -321.7278823170486248
  @DF-RHF Final Energy:  -321.72798791650416
    Total Energy =                       -321.7279879165040484
  Basis Set: 6-31G*
  Basis Set:
  @DF-RHF Final Energy:  -321.72805609208649
    Total Energy =                       -321.7280560920864900
  Basis Set: 6-31G*
  Basis Set:
  Basis Set: 6-31G*
  Basis Set:
  @DF-RHF Final Energy:  -321.72810024900326
    Total Energy =                       -321.7281002490033757
  Basis Set: 6-31G*
  Basis Set:
  Basis Set: 6-31G*
  Basis Set:
  @DF-RHF Final Energy:  -321.72810389660111
    Total Energy =                       -321.7281038966009419
  Basis Set: 6-31G*
  Basis Set:
  Charge       = 0
  Multiplicity = 1
  Basis Set: 6-31G*
  Basis Set:

    Orbital Energies (a.u.)
    -----------------------

    Doubly Occupied:

       1A    -20.601608     2A    -20.600005     3A    -15.846576
       4A    -11.299216     5A    -11.258392     6A    -11.229288
       7A     -1.630715     8A     -1.415955     9A     -1.129396
      10A     -1.022419    11A     -0.895522    12A     -0.820266
      13A     -0.750670    14A     -0.733749    15A     -0.725998
      16A     -0.667634    17A     -0.604784    18A     -0.589993
      19A     -0.536324    20A     -0.518150    21A     -0.511711
      22A     -0.478565    23A     -0.474221    24A     -0.448040

  @DF-RHF Final Energy:  -321.72810431028063

   => Energetics <=

    Nuclear Repulsion Energy =            254.4265716585326516
    One-Electron Energy =                -942.7309582051868801
    Two-Electron Energy =                 366.5762822363734017
    DFT Exchange-Correlation Energy =       0.0000000000000000
    Empirical Dispersion Energy =           0.0000000000000000
    PCM Polarization Energy =               0.0000000000000000
    EFP Energy =                            0.0000000000000000
    Total Energy =                       -321.7281043102807985
    Molecular point group: c1
  Basis Set: 6-31G*
  Basis Set:

  -Total Gradient:
     Atom            X                  Y                   Z
    ------   -----------------  -----------------  -----------------
       1       -0.000003761392     0.000000549888     0.000007648594
       2       -0.000007949374     0.000003046854    -0.000007243033
       3        0.001788823221    -0.001680012211     0.001186317111
       4        0.000009138743    -0.000013125803    -0.000005622517
       5       -0.000002804945     0.000003917779     0.000000073838
       6       -0.000335414731    -0.002179214788    -0.000848905342
       7       -0.001476846566     0.001958559698    -0.000817707200
       8        0.000008890954     0.000001477456    -0.000006606062
       9        0.000037620020     0.001912947660     0.000486402319
      10        0.000009533375     0.000000798009     0.000001475413
      11       -0.000005567324    -0.000006442383    -0.000001740283
      12       -0.000002816731     0.000036519241     0.000017888447
      13       -0.000018845246    -0.000039021398    -0.000011981285

  **** Optimization is complete! (in 11 steps) ****
    Final optimized geometry and variables:
    Molecular point group: c1

    Geometry (in Angstrom), charge = 0, multiplicity = 1:

    H            1.891648120943     0.752882917425    -2.267254941404
    C            1.090574277355     0.574712377007    -1.558861728867
    C            1.680605049093     0.002768341470    -0.265888980799
    H            0.582819269205     1.515684579268    -1.383467053650
    H            0.387640174444    -0.111394213089    -2.015467278914
    C            0.673820340175    -0.278752027766     0.878987140272
    H            2.406774039768     0.710879676830     0.115318155934
    H            2.209444836627    -0.914917886664    -0.490730525747
    N           -0.736980310542    -0.138823341628     0.435303442288
    H            0.758835659838    -1.286954556917     1.249292720992
    H            0.781759095392     0.425478281774     1.686724241277
    O           -1.244224831813    -1.089366134784    -0.077807296079
    O           -1.263415982079     0.917999679192     0.601940290626

  Mulliken Charges: (a.u.)
   Center  Symbol    Alpha    Beta     Spin     Total
       1     H     0.41080  0.41080  0.00000  0.17841
       2     C     3.25704  3.25704  0.00000 -0.51408
       3     C     3.17115  3.17115  0.00000 -0.34229
       4     H     0.40415  0.40415  0.00000  0.19171
       5     H     0.40253  0.40253  0.00000  0.19493
       6     C     3.08428  3.08428  0.00000 -0.16857
       7     H     0.40613  0.40613  0.00000  0.18774
       8     H     0.40465  0.40465  0.00000  0.19070
       9     N     3.23169  3.23169  0.00000  0.53662
      10     H     0.38618  0.38618  0.00000  0.22765
      11     H     0.38693  0.38693  0.00000  0.22614
      12     O     4.22849  4.22849  0.00000 -0.45699
      13     O     4.22598  4.22598  0.00000 -0.45196

   Total alpha = 24.00000, Total beta = 24.00000, Total charge =  0.00000
