  ==> Input File <==

--------------------------------------------------------------------------
set {
	reference rhf
	basis 6-31G*
}

set_num_threads( 1 )
memory 2 gb

molecule MOL {
0 1

H	 -3.244591	 -0.402407	 1.473992
C	 -3.298160	 -0.341785	 0.379882
C	 -2.671831	 0.890549	 -0.221514
O	 -3.822311	 -1.208455	 -0.241325
C	 -1.231331	 1.113306	 0.259729
H	 -2.723213	 0.808341	 -1.301009
H	 -3.284866	 1.739661	 0.078237
C	 -0.252658	 0.041456	 -0.226725
H	 -0.900055	 2.087947	 -0.086126
H	 -1.216632	 1.157303	 1.347665
C	 1.180775	 0.282413	 0.250794
H	 -0.272569	 0.008506	 -1.314091
H	 -0.582491	 -0.939577	 0.109911
C	 2.148627	 -0.814315	 -0.201312
H	 1.516199	 1.249228	 -0.115937
H	 1.192670	 0.346017	 1.338083
C	 3.580890	 -0.659131	 0.322722
H	 2.166869	 -0.852443	 -1.289387
H	 1.762857	 -1.776509	 0.128956
C	 4.324889	 0.564933	 -0.213704
H	 4.142010	 -1.551473	 0.056605
H	 3.564836	 -0.624694	 1.410140
H	 4.342616	 0.565491	 -1.300421
H	 3.866655	 1.493402	 0.110242
H	 5.353900	 0.572371	 0.132816

	symmetry c1
}
set optking {
	frozen_dihedral = ("
		6 3 5 8,
		6 3 2 4,
		3 5 8 12,
		8 11 14 18,
		20 17 14 18
	")
}

ee = energy('scf')
oeprop('DIPOLE', 'QUADRUPOLE', 'MULLIKEN_CHARGES')
f=open( 'psi4out.xyz', 'w' )
f.write( "25  " )
f.write( str(ee) + "\n" )
f.write( MOL.save_string_xyz() )
f.close()
--------------------------------------------------------------------------

    Molecular point group: c1

    Geometry (in Angstrom), charge = 0, multiplicity = 1:

       Center              X                  Y                   Z               Mass
    ------------   -----------------  -----------------  -----------------  -----------------
           H         -3.244932852912    -0.382983911664     1.465216889097     1.007825032070
           C         -3.298501852912    -0.322361911664     0.371106889097    12.000000000000
           C         -2.672172852912     0.909972088336    -0.230289110903    12.000000000000
           O         -3.822652852912    -1.189031911664    -0.250100110903    15.994914619560
           C         -1.231672852912     1.132729088336     0.250953889097    12.000000000000
           H         -2.723554852912     0.827764088336    -1.309784110903     1.007825032070
           H         -3.285207852912     1.759084088336     0.069461889097     1.007825032070
           C         -0.252999852912     0.060879088336    -0.235500110903    12.000000000000
           H         -0.900396852912     2.107370088336    -0.094901110903     1.007825032070
           H         -1.216973852912     1.176726088336     1.338889889097     1.007825032070
           C          1.180433147088     0.301836088336     0.242018889097    12.000000000000
           H         -0.272910852912     0.027929088336    -1.322866110903     1.007825032070
           H         -0.582832852912    -0.920153911664     0.101135889097     1.007825032070
           C          2.148285147088    -0.794891911664    -0.210087110903    12.000000000000
           H          1.515857147088     1.268651088336    -0.124712110903     1.007825032070
           H          1.192328147088     0.365440088336     1.329307889097     1.007825032070
           C          3.580548147088    -0.639707911664     0.313946889097    12.000000000000
           H          2.166527147088    -0.833019911664    -1.298162110903     1.007825032070
           H          1.762515147088    -1.757085911664     0.120180889097     1.007825032070
           C          4.324547147088     0.584356088336    -0.222479110903    12.000000000000
           H          4.141668147088    -1.532049911664     0.047829889097     1.007825032070
           H          3.564494147088    -0.605270911664     1.401364889097     1.007825032070
           H          4.342274147088     0.584914088336    -1.309196110903     1.007825032070
           H          3.866313147088     1.512825088336     0.101466889097     1.007825032070
           H          5.353558147088     0.591794088336     0.124040889097     1.007825032070

  Charge       = 0
  Multiplicity = 1
  Basis Set: 6-31G*
  Basis Set:

    Orbital Energies (a.u.)
    -----------------------

    Doubly Occupied:

       1A    -20.562010     2A    -11.326149     3A    -11.235357
       4A    -11.234650     5A    -11.223945     6A    -11.219892
       7A    -11.218042     8A    -11.217014     9A    -11.210699
      10A     -1.401987    11A     -1.104033    12A     -1.069750
      13A     -1.013410    14A     -0.942483    15A     -0.875269
      16A     -0.820680    17A     -0.788107    18A     -0.781355
      19A     -0.664436    20A     -0.662142    21A     -0.632778
      22A     -0.626016    23A     -0.601200    24A     -0.594571
      25A     -0.576109    26A     -0.549084    27A     -0.536426
      28A     -0.524935    29A     -0.507896    30A     -0.495084
      31A     -0.491799    32A     -0.479663    33A     -0.464718
      34A     -0.458970    35A     -0.441197    36A     -0.409553

  @DF-RHF Final Energy:  -387.12203636399516

   => Energetics <=

    Nuclear Repulsion Energy =            439.1938724765834081
    One-Electron Energy =               -1394.7090577142998882
    Two-Electron Energy =                 568.3931488737212021
    DFT Exchange-Correlation Energy =       0.0000000000000000
    Empirical Dispersion Energy =           0.0000000000000000
    PCM Polarization Energy =               0.0000000000000000
    EFP Energy =                            0.0000000000000000
    Total Energy =                       -387.1220363639952211

  Mulliken Charges: (a.u.)
   Center  Symbol    Alpha    Beta     Spin     Total
       1     H     0.43260  0.43260  0.00000  0.13479
       2     C     2.83082  2.83082  0.00000  0.33835
       3     C     3.20816  3.20816  0.00000 -0.41631
       4     O     4.23775  4.23775  0.00000 -0.47551
       5     C     3.16654  3.16654  0.00000 -0.33308
       6     H     0.39969  0.39969  0.00000  0.20062
       7     H     0.40669  0.40669  0.00000  0.18662
       8     C     3.15481  3.15481  0.00000 -0.30962
       9     H     0.41286  0.41286  0.00000  0.17428
      10     H     0.41961  0.41961  0.00000  0.16077
      11     C     3.15421  3.15421  0.00000 -0.30842
      12     H     0.41790  0.41790  0.00000  0.16420
      13     H     0.41850  0.41850  0.00000  0.16299
      14     C     3.15311  3.15311  0.00000 -0.30623
      15     H     0.42070  0.42070  0.00000  0.15860
      16     H     0.42390  0.42390  0.00000  0.15221
      17     C     3.15275  3.15275  0.00000 -0.30550
      18     H     0.42294  0.42294  0.00000  0.15412
      19     H     0.42067  0.42067  0.00000  0.15866
      20     C     3.24134  3.24134  0.00000 -0.48269
      21     H     0.41995  0.41995  0.00000  0.16009
      22     H     0.42326  0.42326  0.00000  0.15349
      23     H     0.42187  0.42187  0.00000  0.15626
      24     H     0.42068  0.42068  0.00000  0.15864
      25     H     0.41867  0.41867  0.00000  0.16266

   Total alpha = 36.00000, Total beta = 36.00000, Total charge = -0.00000
