                              Psi4 1.0.54 Driver

  ==> Input File <==

--------------------------------------------------------------------------
set {
	reference rhf
	basis cc-pvtz
}

set_num_threads( 4 )
memory 2 gb

molecule MOL {
0 1

H	 -2.125741	 0.800176	 -2.411685
C	 -2.843181	 1.268165	 -1.723825
C	 -2.653809	 0.914422	 -0.273689
O	 -3.687957	 1.979922	 -2.144614
C	 -1.216901	 1.136108	 0.207794
H	 -3.363741	 1.481163	 0.314645
H	 -2.904717	 -0.139539	 -0.176143
C	 -0.247837	 0.040196	 -0.230469
H	 -0.872882	 2.093195	 -0.169002
H	 -1.209325	 1.218376	 1.291938
C	 1.181757	 0.280428	 0.247371
H	 -0.259600	 -0.030819	 -1.314870
H	 -0.591284	 -0.923375	 0.136958
C	 2.151032	 -0.811012	 -0.202643
H	 1.515939	 1.247397	 -0.115449
H	 1.191514	 0.341223	 1.333422
C	 3.580021	 -0.656538	 0.320835
H	 2.170545	 -0.847575	 -1.289412
H	 1.766632	 -1.772905	 0.124928
C	 4.327657	 0.562694	 -0.213579
H	 4.138806	 -1.549270	 0.057813
H	 3.561991	 -0.620783	 1.406976
H	 4.355973	 0.557257	 -1.298551
H	 3.867136	 1.491650	 0.100501
H	 5.351524	 0.571613	 0.142204

	symmetry c1
}
set optking {
	frozen_dihedral = ("
		6 3 5 8
	")
}

ee,wfn = optimize('scf', return_wfn=True)
oeprop( wfn, 'DIPOLE', 'QUADRUPOLE', 'MULLIKEN_CHARGES')
f=open( 'psi4out.xyz', 'w' )
f.write( "25  " )
f.write( str(ee) + "\n" )
f.write( MOL.save_string_xyz() )
f.close()
--------------------------------------------------------------------------

    Molecular point group: c1
  Charge       = 0
  Multiplicity = 1
  Basis Set: CC-PVTZ
  Basis Set:
  @DF-RHF Final Energy:  -387.25806411227563
    Total Energy =                       -387.2580641122756333
    Molecular point group: c1
  Basis Set: CC-PVTZ
  Basis Set:
  Basis Set: CC-PVTZ
  Basis Set:
  @DF-RHF Final Energy:  -387.25817413362921
    Total Energy =                       -387.2581741336285859
  Basis Set: CC-PVTZ
  Basis Set:
  Basis Set: CC-PVTZ
  Basis Set:
  @DF-RHF Final Energy:  -387.25450655489914
    Total Energy =                       -387.2545065548996490
  Basis Set: CC-PVTZ
  Basis Set:
  Basis Set: CC-PVTZ
  Basis Set:
  @DF-RHF Final Energy:  -387.25821571285280
    Total Energy =                       -387.2582157128525751
  Basis Set: CC-PVTZ
  Basis Set:
  Basis Set: CC-PVTZ
  Basis Set:
  @DF-RHF Final Energy:  -387.25844595024620
    Total Energy =                       -387.2584459502463687
  Basis Set: CC-PVTZ
  Basis Set:
  Basis Set: CC-PVTZ
  Basis Set:
  @DF-RHF Final Energy:  -387.25844716849491
    Total Energy =                       -387.2584471684954224
  Basis Set: CC-PVTZ
  Basis Set:
  Charge       = 0
  Multiplicity = 1
  Basis Set: CC-PVTZ
  Basis Set:

    Orbital Energies (a.u.)
    -----------------------

    Doubly Occupied:

       1A    -20.550677     2A    -11.320072     3A    -11.233648
       4A    -11.233042     5A    -11.225721     6A    -11.220012
       7A    -11.218435     8A    -11.217788     9A    -11.210282
      10A     -1.405360    11A     -1.106552    12A     -1.071637
      13A     -1.015679    14A     -0.944876    15A     -0.877679
      16A     -0.825720    17A     -0.785879    18A     -0.784052
      19A     -0.675985    20A     -0.663508    21A     -0.635139
      22A     -0.620743    23A     -0.611487    24A     -0.587749
      25A     -0.573713    26A     -0.563083    27A     -0.541115
      28A     -0.521318    29A     -0.511623    30A     -0.505686
      31A     -0.485160    32A     -0.483150    33A     -0.467638
      34A     -0.461755    35A     -0.446740    36A     -0.409926

  @DF-RHF Final Energy:  -387.25844803888714

   => Energetics <=

    Nuclear Repulsion Energy =            436.6229939696303859
    One-Electron Energy =               -1389.7376256635322989
    Two-Electron Energy =                 565.8561836550151156
    DFT Exchange-Correlation Energy =       0.0000000000000000
    Empirical Dispersion Energy =           0.0000000000000000
    PCM Polarization Energy =               0.0000000000000000
    EFP Energy =                            0.0000000000000000
    Total Energy =                       -387.2584480388867405
    Molecular point group: c1
  Basis Set: CC-PVTZ
  Basis Set:

  -Total Gradient:
     Atom            X                  Y                   Z
    ------   -----------------  -----------------  -----------------
       1        0.000008031263    -0.000022516957     0.000100521688
       2        0.000006503748    -0.000030017432    -0.000163480151
       3       -0.000024708964     0.000802908210    -0.000573712881
       4       -0.000010593310     0.000036956300     0.000093994049
       5        0.000273782539     0.000446959359    -0.000700085994
       6       -0.000119320350    -0.000810394479     0.000603068328
       7       -0.000037865784    -0.000040828108     0.000005842640
       8       -0.000191700069    -0.000355714211     0.000619167573
       9        0.000070154769     0.000031799994     0.000030437132
      10        0.000021435981    -0.000025423605    -0.000036460336
      11        0.000015091484    -0.000004739595     0.000015133322
      12       -0.000004277051     0.000001985238     0.000005734139
      13        0.000013004482    -0.000003933011     0.000002563818
      14        0.000000610302    -0.000034241798     0.000019963893
      15        0.000008858350     0.000023555475     0.000004888510
      16       -0.000006813208    -0.000006616899    -0.000012994322
      17        0.000014878057    -0.000021300976    -0.000022661535
      18       -0.000003369208    -0.000016234210     0.000003070123
      19       -0.000004086230     0.000002889150     0.000009088084
      20       -0.000014653817     0.000010563033     0.000002439353
      21        0.000001777868     0.000000945950    -0.000008476387
      22        0.000001820926    -0.000016407311    -0.000002704156
      23        0.000006182869    -0.000002465366     0.000006234729
      24       -0.000022404724     0.000021174866    -0.000006587415
      25       -0.000002339934     0.000011096384     0.000005015798

  **** Optimization is complete! (in 7 steps) ****
    Final optimized geometry and variables:
    Molecular point group: c1

    Geometry (in Angstrom), charge = 0, multiplicity = 1:

    H           -2.156655233252     0.389306256894    -2.087581242420
    C           -2.877831514923     0.824109366587    -1.385842966344
    C           -2.723103177671     0.416000106323     0.054169944401
    O           -3.710317214667     1.564821867760    -1.782857060133
    C           -1.294437332694     0.596833872977     0.589353550945
    H           -3.433852723385     0.985583618895     0.637119198751
    H           -3.006740998604    -0.631897588612     0.128504471377
    C           -0.315010248799    -0.497919734420     0.168462256658
    H           -0.914336625335     1.569300905116     0.288177765890
    H           -1.344752228990     0.618736942612     1.672480193599
    C            1.088593473417    -0.289404087762     0.731275158713
    H           -0.256200846355    -0.553525430901    -0.915047209875
    H           -0.697518446148    -1.459522541348     0.501060511059
    C            2.064181217133    -1.391561492737     0.322916193990
    H            1.459398497855     0.676180349193     0.402608838158
    H            1.034865433414    -0.243237259499     1.816579991579
    C            3.462713562734    -1.267943790606     0.930141244357
    H            2.146710583238    -1.414531974380    -0.761391588925
    H            1.646012138401    -2.351071647689     0.614751594040
    C            4.257027029614    -0.051445814699     0.460843774553
    H            4.022766744352    -2.164739667089     0.684122888428
    H            3.382279417754    -1.249919347201     2.013829526691
    H            4.348402547732    -0.039567514457    -0.620580522754
    H            3.792232512290     0.879054993073     0.763684694177
    H            5.258425581827    -0.063818256759     0.875439603865

  Mulliken Charges: (a.u.)
   Center  Symbol    Alpha    Beta     Spin     Total
       1     H     0.46392  0.46392  0.00000  0.07217
       2     C     2.90199  2.90199  0.00000  0.19601
       3     C     3.08869  3.08869  0.00000 -0.17739
       4     O     4.16652  4.16652  0.00000 -0.33303
       5     C     3.11146  3.11146  0.00000 -0.22292
       6     H     0.43609  0.43609  0.00000  0.12783
       7     H     0.45041  0.45041  0.00000  0.09918
       8     C     3.09353  3.09353  0.00000 -0.18706
       9     H     0.44614  0.44614  0.00000  0.10773
      10     H     0.44319  0.44319  0.00000  0.11362
      11     C     3.09253  3.09253  0.00000 -0.18506
      12     H     0.45275  0.45275  0.00000  0.09451
      13     H     0.45192  0.45192  0.00000  0.09616
      14     C     3.09542  3.09542  0.00000 -0.19084
      15     H     0.45054  0.45054  0.00000  0.09892
      16     H     0.45296  0.45296  0.00000  0.09409
      17     C     3.09064  3.09064  0.00000 -0.18127
      18     H     0.45345  0.45345  0.00000  0.09310
      19     H     0.44921  0.44921  0.00000  0.10158
      20     C     3.15269  3.15269  0.00000 -0.30538
      21     H     0.44775  0.44775  0.00000  0.10451
      22     H     0.45432  0.45432  0.00000  0.09137
      23     H     0.45449  0.45449  0.00000  0.09103
      24     H     0.45379  0.45379  0.00000  0.09241
      25     H     0.44562  0.44562  0.00000  0.10876

   Total alpha = 36.00000, Total beta = 36.00000, Total charge = -0.00000

*** Psi4 exiting successfully. Buy a developer a beer!
