  ==> Input File <==

--------------------------------------------------------------------------
set {
	reference rhf
	basis cc-pvtz
}

set_num_threads( 4 )
memory 2 gb

molecule MOL {
0 1

H	 -3.642953	 0.223825	 0.000000
C	 -2.571844	 0.155001	 0.000000
C	 -1.957580	 -1.086132	 0.000000
C	 -1.807160	 1.303787	 0.000000
H	 -2.551493	 -1.979629	 0.000000
C	 -0.582719	 -1.174294	 0.000000
H	 -2.279934	 2.266806	 0.000000
C	 -0.427220	 1.213406	 0.000000
H	 -0.094904	 -2.127556	 0.000000
C	 0.196908	 -0.024061	 0.000000
H	 0.151409	 2.115254	 0.000000
C	 1.690041	 -0.173233	 0.000000
C	 2.443626	 -0.017973	 1.301023
O	 2.273411	 -0.410378	 -1.009358
H	 2.281344	 0.966570	 1.723301
H	 3.495122	 -0.157405	 1.106998
H	 2.109907	 -0.749419	 2.027383

	symmetry c1
}
set optking {
	frozen_dihedral = ("
		13 12 10 8
	")
}

ee = optimize('scf')
oeprop('DIPOLE', 'QUADRUPOLE', 'MULLIKEN_CHARGES')
f=open( 'psi4out.xyz', 'w' )
f.write( "17  " )
f.write( str(ee) + "\n" )
f.write( MOL.save_string_xyz() )
f.close()
--------------------------------------------------------------------------

    Molecular point group: c1
  Charge       = 0
  Multiplicity = 1
  Basis Set: CC-PVTZ
  Basis Set:
  @DF-RHF Final Energy:  -382.59674896646044
    Total Energy =                       -382.5967489664607228
    Molecular point group: c1
  Basis Set: CC-PVTZ
  Basis Set:
  Basis Set: CC-PVTZ
  Basis Set:
  @DF-RHF Final Energy:  -382.59649620724372
    Total Energy =                       -382.5964962072441722
  Basis Set: CC-PVTZ
  Basis Set:
  Basis Set: CC-PVTZ
  Basis Set:
  @DF-RHF Final Energy:  -382.59716534279795
    Total Energy =                       -382.5971653427977799
  Basis Set: CC-PVTZ
  Basis Set:
  Basis Set: CC-PVTZ
  Basis Set:
  @DF-RHF Final Energy:  -382.59755979254709
    Total Energy =                       -382.5975597925471448
  Basis Set: CC-PVTZ
  Basis Set:
  Basis Set: CC-PVTZ
  Basis Set:
  @DF-RHF Final Energy:  -382.59756580984185
    Total Energy =                       -382.5975658098418535
  Basis Set: CC-PVTZ
  Basis Set:
  Basis Set: CC-PVTZ
  Basis Set:
  @DF-RHF Final Energy:  -382.59756809984782
    Total Energy =                       -382.5975680998481039
  Basis Set: CC-PVTZ
  Basis Set:
  Charge       = 0
  Multiplicity = 1
  Basis Set: CC-PVTZ
  Basis Set:

    Orbital Energies (a.u.)
    -----------------------

    Doubly Occupied:

       1A    -20.548472     2A    -11.330941     3A    -11.246901
       4A    -11.242035     5A    -11.240831     6A    -11.239500
       7A    -11.238846     8A    -11.237035     9A    -11.231492
      10A     -1.408219    11A     -1.171057    12A     -1.053981
      13A     -1.029673    14A     -1.001696    15A     -0.862362
      16A     -0.841426    17A     -0.765485    18A     -0.706556
      19A     -0.666818    20A     -0.647998    21A     -0.632416
      22A     -0.623426    23A     -0.602205    24A     -0.592870
      25A     -0.565229    26A     -0.525752    27A     -0.516325
      28A     -0.511442    29A     -0.497165    30A     -0.413609
      31A     -0.348751    32A     -0.346455

  @DF-RHF Final Energy:  -382.59756838588072

   => Energetics <=

    Nuclear Repulsion Energy =            403.5634596321249887
    One-Electron Energy =               -1318.5481162409482749
    Two-Electron Energy =                 532.3870882229426797
    DFT Exchange-Correlation Energy =       0.0000000000000000
    Empirical Dispersion Energy =           0.0000000000000000
    PCM Polarization Energy =               0.0000000000000000
    EFP Energy =                            0.0000000000000000
    Total Energy =                       -382.5975683858806633
    Molecular point group: c1
  Basis Set: CC-PVTZ
  Basis Set:

  -Total Gradient:
     Atom            X                  Y                   Z
    ------   -----------------  -----------------  -----------------
       1       -0.000002887533    -0.000003438314     0.000002473891
       2        0.000003027266    -0.000003188168     0.000017346136
       3       -0.000000119250     0.000000095698    -0.000009070279
       4        0.000006621122     0.000017033012    -0.000031676251
       5       -0.000000985492     0.000002753096    -0.000004696379
       6       -0.000021770819     0.000012451324     0.000018594689
       7        0.000001003077    -0.000001530987     0.000002211957
       8       -0.000058809379    -0.000001033296    -0.002021681440
       9        0.000008892678     0.000002510660     0.000000111007
      10        0.000016204231    -0.000840866964     0.003167904961
      11       -0.000008608765     0.000001728749    -0.000008351402
      12        0.000213521354     0.002596187454    -0.001527724266
      13       -0.000179820920    -0.001816004550     0.000352230787
      14       -0.000011094056     0.000014512783     0.000041900146
      15        0.000008946415     0.000005816565    -0.000010161683
      16        0.000013173250     0.000004097824     0.000010378681
      17        0.000012706827     0.000008875118     0.000000209444

  **** Optimization is complete! (in 7 steps) ****
    Final optimized geometry and variables:
    Molecular point group: c1

    Geometry (in Angstrom), charge = 0, multiplicity = 1:

    H           -3.634026649218     0.278865730927    -0.030189688088
    C           -2.564081689850     0.197667633476    -0.027493730706
    C           -1.963465307411    -1.047067686823    -0.034002829128
    C           -1.782812532954     1.337233312553    -0.023469473240
    H           -2.566016768416    -1.934980055735    -0.044228424450
    C           -0.585940959954    -1.152854660459    -0.038230886942
    H           -2.244008878161     2.306158725962    -0.028611875574
    C           -0.404811114144     1.232877638452    -0.015593985420
    H           -0.122356784798    -2.120812289125    -0.063808228466
    C            0.198472701841    -0.012608675052    -0.020463998260
    H            0.196317040158     2.123040512807    -0.015575275505
    C            1.700648183664    -0.137296337032    -0.057192352386
    C            2.429584750911     0.050704166547     1.250374498227
    O            2.267145335312    -0.410269042882    -1.062429805509
    H            2.188917295142     1.015129457656     1.682849176138
    H            3.494653564653    -0.032328092764     1.095513001986
    H            2.097208120540    -0.704006014492     1.954788770064

  Mulliken Charges: (a.u.)
   Center  Symbol    Alpha    Beta     Spin     Total
       1     H     0.42162  0.42162  0.00000  0.15676
       2     C     3.08536  3.08536  0.00000 -0.17073
       3     C     3.06301  3.06301  0.00000 -0.12602
       4     C     3.06413  3.06413  0.00000 -0.12827
       5     H     0.42138  0.42138  0.00000  0.15724
       6     C     3.09459  3.09459  0.00000 -0.18918
       7     H     0.42151  0.42151  0.00000  0.15698
       8     C     3.09835  3.09835  0.00000 -0.19669
       9     H     0.42160  0.42160  0.00000  0.15681
      10     C     2.95650  2.95650  0.00000  0.08700
      11     H     0.42392  0.42392  0.00000  0.15216
      12     C     2.88148  2.88148  0.00000  0.23704
      13     C     3.14968  3.14968  0.00000 -0.29935
      14     O     4.16604  4.16604  0.00000 -0.33208
      15     H     0.44818  0.44818  0.00000  0.10364
      16     H     0.43639  0.43639  0.00000  0.12722
      17     H     0.44627  0.44627  0.00000  0.10747

   Total alpha = 32.00000, Total beta = 32.00000, Total charge =  0.00000
