  ==> Input File <==

--------------------------------------------------------------------------
set {
	reference rhf
	basis cc-pvtz
}

set_num_threads( 4 )
memory 2 gb

molecule MOL {
0 1

O	 0.695657	 2.127379	 0.142151
C	 -0.391211	 2.516231	 0.404016
C	 -1.645977	 1.681430	 0.392466
O	 -0.649252	 3.766993	 0.749540
C	 -1.413045	 0.229353	 0.001137
H	 -2.089908	 1.756057	 1.379804
H	 -2.345503	 2.163140	 -0.282872
C	 -2.702562	 -0.586401	 0.000228
H	 -0.697718	 -0.215236	 0.683917
H	 -0.954193	 0.192120	 -0.980501
C	 -3.953810	 0.284959	 -0.000782
H	 -2.717793	 -1.238567	 -0.869075
H	 -2.719108	 -1.238472	 0.869576
H	 -3.983727	 0.924403	 -0.876454
H	 -4.852989	 -0.320147	 -0.001515
H	 -3.985140	 0.924399	 0.874841
C	 0.441562	 4.664066	 0.801518
H	 1.173285	 4.333252	 1.523578
H	 0.030547	 5.615573	 1.097439
H	 0.913803	 4.746677	 -0.166154

	symmetry c1
}
set optking {
	frozen_dihedral = ("
		9 5 8 12
	")
}

ee = optimize('scf')
oeprop('DIPOLE', 'QUADRUPOLE', 'MULLIKEN_CHARGES')
f=open( 'psi4out.xyz', 'w' )
f.write( "20  " )
f.write( str(ee) + "\n" )
f.write( MOL.save_string_xyz() )
f.close()
--------------------------------------------------------------------------

    Molecular point group: c1
  Charge       = 0
  Multiplicity = 1
  Basis Set: CC-PVTZ
  Basis Set:
  @DF-RHF Final Energy:  -384.07040613041147
    Total Energy =                       -384.0704061304112429
    Molecular point group: c1
  Basis Set: CC-PVTZ
  Basis Set:
  Basis Set: CC-PVTZ
  Basis Set:
  @DF-RHF Final Energy:  -384.07094332929859
    Total Energy =                       -384.0709433292989843
  Basis Set: CC-PVTZ
  Basis Set:
  Basis Set: CC-PVTZ
  Basis Set:
  @DF-RHF Final Energy:  -384.07404567193129
    Total Energy =                       -384.0740456719313443
  Basis Set: CC-PVTZ
  Basis Set:
  Basis Set: CC-PVTZ
  Basis Set:
  @DF-RHF Final Energy:  -384.07433631414159
    Total Energy =                       -384.0743363141417603
  Basis Set: CC-PVTZ
  Basis Set:
  Basis Set: CC-PVTZ
  Basis Set:
  @DF-RHF Final Energy:  -384.07259143532144
    Total Energy =                       -384.0725914353208736
  Basis Set: CC-PVTZ
  Basis Set:
  Basis Set: CC-PVTZ
  Basis Set:
  @DF-RHF Final Energy:  -384.07447535063267
    Total Energy =                       -384.0744753506321558
  Basis Set: CC-PVTZ
  Basis Set:
  Basis Set: CC-PVTZ
  Basis Set:
  @DF-RHF Final Energy:  -384.07447965233558
    Total Energy =                       -384.0744796523362083
  Basis Set: CC-PVTZ
  Basis Set:
  Charge       = 0
  Multiplicity = 1
  Basis Set: CC-PVTZ
  Basis Set:

    Orbital Energies (a.u.)
    -----------------------

    Doubly Occupied:

       1A    -20.595916     2A    -20.533917     3A    -11.364203
       4A    -11.278244     5A    -11.233040     6A    -11.218878
       7A    -11.217687     8A    -11.211432     9A     -1.471887
      10A     -1.365493    11A     -1.086844    12A     -1.022114
      13A     -0.968185    14A     -0.898244    15A     -0.799156
      16A     -0.762255    17A     -0.702994    18A     -0.686455
      19A     -0.674512    20A     -0.644702    21A     -0.607022
      22A     -0.592704    23A     -0.566464    24A     -0.547311
      25A     -0.542421    26A     -0.523460    27A     -0.515998
      28A     -0.473422    29A     -0.469750    30A     -0.464156
      31A     -0.455876    32A     -0.440892

  @DF-RHF Final Energy:  -384.07448038747179

   => Energetics <=

    Nuclear Repulsion Energy =            386.1866840709330972
    One-Electron Energy =               -1288.6510550062876064
    Two-Electron Energy =                 518.3898905478830557
    DFT Exchange-Correlation Energy =       0.0000000000000000
    Empirical Dispersion Energy =           0.0000000000000000
    PCM Polarization Energy =               0.0000000000000000
    EFP Energy =                            0.0000000000000000
    Total Energy =                       -384.0744803874714535
    Molecular point group: c1
  Basis Set: CC-PVTZ
  Basis Set:

  -Total Gradient:
     Atom            X                  Y                   Z
    ------   -----------------  -----------------  -----------------
       1       -0.000010272575    -0.000001075347     0.000007150745
       2        0.000005485840     0.000004444494    -0.000034150994
       3        0.000021505683     0.000025684514     0.000029092235
       4       -0.000008081305    -0.000005275869     0.000010946494
       5        0.001926200021    -0.002947702784    -0.005493227994
       6       -0.000008593955     0.000000377984     0.000001263395
       7        0.000028382080     0.000004897289     0.000007103206
       8        0.002734022312    -0.003803346508     0.004412702078
       9       -0.002026678174     0.003056536682     0.003972254708
      10       -0.000002282713    -0.000004250346     0.000004639980
      11       -0.000028000413    -0.000009826151    -0.000024518611
      12       -0.002619359528     0.003695159581    -0.002890086715
      13       -0.000000340863    -0.000006698073    -0.000009811358
      14       -0.000019928622    -0.000023445490    -0.000002379131
      15       -0.000002862901     0.000003189501     0.000010454683
      16        0.000011137283     0.000013870574     0.000000566549
      17       -0.000003391728    -0.000004306414    -0.000002849964
      18        0.000001094347     0.000000440427     0.000000089233
      19        0.000001307720     0.000001159602     0.000000548760
      20        0.000000657491     0.000000166331     0.000000212701

  **** Optimization is complete! (in 8 steps) ****
    Final optimized geometry and variables:
    Molecular point group: c1

    Geometry (in Angstrom), charge = 0, multiplicity = 1:

    O            1.884445869257     0.250182528280    -0.196065039480
    C            0.813648127555     0.666485116725     0.088775894907
    C           -0.467965176758    -0.128219935141     0.091351350925
    O            0.598576971308     1.920916099852     0.451737340977
    C           -0.265702509177    -1.584107739376    -0.320759360967
    H           -0.884061906600    -0.049157453443     1.089744753580
    H           -1.159610557141     0.391738162917    -0.559908639320
    C           -1.537404711689    -2.465442204620    -0.293165969165
    H            0.461406883266    -1.997228909908     0.366200554831
    H            0.183663980079    -1.604924128074    -1.304371699868
    C           -2.881957386191    -1.737147356933    -0.353070251681
    H           -1.508195018001    -3.121443137709    -1.155854235608
    H           -1.524129771681    -3.095712461469     0.588277504077
    H           -2.969791569106    -1.130726896269    -1.248098048679
    H           -3.690683835701    -2.458520396755    -0.370701775586
    H           -3.042229813824    -1.091935454932     0.502241592431
    C            1.715997290696     2.784879792340     0.493750620662
    H            2.450186339651     2.425013922062     1.199257759165
    H            1.338532423975     3.744813091875     0.806768901898
    H            2.173726692285     2.864268416755    -0.481159208044

  Mulliken Charges: (a.u.)
   Center  Symbol    Alpha    Beta     Spin     Total
       1     O     4.19667  4.19667  0.00000 -0.39333
       2     C     2.81222  2.81222  0.00000  0.37556
       3     C     3.09825  3.09825  0.00000 -0.19649
       4     O     4.14644  4.14644  0.00000 -0.29289
       5     C     3.09148  3.09148  0.00000 -0.18297
       6     H     0.43910  0.43910  0.00000  0.12179
       7     H     0.43782  0.43782  0.00000  0.12436
       8     C     3.08968  3.08968  0.00000 -0.17936
       9     H     0.44377  0.44377  0.00000  0.11246
      10     H     0.44353  0.44353  0.00000  0.11295
      11     C     3.15935  3.15935  0.00000 -0.31869
      12     H     0.44947  0.44947  0.00000  0.10106
      13     H     0.44984  0.44984  0.00000  0.10033
      14     H     0.45338  0.45338  0.00000  0.09325
      15     H     0.44328  0.44328  0.00000  0.11344
      16     H     0.45348  0.45348  0.00000  0.09304
      17     C     3.03831  3.03831  0.00000 -0.07662
      18     H     0.45434  0.45434  0.00000  0.09132
      19     H     0.44521  0.44521  0.00000  0.10959
      20     H     0.45439  0.45439  0.00000  0.09122

   Total alpha = 32.00000, Total beta = 32.00000, Total charge = -0.00000
