  ==> Input File <==

--------------------------------------------------------------------------
set {
	reference rhf
	basis 6-31G*
}

set_num_threads( 4 )
memory 2 gb

molecule MOL {
0 1

H	 2.813747	 -0.324572	 0.467108
O	 1.973635	 -0.772265	 0.490980
C	 1.050492	 0.053836	 0.000068
C	 -0.318135	 -0.576402	 0.000164
O	 1.318155	 1.146803	 -0.380425
C	 -1.454360	 0.441875	 -0.000474
H	 -0.374042	 -1.230163	 -0.866135
H	 -0.374274	 -1.229227	 0.867154
C	 -2.826123	 -0.230780	 0.000056
H	 -1.357605	 1.085198	 -0.868380
H	 -1.357504	 1.086451	 0.866496
H	 -2.959731	 -0.858053	 -0.876869
H	 -3.619374	 0.509403	 -0.000080
H	 -2.959371	 -0.857318	 0.877556

	symmetry c1
}
set optking {
	frozen_dihedral = ("
		2 3 4 7
	")
}

ee = optimize('scf')
oeprop('DIPOLE', 'QUADRUPOLE', 'MULLIKEN_CHARGES')
f=open( 'psi4out.xyz', 'w' )
f.write( "14  " )
f.write( str(ee) + "\n" )
f.write( MOL.save_string_xyz() )
f.close()
--------------------------------------------------------------------------

    Molecular point group: c1
  Charge       = 0
  Multiplicity = 1
  Basis Set: 6-31G*
  Basis Set:
  @DF-RHF Final Energy:  -305.88027844071621
    Total Energy =                       -305.8802784407159834
    Molecular point group: c1
  Basis Set: 6-31G*
  Basis Set:
  Basis Set: 6-31G*
  Basis Set:
  @DF-RHF Final Energy:  -305.88033609820809
    Total Energy =                       -305.8803360982080903
  Basis Set: 6-31G*
  Basis Set:
  Basis Set: 6-31G*
  Basis Set:
  @DF-RHF Final Energy:  -305.88007662714335
    Total Energy =                       -305.8800766271433531
  Basis Set: 6-31G*
  Basis Set:
  Basis Set: 6-31G*
  Basis Set:
  @DF-RHF Final Energy:  -305.88044945433450
    Total Energy =                       -305.8804494543342685
  Basis Set: 6-31G*
  Basis Set:
  Basis Set: 6-31G*
  Basis Set:
  @DF-RHF Final Energy:  -305.88045109171571
    Total Energy =                       -305.8804510917155994
  Basis Set: 6-31G*
  Basis Set:
  Charge       = 0
  Multiplicity = 1
  Basis Set: 6-31G*
  Basis Set:

    Orbital Energies (a.u.)
    -----------------------

    Doubly Occupied:

       1A    -20.613931     2A    -20.551396     3A    -11.381834
       4A    -11.241142     5A    -11.226617     6A    -11.217453
       7A     -1.475475     8A     -1.366075     9A     -1.083260
      10A     -0.979477    11A     -0.857085    12A     -0.793092
      13A     -0.700907    14A     -0.688816    15A     -0.664169
      16A     -0.617729    17A     -0.593811    18A     -0.572565
      19A     -0.546666    20A     -0.506232    21A     -0.491635
      22A     -0.483205    23A     -0.477775    24A     -0.443898

  @DF-RHF Final Energy:  -305.88045128597685

   => Energetics <=

    Nuclear Repulsion Energy =            239.9503483054069477
    One-Electron Energy =                -892.5131101031299750
    Two-Electron Energy =                 346.6823105117464365
    DFT Exchange-Correlation Energy =       0.0000000000000000
    Empirical Dispersion Energy =           0.0000000000000000
    PCM Polarization Energy =               0.0000000000000000
    EFP Energy =                            0.0000000000000000
    Total Energy =                       -305.8804512859766191
    Molecular point group: c1
  Basis Set: 6-31G*
  Basis Set:

  -Total Gradient:
     Atom            X                  Y                   Z
    ------   -----------------  -----------------  -----------------
       1        0.000000376683     0.000005272652     0.000009562878
       2       -0.000114940860     0.000261102686     0.000745719948
       3        0.000078268869    -0.000202204743    -0.001133712110
       4        0.000380890812    -0.000773610522     0.000844844951
       5       -0.000013421404    -0.000023260870     0.000015493020
       6       -0.000003142948     0.000016225101     0.000061947118
       7       -0.000332567736     0.000705868563    -0.000505025690
       8        0.000005392277     0.000011399528    -0.000008177301
       9        0.000002380929    -0.000005235571    -0.000025670661
      10       -0.000004100113    -0.000002491590     0.000002875604
      11        0.000000697234     0.000007974762    -0.000003923469
      12       -0.000007786751    -0.000011002258     0.000000123025
      13        0.000002886724     0.000001265286    -0.000004278805
      14        0.000005066276     0.000008696977     0.000000221490

  **** Optimization is complete! (in 6 steps) ****
    Final optimized geometry and variables:
    Molecular point group: c1

    Geometry (in Angstrom), charge = 0, multiplicity = 1:

    H            2.831605443962    -0.327294996727     0.379053170033
    O            1.992268786995    -0.772230516300     0.446929881237
    C            1.051216218207     0.048101558670    -0.016902488819
    C           -0.315868624048    -0.586681698179     0.007258466389
    O            1.303062957640     1.140830103442    -0.409694029458
    C           -1.450683518597     0.435657991009    -0.016316563378
    H           -0.372977574942    -1.231035097534    -0.867915346708
    H           -0.379949134546    -1.236926198236     0.872379285978
    C           -2.823924915381    -0.233151807423    -0.041430141315
    H           -1.332193659301     1.077414871388    -0.881340304309
    H           -1.371832188153     1.079326774355     0.854693022331
    H           -2.942065038068    -0.858604378043    -0.921877404791
    H           -3.614940522483     0.509295652243    -0.055897095423
    H           -2.975580990535    -0.860544543297     0.832354526497

  Mulliken Charges: (a.u.)
   Center  Symbol    Alpha    Beta     Spin     Total
       1     H     0.26797  0.26797  0.00000  0.46406
       2     O     4.35069  4.35069  0.00000 -0.70138
       3     C     2.62227  2.62227  0.00000  0.75547
       4     C     3.21009  3.21009  0.00000 -0.42019
       5     O     4.27948  4.27948  0.00000 -0.55896
       6     C     3.15457  3.15457  0.00000 -0.30914
       7     H     0.39836  0.39836  0.00000  0.20327
       8     H     0.39904  0.39904  0.00000  0.20192
       9     C     3.24265  3.24265  0.00000 -0.48530
      10     H     0.40500  0.40500  0.00000  0.19001
      11     H     0.41422  0.41422  0.00000  0.17156
      12     H     0.42052  0.42052  0.00000  0.15895
      13     H     0.41445  0.41445  0.00000  0.17109
      14     H     0.42068  0.42068  0.00000  0.15864

   Total alpha = 24.00000, Total beta = 24.00000, Total charge =  0.00000
