  ==> Input File <==

--------------------------------------------------------------------------
set {
	reference rhf
	basis cc-pvtz
}

set_num_threads( 4 )
memory 2 gb

molecule MOL {
0 1

H	 2.167074	 0.413440	 -0.896125
O	 2.063695	 -0.083403	 -0.105237
C	 0.742924	 0.005675	 0.350750
H	 0.731380	 0.039219	 1.440080
C	 -0.064076	 -1.193495	 -0.124425
C	 -0.047832	 1.190568	 -0.194462
H	 0.194729	 -1.376165	 -1.161308
H	 0.163013	 -2.094508	 0.429933
C	 -1.533112	 -0.752002	 0.006102
H	 0.148003	 1.266545	 -1.259275
H	 0.226235	 2.136493	 0.259722
C	 -1.506634	 0.799189	 0.067162
H	 -2.124360	 -1.110499	 -0.826089
H	 -1.983103	 -1.158030	 0.903403
H	 -2.183808	 1.252169	 -0.644677
H	 -1.813926	 1.138698	 1.049457

	symmetry c1
}
set optking {
	frozen_dihedral = ("
		1 2 3 6
	")
}

ee = optimize('scf')
oeprop('DIPOLE', 'QUADRUPOLE', 'MULLIKEN_CHARGES')
f=open( 'psi4out.xyz', 'w' )
f.write( "16  " )
f.write( str(ee) + "\n" )
f.write( MOL.save_string_xyz() )
f.close()
--------------------------------------------------------------------------

    Molecular point group: c1
  Charge       = 0
  Multiplicity = 1
  Basis Set: CC-PVTZ
  Basis Set:
  @DF-RHF Final Energy:  -270.11400984530354
    Total Energy =                       -270.1140098453035421
    Molecular point group: c1
  Basis Set: CC-PVTZ
  Basis Set:
  Basis Set: CC-PVTZ
  Basis Set:
  @DF-RHF Final Energy:  -270.11496757243106
    Total Energy =                       -270.1149675724312829
  Basis Set: CC-PVTZ
  Basis Set:
  Basis Set: CC-PVTZ
  Basis Set:
  @DF-RHF Final Energy:  -270.11515487682283
    Total Energy =                       -270.1151548768227713
  Basis Set: CC-PVTZ
  Basis Set:
  Basis Set: CC-PVTZ
  Basis Set:
  @DF-RHF Final Energy:  -270.11516305485395
    Total Energy =                       -270.1151630548537241
  Basis Set: CC-PVTZ
  Basis Set:
  @DF-RHF Final Energy:  -270.11517012197572
    Total Energy =                       -270.1151701219757797
  @DF-RHF Final Energy:  -270.11518157665989
    Total Energy =                       -270.1151815766598929
  Basis Set: CC-PVTZ
  Basis Set:
  @DF-RHF Final Energy:  -270.11519150233448
    Total Energy =                       -270.1151915023344827
  Basis Set: CC-PVTZ
  Basis Set:
  Basis Set: CC-PVTZ
  Basis Set:
  @DF-RHF Final Energy:  -270.11519416530280
    Total Energy =                       -270.1151941653031372
  Basis Set: CC-PVTZ
  Basis Set:
  Basis Set: CC-PVTZ
  Basis Set:
  @DF-RHF Final Energy:  -270.11519631057797
    Total Energy =                       -270.1151963105783125
  Basis Set: CC-PVTZ
  Basis Set:
  Charge       = 0
  Multiplicity = 1
  Basis Set: CC-PVTZ
  Basis Set:

    Orbital Energies (a.u.)
    -----------------------

    Doubly Occupied:

       1A    -20.543898     2A    -11.267557     3A    -11.218479
       4A    -11.217622     5A    -11.215337     6A    -11.207660
       7A     -1.364583     8A     -1.117038     9A     -0.969859
      10A     -0.949977    11A     -0.804224    12A     -0.782424
      13A     -0.683041    14A     -0.665940    15A     -0.609187
      16A     -0.597450    17A     -0.577840    18A     -0.541001
      19A     -0.505244    20A     -0.484863    21A     -0.473578
      22A     -0.459742    23A     -0.452768    24A     -0.417338

  @DF-RHF Final Energy:  -270.11519682831607

   => Energetics <=

    Nuclear Repulsion Energy =            255.5130583121055565
    One-Electron Energy =                -873.0032172726814679
    Two-Electron Energy =                 347.3749621322596113
    DFT Exchange-Correlation Energy =       0.0000000000000000
    Empirical Dispersion Energy =           0.0000000000000000
    PCM Polarization Energy =               0.0000000000000000
    EFP Energy =                            0.0000000000000000
    Total Energy =                       -270.1151968283162432
    Molecular point group: c1
  Basis Set: CC-PVTZ
  Basis Set:

  -Total Gradient:
     Atom            X                  Y                   Z
    ------   -----------------  -----------------  -----------------
       1        0.000294644775     0.001166577847     0.000882316535
       2       -0.000477886935    -0.001664770858    -0.001450698652
       3        0.000424359596     0.001012674710     0.001344437846
       4       -0.000002697501    -0.000008246229     0.000003751940
       5        0.000004676081     0.000013827161     0.000002657516
       6       -0.000245446249    -0.000498909035    -0.000781284574
       7       -0.000000432623    -0.000019609321     0.000002142713
       8        0.000000964997     0.000009448800     0.000016119801
       9        0.000001518695    -0.000002269836     0.000008701864
      10        0.000002513655    -0.000020567301    -0.000003911510
      11       -0.000000649869     0.000008942888    -0.000018774610
      12        0.000001010428     0.000006098266    -0.000009358151
      13        0.000019563368     0.000012153679    -0.000024230043
      14       -0.000027746662    -0.000012776661    -0.000017087890
      15       -0.000019587617     0.000014572570     0.000027576164
      16        0.000025195865    -0.000017146679     0.000017641050

  **** Optimization is complete! (in 10 steps) ****
    Final optimized geometry and variables:
    Molecular point group: c1

    Geometry (in Angstrom), charge = 0, multiplicity = 1:

    H            2.234530424547     0.479423127688    -0.801636812150
    O            2.092157667308    -0.057653154507    -0.044536004079
    C            0.745948624899    -0.010411957750     0.339870323459
    H            0.737428463095     0.004237669795     1.425488073502
    C           -0.079618562086    -1.195719360920    -0.151811895262
    C           -0.039569617714     1.186613779403    -0.184494009050
    H            0.132054346609    -1.344015915730    -1.206446582672
    H            0.165987471247    -2.117334383487     0.359463243456
    C           -1.535855744273    -0.752669628214     0.055135978048
    H            0.155773101675     1.289137072667    -1.250434822875
    H            0.239458108958     2.119339300999     0.289627039192
    C           -1.506535037263     0.800910470224     0.050601736919
    H           -2.187220039278    -1.148225800030    -0.712829779774
    H           -1.915595519696    -1.116550776884     1.001854606742
    H           -2.157804484546     1.221321905423    -0.704036472018
    H           -1.846175715109     1.185661754460     1.004328424651

  Mulliken Charges: (a.u.)
   Center  Symbol    Alpha    Beta     Spin     Total
       1     H     0.39257  0.39257  0.00000  0.21486
       2     O     4.20882  4.20882  0.00000 -0.41763
       3     C     2.92833  2.92833  0.00000  0.14334
       4     H     0.45021  0.45021  0.00000  0.09959
       5     C     3.09353  3.09353  0.00000 -0.18705
       6     C     3.11154  3.11154  0.00000 -0.22307
       7     H     0.46004  0.46004  0.00000  0.07991
       8     H     0.44401  0.44401  0.00000  0.11198
       9     C     3.11443  3.11443  0.00000 -0.22887
      10     H     0.46134  0.46134  0.00000  0.07732
      11     H     0.44139  0.44139  0.00000  0.11721
      12     C     3.11017  3.11017  0.00000 -0.22034
      13     H     0.44436  0.44436  0.00000  0.11128
      14     H     0.44805  0.44805  0.00000  0.10390
      15     H     0.44385  0.44385  0.00000  0.11230
      16     H     0.44737  0.44737  0.00000  0.10526

   Total alpha = 24.00000, Total beta = 24.00000, Total charge =  0.00000
