  ==> Input File <==

--------------------------------------------------------------------------
set {
	reference rhf
	basis 6-31G*
}

set_num_threads( 4 )
memory 2 gb

molecule MOL {
0 1

O	 -2.042549	 -1.228399	 -0.269030
C	 -1.653912	 -0.146171	 0.050137
C	 -0.332303	 0.024011	 0.778412
C	 -2.438579	 1.106236	 -0.272369
C	 -0.437700	 1.109646	 1.861076
H	 -0.020041	 -0.915456	 1.225933
H	 0.412317	 0.313931	 0.045329
C	 0.882486	 1.334939	 2.599577
H	 -1.208852	 0.838664	 2.580087
H	 -0.759966	 2.035020	 1.393134
C	 0.782917	 2.420289	 3.670702
H	 1.204137	 0.402297	 3.057993
H	 1.652712	 1.605108	 1.881018
H	 0.043562	 2.162427	 4.423639
H	 0.494384	 3.373195	 3.236925
H	 1.733563	 2.560432	 4.175340
H	 -3.277823	 0.863061	 -0.908988
H	 -1.806773	 1.843019	 -0.759671
H	 -2.802853	 1.554979	 0.648059

	symmetry c1
}
set optking {
	frozen_dihedral = ("
		5 3 2 4
	")
}

ee = optimize('scf')
oeprop('DIPOLE', 'QUADRUPOLE', 'MULLIKEN_CHARGES')
f=open( 'psi4out.xyz', 'w' )
f.write( "19  " )
f.write( str(ee) + "\n" )
f.write( MOL.save_string_xyz() )
f.close()
--------------------------------------------------------------------------

    Molecular point group: c1
  Charge       = 0
  Multiplicity = 1
  Basis Set: 6-31G*
  Basis Set:
  @DF-RHF Final Energy:  -309.06193869937999
    Total Energy =                       -309.0619386993801072
    Molecular point group: c1
  Basis Set: 6-31G*
  Basis Set:
  Basis Set: 6-31G*
  Basis Set:
  @DF-RHF Final Energy:  -309.06367075122779
    Total Energy =                       -309.0636707512277326
  Basis Set: 6-31G*
  Basis Set:
  Basis Set: 6-31G*
  Basis Set:
  @DF-RHF Final Energy:  -309.06408328826558
    Total Energy =                       -309.0640832882654649
  Basis Set: 6-31G*
  Basis Set:
  Basis Set: 6-31G*
  Basis Set:
  @DF-RHF Final Energy:  -309.06411643682014
    Total Energy =                       -309.0641164368203135
  Basis Set: 6-31G*
  Basis Set:
  @DF-RHF Final Energy:  -309.06417869171617
    Total Energy =                       -309.0641786917161653
  Basis Set: 6-31G*
  Basis Set:
  @DF-RHF Final Energy:  -309.06419029423472
    Total Energy =                       -309.0641902942346633
  Basis Set: 6-31G*
  Basis Set:
  Basis Set: 6-31G*
  Basis Set:
  @DF-RHF Final Energy:  -309.06417701833840
    Total Energy =                       -309.0641770183384551
  Basis Set: 6-31G*
  Basis Set:
  Basis Set: 6-31G*
  Basis Set:
  @DF-RHF Final Energy:  -309.06419212495211
    Total Energy =                       -309.0641921249522284
  Basis Set: 6-31G*
  Basis Set:
  Charge       = 0
  Multiplicity = 1
  Basis Set: 6-31G*
  Basis Set:

    Orbital Energies (a.u.)
    -----------------------

    Doubly Occupied:

       1A    -20.547158     2A    -11.325057     3A    -11.232609
       4A    -11.230541     5A    -11.227650     6A    -11.227054
       7A    -11.217292     8A     -1.392997     9A     -1.094643
      10A     -1.028849    11A     -0.982145    12A     -0.895160
      13A     -0.810321    14A     -0.732311    15A     -0.663567
      16A     -0.646816    17A     -0.626844    18A     -0.612793
      19A     -0.584106    20A     -0.574063    21A     -0.554270
      22A     -0.531688    23A     -0.516917    24A     -0.496246
      25A     -0.486080    26A     -0.479651    27A     -0.471020
      28A     -0.397116

  @DF-RHF Final Energy:  -309.06419197670465

   => Energetics <=

    Nuclear Repulsion Energy =            301.0219232961979401
    One-Electron Energy =               -1015.0023016898325068
    Two-Electron Energy =                 404.9161864169300884
    DFT Exchange-Correlation Energy =       0.0000000000000000
    Empirical Dispersion Energy =           0.0000000000000000
    PCM Polarization Energy =               0.0000000000000000
    EFP Energy =                            0.0000000000000000
    Total Energy =                       -309.0641919767044214
    Molecular point group: c1
  Basis Set: 6-31G*
  Basis Set:

  -Total Gradient:
     Atom            X                  Y                   Z
    ------   -----------------  -----------------  -----------------
       1        0.000008526340     0.000017628251     0.000015217281
       2        0.000846070043     0.000438910171    -0.001624972310
       3       -0.000592086114    -0.001041235447     0.001328663722
       4       -0.000504735238    -0.000082986118     0.000880173039
       5        0.000255773345     0.000701471258    -0.000658274473
       6        0.000014442139     0.000017164584     0.000036477974
       7       -0.000014948420     0.000001168265    -0.000007433510
       8       -0.000010359376    -0.000023567815     0.000025833995
       9       -0.000004767227    -0.000014645577    -0.000007526821
      10        0.000007633710    -0.000016330536     0.000006875597
      11        0.000007596401     0.000016550822    -0.000015806149
      12        0.000000126627    -0.000001878913     0.000015310761
      13       -0.000003513498    -0.000010909248     0.000000990626
      14        0.000007250287    -0.000005359912    -0.000002079769
      15       -0.000007636593     0.000002926647     0.000003654174
      16        0.000003450713     0.000007163272    -0.000004619888
      17       -0.000003001935     0.000001199839    -0.000000677049
      18       -0.000001614481    -0.000006171264     0.000002082580
      19       -0.000008206718    -0.000001098272     0.000006110222

  **** Optimization is complete! (in 9 steps) ****
    Final optimized geometry and variables:
    Molecular point group: c1

    Geometry (in Angstrom), charge = 0, multiplicity = 1:

    O           -1.230646066844    -1.932927369506    -1.479251367267
    C           -0.911832186255    -0.822880047095    -1.178452570681
    C            0.380189915075    -0.567484300034    -0.419716498522
    C           -1.772566343451     0.363558545529    -1.559616405080
    C            0.319017214283     0.511966867894     0.666452052152
    H            0.693537695396    -1.517980875129    -0.004610882150
    H            1.127599547496    -0.285142009871    -1.161399732545
    C            1.643148328765     0.649870734642     1.420556560787
    H           -0.471455479938     0.272986445640     1.375432480993
    H            0.059906500088     1.471395996165     0.226882999771
    C            1.600084797041     1.727540756255     2.502914276649
    H            1.901321545013    -0.305502775149     1.870885753329
    H            2.437012947028     0.878934345610     0.712944128292
    H            0.837919116973     1.507884534754     3.244994982041
    H            1.376958943322     2.702261309827     2.078365777672
    H            2.551909998728     1.802018272071     3.018986831551
    H           -2.542125424222     0.038761471508    -2.245864557604
    H           -1.179456761987     1.149630473837    -2.016937128174
    H           -2.241169791195     0.784380506203    -0.675102843933

  Mulliken Charges: (a.u.)
   Center  Symbol    Alpha    Beta     Spin     Total
       1     O     4.26257  4.26257  0.00000 -0.52514
       2     C     2.73108  2.73108  0.00000  0.53785
       3     C     3.20735  3.20735  0.00000 -0.41469
       4     C     3.29182  3.29182  0.00000 -0.58364
       5     C     3.16272  3.16272  0.00000 -0.32544
       6     H     0.39859  0.39859  0.00000  0.20282
       7     H     0.40824  0.40824  0.00000  0.18352
       8     C     3.15200  3.15200  0.00000 -0.30399
       9     H     0.41732  0.41732  0.00000  0.16535
      10     H     0.41910  0.41910  0.00000  0.16180
      11     C     3.24014  3.24014  0.00000 -0.48029
      12     H     0.41858  0.41858  0.00000  0.16284
      13     H     0.42110  0.42110  0.00000  0.15779
      14     H     0.42005  0.42005  0.00000  0.15990
      15     H     0.42115  0.42115  0.00000  0.15770
      16     H     0.41662  0.41662  0.00000  0.16676
      17     H     0.39582  0.39582  0.00000  0.20836
      18     H     0.41086  0.41086  0.00000  0.17827
      19     H     0.40488  0.40488  0.00000  0.19025

   Total alpha = 28.00000, Total beta = 28.00000, Total charge =  0.00000
