  ==> Input File <==

--------------------------------------------------------------------------
set {
	reference rhf
	basis cc-pvtz
}

set_num_threads( 4 )
memory 2 gb

molecule MOL {
0 1

H	 2.785638	 -0.491974	 -0.637922
O	 1.974816	 -0.905812	 -0.382891
C	 1.011689	 0.011154	 -0.396291
C	 -0.318151	 -0.570512	 0.000144
O	 1.218980	 1.137345	 -0.690729
C	 -1.454884	 0.441630	 -0.000560
H	 -0.522595	 -1.393083	 -0.677698
H	 -0.191535	 -1.020089	 0.979812
C	 -2.822577	 -0.232186	 0.000063
H	 -1.359760	 1.084704	 -0.867077
H	 -1.359641	 1.085996	 0.864983
H	 -2.954352	 -0.858985	 -0.875745
H	 -3.615886	 0.505352	 0.000019
H	 -2.953878	 -0.858359	 0.876394

	symmetry c1
}
set optking {
	frozen_dihedral = ("
		7 4 6 10
	")
}

ee = optimize('scf')
oeprop('DIPOLE', 'QUADRUPOLE', 'MULLIKEN_CHARGES')
f=open( 'psi4out.xyz', 'w' )
f.write( "14  " )
f.write( str(ee) + "\n" )
f.write( MOL.save_string_xyz() )
f.close()
--------------------------------------------------------------------------

    Molecular point group: c1
  Charge       = 0
  Multiplicity = 1
  Basis Set: CC-PVTZ
  Basis Set:
  @DF-RHF Final Energy:  -306.00011610912816
    Total Energy =                       -306.0001161091282142
    Molecular point group: c1
  Basis Set: CC-PVTZ
  Basis Set:
  Basis Set: CC-PVTZ
  Basis Set:
  @DF-RHF Final Energy:  -306.00022635474681
    Total Energy =                       -306.0002263547468146
  Basis Set: CC-PVTZ
  Basis Set:
  Basis Set: CC-PVTZ
  Basis Set:
  @DF-RHF Final Energy:  -306.00016882810746
    Total Energy =                       -306.0001688281074053
  Basis Set: CC-PVTZ
  Basis Set:
  Basis Set: CC-PVTZ
  Basis Set:
  @DF-RHF Final Energy:  -306.00024633364575
    Total Energy =                       -306.0002463336460323
  Basis Set: CC-PVTZ
  Basis Set:
  Charge       = 0
  Multiplicity = 1
  Basis Set: CC-PVTZ
  Basis Set:

    Orbital Energies (a.u.)
    -----------------------

    Doubly Occupied:

       1A    -20.604596     2A    -20.541318     3A    -11.374420
       4A    -11.239728     5A    -11.223548     6A    -11.215591
       7A     -1.478306     8A     -1.369842     9A     -1.083954
      10A     -0.981237    11A     -0.859651    12A     -0.793231
      13A     -0.704498    14A     -0.693183    15A     -0.668392
      16A     -0.617273    17A     -0.597385    18A     -0.574583
      19A     -0.546467    20A     -0.507244    21A     -0.492472
      22A     -0.484884    23A     -0.480401    24A     -0.448520

  @DF-RHF Final Energy:  -306.00024679743029

   => Energetics <=

    Nuclear Repulsion Energy =            240.3989226796008438
    One-Electron Energy =                -893.6368931055253597
    Two-Electron Energy =                 347.2377236284941660
    DFT Exchange-Correlation Energy =       0.0000000000000000
    Empirical Dispersion Energy =           0.0000000000000000
    PCM Polarization Energy =               0.0000000000000000
    EFP Energy =                            0.0000000000000000
    Total Energy =                       -306.0002467974302931
    Molecular point group: c1
  Basis Set: CC-PVTZ
  Basis Set:

  -Total Gradient:
     Atom            X                  Y                   Z
    ------   -----------------  -----------------  -----------------
       1        0.000032757188    -0.000014621800    -0.000009706320
       2        0.000015181046     0.000041519683     0.000017651739
       3       -0.000063172556     0.000033545794    -0.000054489252
       4        0.001875340387     0.002153958469    -0.002162521744
       5        0.000012628202    -0.000063534266     0.000011492529
       6       -0.002189529855    -0.002512457832    -0.001252319835
       7       -0.001214171018    -0.001355673999     0.002027724055
       8       -0.000003390760    -0.000013654683     0.000000475528
       9       -0.000012558313    -0.000012174452    -0.000020118034
      10        0.001517913088     0.001727504748     0.001431983762
      11        0.000007421882    -0.000003170141     0.000015871008
      12       -0.000003593426     0.000002153920    -0.000000288970
      13        0.000004663251     0.000006875374     0.000002931889
      14        0.000020510881     0.000009729184    -0.000008686355

  **** Optimization is complete! (in 5 steps) ****
    Final optimized geometry and variables:
    Molecular point group: c1

    Geometry (in Angstrom), charge = 0, multiplicity = 1:

    H            2.818371935381    -0.463332238302    -0.349554477497
    O            2.001814896876    -0.878104598579    -0.115092316034
    C            1.040584519862     0.040533153973    -0.140690168798
    C           -0.296630184541    -0.542593617559     0.224608186231
    O            1.256167217453     1.168991002178    -0.419919993320
    C           -1.439156810494     0.465830321311     0.224121061801
    H           -0.495602288167    -1.368542700619    -0.450663286751
    H           -0.184196073231    -1.002141519223     1.201691942226
    C           -2.806253784176    -0.205745714218     0.265065677192
    H           -1.350921562279     1.108856645001    -0.641983231343
    H           -1.328655258228     1.121173889835     1.081175329810
    H           -2.966227965860    -0.825778261850    -0.610676972117
    H           -3.598128121269     0.532643856790     0.296522742022
    H           -2.909941256597    -0.838292918946     1.140661399381

  Mulliken Charges: (a.u.)
   Center  Symbol    Alpha    Beta     Spin     Total
       1     H     0.38234  0.38234  0.00000  0.23532
       2     O     4.16000  4.16000  0.00000 -0.32001
       3     C     2.80415  2.80415  0.00000  0.39170
       4     C     3.10660  3.10660  0.00000 -0.21319
       5     O     4.19069  4.19069  0.00000 -0.38138
       6     C     3.08093  3.08093  0.00000 -0.16186
       7     H     0.43980  0.43980  0.00000  0.12041
       8     H     0.43772  0.43772  0.00000  0.12456
       9     C     3.14970  3.14970  0.00000 -0.29940
      10     H     0.44242  0.44242  0.00000  0.11517
      11     H     0.44972  0.44972  0.00000  0.10056
      12     H     0.45500  0.45500  0.00000  0.09001
      13     H     0.44537  0.44537  0.00000  0.10925
      14     H     0.45556  0.45556  0.00000  0.08889

   Total alpha = 24.00000, Total beta = 24.00000, Total charge = -0.00000
