  ==> Input File <==

--------------------------------------------------------------------------
set {
	reference rhf
	basis cc-pvtz
}

set_num_threads( 4 )
memory 2 gb

molecule MOL {
0 1

H	 -3.059842	 0.231259	 0.401010
O	 -2.346257	 -0.289210	 0.080372
C	 -1.183935	 0.486039	 -0.009831
C	 0.062853	 -0.375310	 0.027457
H	 -1.178881	 1.094526	 -0.908634
H	 -1.184406	 1.155156	 0.838676
O	 1.172093	 0.457955	 -0.054438
H	 0.052476	 -1.081302	 -0.804627
H	 0.076323	 -0.955658	 0.947560
C	 2.395478	 -0.199028	 -0.000366
H	 2.505946	 -0.901710	 -0.823354
H	 3.174616	 0.545641	 -0.071768
H	 2.513730	 -0.742241	 0.934223

	symmetry c1
}
set optking {
	frozen_dihedral = ("
		1 2 3 5
	")
}

ee = optimize('scf')
oeprop('DIPOLE', 'QUADRUPOLE', 'MULLIKEN_CHARGES')
f=open( 'psi4out.xyz', 'w' )
f.write( "13  " )
f.write( str(ee) + "\n" )
f.write( MOL.save_string_xyz() )
f.close()
--------------------------------------------------------------------------

    Molecular point group: c1
  Charge       = 0
  Multiplicity = 1
  Basis Set: CC-PVTZ
  Basis Set:
  @DF-RHF Final Energy:  -268.06094084374746
    Total Energy =                       -268.0609408437475167
    Molecular point group: c1
  Basis Set: CC-PVTZ
  Basis Set:
  Basis Set: CC-PVTZ
  Basis Set:
  @DF-RHF Final Energy:  -268.06224898326161
    Total Energy =                       -268.0622489832618385
  Basis Set: CC-PVTZ
  Basis Set:
  Basis Set: CC-PVTZ
  Basis Set:
  @DF-RHF Final Energy:  -268.06250847511706
    Total Energy =                       -268.0625084751172267
  Basis Set: CC-PVTZ
  Basis Set:
  Basis Set: CC-PVTZ
  Basis Set:
  @DF-RHF Final Energy:  -268.06251491469362
    Total Energy =                       -268.0625149146937929
  Basis Set: CC-PVTZ
  Basis Set:
  Charge       = 0
  Multiplicity = 1
  Basis Set: CC-PVTZ
  Basis Set:

    Orbital Energies (a.u.)
    -----------------------

    Doubly Occupied:

       1A    -20.552487     2A    -20.551834     3A    -11.267450
       4A    -11.265004     5A    -11.264739     6A     -1.388682
       7A     -1.368155     8A     -1.019599     9A     -0.911827
      10A     -0.831952    11A     -0.712894    12A     -0.685357
      13A     -0.643917    14A     -0.637338    15A     -0.619002
      16A     -0.555055    17A     -0.539910    18A     -0.496967
      19A     -0.472250    20A     -0.444279    21A     -0.421055

  @DF-RHF Final Energy:  -268.06251575964569

   => Energetics <=

    Nuclear Repulsion Energy =            190.6955456561368578
    One-Electron Energy =                -744.2166142305609355
    Two-Electron Energy =                 285.4585528147784430
    DFT Exchange-Correlation Energy =       0.0000000000000000
    Empirical Dispersion Energy =           0.0000000000000000
    PCM Polarization Energy =               0.0000000000000000
    EFP Energy =                            0.0000000000000000
    Total Energy =                       -268.0625157596456916
    Molecular point group: c1
  Basis Set: CC-PVTZ
  Basis Set:

  -Total Gradient:
     Atom            X                  Y                   Z
    ------   -----------------  -----------------  -----------------
       1        0.000204556295    -0.000230875114     0.000986709491
       2       -0.000099523169     0.000142634729    -0.001341297226
       3       -0.000594343849     0.000730083669     0.000778783353
       4       -0.000005176998    -0.000007312593    -0.000003278515
       5        0.000476946746    -0.000665404929    -0.000402814364
       6        0.000010986181    -0.000006886078    -0.000004622921
       7        0.000028680684     0.000017737255    -0.000013452264
       8        0.000003450726     0.000004155285    -0.000003172076
       9       -0.000026115642     0.000006988677     0.000003385083
      10        0.000004262759     0.000010506140     0.000001724964
      11       -0.000005274768     0.000001476543     0.000001434399
      12        0.000005674997    -0.000001855908    -0.000001627803
      13       -0.000004123956    -0.000001247677    -0.000001772119

  **** Optimization is complete! (in 5 steps) ****
    Final optimized geometry and variables:
    Molecular point group: c1

    Geometry (in Angstrom), charge = 0, multiplicity = 1:

    H           -3.058262333789     0.140769373795     0.303296837729
    O           -2.297614619835    -0.339679861638     0.036315287159
    C           -1.179238924006     0.503992668451    -0.006196183726
    C            0.053962237781    -0.369623946773     0.037205479650
    H           -1.165820847601     1.089805507263    -0.919869228557
    H           -1.163974023519     1.188141623700     0.835870842262
    O            1.171536123093     0.453702974339    -0.053180087200
    H            0.024859437371    -1.078087944393    -0.788016720051
    H            0.065065585522    -0.940816886592     0.962976950069
    C            2.385928559193    -0.220910533081    -0.034110981466
    H            2.469667970824    -0.912133889948    -0.869600068577
    H            3.174306210853     0.513750809606    -0.109503767949
    H            2.515475037434    -0.780619614177     0.889433008586

  Mulliken Charges: (a.u.)
   Center  Symbol    Alpha    Beta     Spin     Total
       1     H     0.39270  0.39270  0.00000  0.21459
       2     O     4.20015  4.20015  0.00000 -0.40030
       3     C     2.96520  2.96520  0.00000  0.06961
       4     C     2.96378  2.96378  0.00000  0.07243
       5     H     0.46996  0.46996  0.00000  0.06009
       6     H     0.47072  0.47072  0.00000  0.05856
       7     O     4.17641  4.17641  0.00000 -0.35282
       8     H     0.47022  0.47022  0.00000  0.05955
       9     H     0.47158  0.47158  0.00000  0.05683
      10     C     3.03111  3.03111  0.00000 -0.06223
      11     H     0.47038  0.47038  0.00000  0.05924
      12     H     0.44703  0.44703  0.00000  0.10595
      13     H     0.47075  0.47075  0.00000  0.05849

   Total alpha = 21.00000, Total beta = 21.00000, Total charge =  0.00000
