                              Psi4 1.0.54 Driver

  ==> Input File <==

--------------------------------------------------------------------------
set {
	reference rhf
	basis cc-pvtz
}

set_num_threads( 4 )
memory 2 gb

molecule MOL {
0 1

O	 0.074770	 1.259872	 0.000487
C	 0.029490	 0.077183	 0.000078
C	 -1.232113	 -0.748027	 0.000015
O	 1.106773	 -0.690081	 -0.000204
C	 -2.501422	 0.088592	 -0.000052
H	 -1.188777	 -1.400384	 -0.865133
H	 -1.188857	 -1.400312	 0.865225
H	 -2.548170	 0.725504	 -0.873205
H	 -3.371613	 -0.556398	 -0.000040
H	 -2.548215	 0.725571	 0.873047
C	 1.999414	 -0.554904	 -1.087660
H	 1.504626	 -0.789590	 -2.018435
H	 2.799444	 -1.253742	 -0.904897
H	 2.387841	 0.451441	 -1.139036

	symmetry c1
}
set optking {
	frozen_dihedral = ("
		11 4 2 3
	")
}

ee,wfn = optimize('scf', return_wfn=True)
oeprop( wfn, 'DIPOLE', 'QUADRUPOLE', 'MULLIKEN_CHARGES')
f=open( 'psi4out.xyz', 'w' )
f.write( "14  " )
f.write( str(ee) + "\n" )
f.write( MOL.save_string_xyz() )
f.close()
--------------------------------------------------------------------------

    Molecular point group: c1
  Charge       = 0
  Multiplicity = 1
  Basis Set: CC-PVTZ
  Basis Set:
  @DF-RHF Final Energy:  -305.97316322986592
    Total Energy =                       -305.9731632298659179
    Molecular point group: c1
  Basis Set: CC-PVTZ
  Basis Set:
  Basis Set: CC-PVTZ
  Basis Set:
  @DF-RHF Final Energy:  -305.96319862635198
    Total Energy =                       -305.9631986263524368
  Basis Set: CC-PVTZ
  Basis Set:
  Basis Set: CC-PVTZ
  Basis Set:
  @DF-RHF Final Energy:  -305.97295534791851
    Total Energy =                       -305.9729553479182300
  Basis Set: CC-PVTZ
  Basis Set:
  Basis Set: CC-PVTZ
  Basis Set:
  @DF-RHF Final Energy:  -305.97368872377024
    Total Energy =                       -305.9736887237700103
  Basis Set: CC-PVTZ
  Basis Set:
  Basis Set: CC-PVTZ
  Basis Set:
  @DF-RHF Final Energy:  -305.97397625080561
    Total Energy =                       -305.9739762508055492
  Basis Set: CC-PVTZ
  Basis Set:
  Basis Set: CC-PVTZ
  Basis Set:
  @DF-RHF Final Energy:  -305.97401375284767
    Total Energy =                       -305.9740137528479522
  Basis Set: CC-PVTZ
  Basis Set:
  Basis Set: CC-PVTZ
  Basis Set:
  @DF-RHF Final Energy:  -305.97401633213508
    Total Energy =                       -305.9740163321351361
  Basis Set: CC-PVTZ
  Basis Set:
  Charge       = 0
  Multiplicity = 1
  Basis Set: CC-PVTZ
  Basis Set:

    Orbital Energies (a.u.)
    -----------------------

    Doubly Occupied:

       1A    -20.582562     2A    -20.543228     3A    -11.368029
       4A    -11.284883     5A    -11.240227     6A    -11.216790
       7A     -1.464993     8A     -1.368797     9A     -1.064775
      10A     -0.977265    11A     -0.887334    12A     -0.767646
      13A     -0.702701    14A     -0.679770    15A     -0.675195
      16A     -0.621168    17A     -0.613039    18A     -0.556364
      19A     -0.542251    20A     -0.523621    21A     -0.511203
      22A     -0.498109    23A     -0.458746    24A     -0.440154

  @DF-RHF Final Energy:  -305.97401661617471

   => Energetics <=

    Nuclear Repulsion Energy =            247.0892752589739700
    One-Electron Energy =                -906.9488850021991766
    Two-Electron Energy =                 353.8855931270505835
    DFT Exchange-Correlation Energy =       0.0000000000000000
    Empirical Dispersion Energy =           0.0000000000000000
    PCM Polarization Energy =               0.0000000000000000
    EFP Energy =                            0.0000000000000000
    Total Energy =                       -305.9740166161745947
    Molecular point group: c1
  Basis Set: CC-PVTZ
  Basis Set:

  -Total Gradient:
     Atom            X                  Y                   Z
    ------   -----------------  -----------------  -----------------
       1        0.000065308403    -0.000012504642     0.000001278625
       2       -0.002364924460    -0.000537798378     0.007442363774
       3        0.000742190208    -0.001593521965    -0.006002385984
       4        0.004096831307     0.008146783444     0.000878807240
       5        0.000012610901    -0.000010483089     0.000000929162
       6       -0.000003508130    -0.000006814950     0.000001188408
       7       -0.000002697767    -0.000003164701     0.000003451553
       8        0.000001396715     0.000002417723    -0.000005820632
       9        0.000006213622     0.000001222171     0.000000982044
      10        0.000000284357     0.000001236416     0.000002791401
      11       -0.002567712914    -0.005993829699    -0.002332286726
      12       -0.000003614202     0.000002678239     0.000003310071
      13        0.000019644516    -0.000002650516     0.000000929347
      14       -0.000002022555     0.000006429942     0.000004461716

  **** Optimization is complete! (in 8 steps) ****
    Final optimized geometry and variables:
    Molecular point group: c1

    Geometry (in Angstrom), charge = 0, multiplicity = 1:

    O           -0.000241757279     1.336430846359    -0.223365080521
    C            0.051337431565     0.216006120311     0.138709641729
    C           -1.126400067495    -0.716250578637     0.241018485900
    O            1.209627114956    -0.393757028305     0.436780356364
    C           -2.471942439379    -0.034135640474     0.056680074409
    H           -0.963340416442    -1.478467323955    -0.515854999892
    H           -1.064625809244    -1.231846404705     1.192552884071
    H           -2.530971394591     0.456771105034    -0.905088033307
    H           -3.271705808694    -0.761734559313     0.120985549445
    H           -2.633664763984     0.716879201306     0.819039624158
    C            2.195744956730    -0.418840714637    -0.573756990177
    H            1.847072494191    -0.992793542152    -1.424514355772
    H            3.060635672728    -0.901444458669    -0.148545021440
    H            2.451999509396     0.581555331736    -0.890242456254

  Mulliken Charges: (a.u.)
   Center  Symbol    Alpha    Beta     Spin     Total
       1     O     4.17866  4.17866  0.00000 -0.35733
       2     C     2.79497  2.79497  0.00000  0.41005
       3     C     3.09664  3.09664  0.00000 -0.19328
       4     O     4.16579  4.16579  0.00000 -0.33159
       5     C     3.13977  3.13977  0.00000 -0.27955
       6     H     0.44627  0.44627  0.00000  0.10746
       7     H     0.43848  0.43848  0.00000  0.12303
       8     H     0.44700  0.44700  0.00000  0.10601
       9     H     0.45042  0.45042  0.00000  0.09917
      10     H     0.44867  0.44867  0.00000  0.10266
      11     C     3.03493  3.03493  0.00000 -0.06986
      12     H     0.46629  0.46629  0.00000  0.06742
      13     H     0.44499  0.44499  0.00000  0.11002
      14     H     0.44711  0.44711  0.00000  0.10578

   Total alpha = 24.00000, Total beta = 24.00000, Total charge = -0.00000

*** Psi4 exiting successfully. Buy a developer a beer!
