                              Psi4 1.0.54 Driver

  ==> Input File <==

--------------------------------------------------------------------------
set {
	reference rhf
	basis cc-pvtz
}

set_num_threads( 4 )
memory 2 gb

molecule MOL {
0 1

H	 -3.268214	 -0.875720	 0.463107
C	 -2.806015	 0.000007	 0.024886
N	 -1.391133	 0.000016	 0.301321
H	 -3.029448	 0.000055	 -1.045738
H	 -3.268126	 0.875758	 0.463150
C	 -1.047474	 -0.860171	 1.412875
C	 -0.869769	 1.334599	 0.502814
H	 -1.525337	 -0.525845	 2.338468
H	 -1.403869	 -1.861942	 1.204256
C	 0.455349	 -0.896711	 1.618304
H	 -1.096424	 1.935098	 -0.370180
H	 -1.335514	 1.818539	 1.366371
C	 0.633054	 1.298059	 0.708242
H	 0.682004	 -1.497210	 2.491298
H	 0.921095	 -1.380651	 0.754746
N	 0.976713	 0.437872	 1.819797
H	 0.989449	 2.299830	 0.916862
H	 1.110917	 0.963733	 -0.217351
C	 2.391595	 0.437881	 2.096232
H	 2.597366	 -0.166941	 2.970538
H	 2.727948	 1.446475	 2.301575
H	 2.986336	 0.045686	 1.266397

	symmetry c1
}
set optking {
	frozen_dihedral = ("
		6 3 2 4
	")
}

ee,wfn = optimize('scf', return_wfn=True)
oeprop( wfn, 'DIPOLE', 'QUADRUPOLE', 'MULLIKEN_CHARGES')
f=open( 'psi4out.xyz', 'w' )
f.write( "22  " )
f.write( str(ee) + "\n" )
f.write( MOL.save_string_xyz() )
f.close()
--------------------------------------------------------------------------

    Molecular point group: c1
  Charge       = 0
  Multiplicity = 1
  Basis Set: CC-PVTZ
  Basis Set:
  @DF-RHF Final Energy:  -344.34584045977357
    Total Energy =                       -344.3458404597740810
    Molecular point group: c1
  Basis Set: CC-PVTZ
  Basis Set:
  Basis Set: CC-PVTZ
  Basis Set:
  @DF-RHF Final Energy:  -344.34678683116766
    Total Energy =                       -344.3467868311678330
  Basis Set: CC-PVTZ
  Basis Set:
  Basis Set: CC-PVTZ
  Basis Set:
  @DF-RHF Final Energy:  -344.34691290279778
    Total Energy =                       -344.3469129027979534
  Basis Set: CC-PVTZ
  Basis Set:
  Basis Set: CC-PVTZ
  Basis Set:
  @DF-RHF Final Energy:  -344.34692119338018
    Total Energy =                       -344.3469211933804672
  Basis Set: CC-PVTZ
  Basis Set:
  Charge       = 0
  Multiplicity = 1
  Basis Set: CC-PVTZ
  Basis Set:

    Orbital Energies (a.u.)
    -----------------------

    Doubly Occupied:

       1A    -15.537371     2A    -15.534194     3A    -11.237523
       4A    -11.237314     5A    -11.236550     6A    -11.236536
       7A    -11.234064     8A    -11.234030     9A     -1.255827
      10A     -1.204295    11A     -1.025998    12A     -0.992328
      13A     -0.912679    14A     -0.868301    15A     -0.836338
      16A     -0.753898    17A     -0.666291    18A     -0.637500
      19A     -0.631642    20A     -0.626061    21A     -0.621979
      22A     -0.581209    23A     -0.551062    24A     -0.548829
      25A     -0.542971    26A     -0.519408    27A     -0.496578
      28A     -0.488971    29A     -0.467090    30A     -0.457216
      31A     -0.351381    32A     -0.341781

  @DF-RHF Final Energy:  -344.34692191853406

   => Energetics <=

    Nuclear Repulsion Energy =            421.5509686588721365
    One-Electron Energy =               -1302.0613428977128478
    Two-Electron Energy =                 536.1634523203066465
    DFT Exchange-Correlation Energy =       0.0000000000000000
    Empirical Dispersion Energy =           0.0000000000000000
    PCM Polarization Energy =               0.0000000000000000
    EFP Energy =                            0.0000000000000000
    Total Energy =                       -344.3469219185341217
    Molecular point group: c1
  Basis Set: CC-PVTZ
  Basis Set:

  -Total Gradient:
     Atom            X                  Y                   Z
    ------   -----------------  -----------------  -----------------
       1       -0.000009879934    -0.000015804289     0.000005701673
       2        0.000046229581     0.004778651390    -0.000891991731
       3       -0.000681806343     0.002577643206     0.003191070347
       4        0.000118014804    -0.004622320548    -0.000028399239
       5        0.000022148692    -0.000030717908     0.000005038451
       6        0.000515103108    -0.002699950851    -0.002238021000
       7       -0.000001237416     0.000014572135    -0.000027746476
       8        0.000000848953     0.000002860764    -0.000017494218
       9        0.000004098708     0.000003561830     0.000000283157
      10        0.000006795667    -0.000000063648    -0.000005678308
      11       -0.000003208690     0.000002605637     0.000001178385
      12        0.000001647281    -0.000011821090    -0.000002425350
      13       -0.000011517940     0.000014462492     0.000004541650
      14        0.000004658576    -0.000000178112     0.000001037875
      15       -0.000003698699    -0.000003843505    -0.000001785420
      16       -0.000018252238    -0.000009147649    -0.000008962045
      17        0.000007041127     0.000001295879     0.000000325556
      18       -0.000008404546     0.000003350567    -0.000001511918
      19        0.000004272677    -0.000003427768     0.000016210769
      20        0.000007255342     0.000000642287     0.000000202291
      21        0.000001338074    -0.000002563026    -0.000000707900
      22       -0.000001446785     0.000000192206    -0.000000866549

  **** Optimization is complete! (in 5 steps) ****
    Final optimized geometry and variables:
    Molecular point group: c1

    Geometry (in Angstrom), charge = 0, multiplicity = 1:

    H           -3.068983404992    -1.174284800955    -0.622250417568
    C           -2.627457486240    -0.257286686061    -0.992152263868
    N           -1.214860666393    -0.231301871135    -0.683540138937
    H           -2.787985217184    -0.250522360194    -2.064734382699
    H           -3.175525447175     0.570654087095    -0.543401707665
    C           -0.825214436778    -1.078501600209     0.420126765059
    C           -0.681963564561     1.104486828137    -0.561518944150
    H           -1.265957390463    -0.747137071914     1.365628084844
    H           -1.175355138070    -2.085498099733     0.230502826977
    C            0.685482855306    -1.099058490200     0.565023855929
    H           -0.937173012703     1.667076046696    -1.452418176818
    H           -1.116350320124     1.630619904157     0.294044759553
    C            0.826959993707     1.071318751801    -0.406725372808
    H            0.952023285492    -1.680002120950     1.440077756197
    H            1.119134458868    -1.597574474302    -0.307182614259
    N            1.206360088001     0.242334834970     0.716821654622
    H            1.191536228374     2.077951654564    -0.239233977427
    H            1.273434040766     0.708992547239    -1.337595200260
    C            2.628797068840     0.254178791685     0.950644780448
    H            2.863094814599    -0.326240646894     1.834312338277
    H            2.967359304217     1.268984160082     1.118565507361
    H            3.200219992241    -0.158418867409     0.114182195510

  Mulliken Charges: (a.u.)
   Center  Symbol    Alpha    Beta     Spin     Total
       1     H     0.45688  0.45688  0.00000  0.08625
       2     C     3.09535  3.09535  0.00000 -0.19071
       3     N     3.61433  3.61433  0.00000 -0.22865
       4     H     0.45023  0.45023  0.00000  0.09954
       5     H     0.46546  0.46546  0.00000  0.06908
       6     C     3.03346  3.03346  0.00000 -0.06692
       7     C     3.03462  3.03462  0.00000 -0.06924
       8     H     0.46969  0.46969  0.00000  0.06062
       9     H     0.45402  0.45402  0.00000  0.09196
      10     C     3.03635  3.03635  0.00000 -0.07271
      11     H     0.45387  0.45387  0.00000  0.09227
      12     H     0.46841  0.46841  0.00000  0.06317
      13     C     3.03654  3.03654  0.00000 -0.07308
      14     H     0.45404  0.45404  0.00000  0.09192
      15     H     0.46869  0.46869  0.00000  0.06262
      16     N     3.61311  3.61311  0.00000 -0.22622
      17     H     0.45403  0.45403  0.00000  0.09195
      18     H     0.46851  0.46851  0.00000  0.06298
      19     C     3.09830  3.09830  0.00000 -0.19660
      20     H     0.45196  0.45196  0.00000  0.09608
      21     H     0.45195  0.45195  0.00000  0.09611
      22     H     0.47021  0.47021  0.00000  0.05957

   Total alpha = 32.00000, Total beta = 32.00000, Total charge = -0.00000

*** Psi4 exiting successfully. Buy a developer a beer!
