  ==> Input File <==

--------------------------------------------------------------------------
set {
	reference rhf
	basis 6-31G*
}

set_num_threads( 4 )
memory 2 gb

molecule MOL {
0 1

H	 -3.261111	 -0.295142	 1.469456
C	 -3.306842	 -0.277400	 0.373456
C	 -2.660244	 0.921717	 -0.272021
O	 -3.838538	 -1.161155	 -0.216482
C	 -3.360192	 2.237309	 0.096145
H	 -1.612658	 0.936332	 0.005571
H	 -2.718033	 0.774782	 -1.349855
C	 -3.219634	 2.610669	 1.574030
H	 -2.944989	 3.031198	 -0.517558
H	 -4.414739	 2.171454	 -0.167198
C	 -3.912061	 3.929320	 1.924054
H	 -2.163106	 2.677320	 1.825334
H	 -3.627048	 1.815770	 2.195873
C	 -3.755847	 4.307732	 3.399301
H	 -3.508645	 4.717160	 1.292947
H	 -4.971579	 3.855366	 1.682524
C	 -4.502748	 5.580055	 3.815719
H	 -2.698114	 4.420165	 3.632223
H	 -4.114274	 3.481813	 4.010120
C	 -3.977264	 6.864757	 3.173049
H	 -4.435626	 5.679008	 4.896298
H	 -5.560615	 5.467868	 3.587129
H	 -2.916643	 6.994824	 3.371628
H	 -4.115132	 6.866848	 2.096962
H	 -4.495640	 7.732985	 3.568602

	symmetry c1
}
set optking {
	frozen_dihedral = ("
		6 3 2 4
	")
}

ee = optimize('scf')
oeprop('DIPOLE', 'QUADRUPOLE', 'MULLIKEN_CHARGES')
f=open( 'psi4out.xyz', 'w' )
f.write( "25  " )
f.write( str(ee) + "\n" )
f.write( MOL.save_string_xyz() )
f.close()
--------------------------------------------------------------------------

    Molecular point group: c1
  Charge       = 0
  Multiplicity = 1
  Basis Set: 6-31G*
  Basis Set:
  @DF-RHF Final Energy:  -387.11970933449231
    Total Energy =                       -387.1197093344927680
    Molecular point group: c1
  Basis Set: 6-31G*
  Basis Set:
  Basis Set: 6-31G*
  Basis Set:
  @DF-RHF Final Energy:  -387.11983362634510
    Total Energy =                       -387.1198336263453257
  Basis Set: 6-31G*
  Basis Set:
  Basis Set: 6-31G*
  Basis Set:
  @DF-RHF Final Energy:  -387.12016834129645
    Total Energy =                       -387.1201683412965622
  Basis Set: 6-31G*
  Basis Set:
  Basis Set: 6-31G*
  Basis Set:
  @DF-RHF Final Energy:  -387.12027120505923
    Total Energy =                       -387.1202712050595665
  Basis Set: 6-31G*
  Basis Set:
  @DF-RHF Final Energy:  -387.12028748420209
    Total Energy =                       -387.1202874842014126
  Basis Set: 6-31G*
  Basis Set:
  @DF-RHF Final Energy:  -387.12028696142488
    Total Energy =                       -387.1202869614254496
  Basis Set: 6-31G*
  Basis Set:
  Basis Set: 6-31G*
  Basis Set:
  @DF-RHF Final Energy:  -387.12030621365420
    Total Energy =                       -387.1203062136552262
  Basis Set: 6-31G*
  Basis Set:
  Basis Set: 6-31G*
  Basis Set:
  @DF-RHF Final Energy:  -387.12030261979061
    Total Energy =                       -387.1203026197908912
  Basis Set: 6-31G*
  Basis Set:
  Charge       = 0
  Multiplicity = 1
  Basis Set: 6-31G*
  Basis Set:

    Orbital Energies (a.u.)
    -----------------------

    Doubly Occupied:

       1A    -20.561407     2A    -11.324926     3A    -11.235662
       4A    -11.234276     5A    -11.228099     6A    -11.222185
       7A    -11.220198     8A    -11.219614     9A    -11.212256
      10A     -1.400859    11A     -1.105019    12A     -1.070093
      13A     -1.014322    14A     -0.943735    15A     -0.877289
      16A     -0.827651    17A     -0.784373    18A     -0.779869
      19A     -0.677393    20A     -0.659571    21A     -0.632878
      22A     -0.620077    23A     -0.599516    24A     -0.597003
      25A     -0.571481    26A     -0.557650    27A     -0.541814
      28A     -0.519717    29A     -0.512223    30A     -0.501093
      31A     -0.488131    32A     -0.480538    33A     -0.467136
      34A     -0.461463    35A     -0.444408    36A     -0.407305

  @DF-RHF Final Energy:  -387.12030643950578

   => Energetics <=

    Nuclear Repulsion Energy =            436.3551223802963364
    One-Electron Energy =               -1388.9484016570486347
    Two-Electron Energy =                 565.4729728372466298
    DFT Exchange-Correlation Energy =       0.0000000000000000
    Empirical Dispersion Energy =           0.0000000000000000
    PCM Polarization Energy =               0.0000000000000000
    EFP Energy =                            0.0000000000000000
    Total Energy =                       -387.1203064395057254
    Molecular point group: c1
  Basis Set: 6-31G*
  Basis Set:

  -Total Gradient:
     Atom            X                  Y                   Z
    ------   -----------------  -----------------  -----------------
       1       -0.000001663775    -0.000001875308     0.000001094162
       2       -0.000191964865     0.000089151998    -0.000007632601
       3        0.000018164984     0.000043671275     0.000126471446
       4        0.000140590398    -0.000063080304    -0.000008908600
       5       -0.000013033327     0.000011870817     0.000010062496
       6        0.000033424879    -0.000073207813    -0.000123550371
       7        0.000003485273     0.000002495098     0.000008756704
       8        0.000003738801    -0.000006764715     0.000002064195
       9        0.000002808603     0.000004187456    -0.000002181218
      10        0.000005796458    -0.000005776691    -0.000002557870
      11       -0.000003090427    -0.000003204022    -0.000007875830
      12        0.000004197661    -0.000002792207    -0.000003377889
      13       -0.000000016602     0.000002232126     0.000003750160
      14        0.000000243106    -0.000002409989     0.000000341801
      15       -0.000000779452     0.000000050259     0.000000773251
      16       -0.000000773378     0.000002553716    -0.000000382284
      17        0.000000037384     0.000001073706     0.000001764230
      18       -0.000000424241    -0.000000603604     0.000000027037
      19        0.000000436657     0.000000233432     0.000000551677
      20       -0.000000451184     0.000000466729     0.000000430488
      21       -0.000000979591     0.000001690168     0.000000049781
      22        0.000000494491     0.000000165854    -0.000000045529
      23       -0.000000206705    -0.000000269453    -0.000000151042
      24       -0.000000504946     0.000000299231     0.000000517510
      25        0.000000469798    -0.000000157749     0.000000008299

  **** Optimization is complete! (in 9 steps) ****
    Final optimized geometry and variables:
    Molecular point group: c1

    Geometry (in Angstrom), charge = 0, multiplicity = 1:

    H            0.341351291551    -3.167187529132    -0.126486178749
    C            0.337499904432    -3.098072320989    -1.218844581652
    C            0.941674805206    -1.848895204068    -1.809483351124
    O           -0.124735677600    -3.982474233464    -1.865720520351
    C            0.210235789203    -0.559230993968    -1.395548368743
    H            1.981985340804    -1.792742049942    -1.492377253930
    H            0.926318106579    -1.962658770083    -2.886835065705
    C            0.365779353454    -0.174608958634     0.079153621678
    H            0.594894631896     0.249076864022    -2.011014765544
    H           -0.844817667931    -0.651954263326    -1.642616183422
    C           -0.309828622566     1.156990348795     0.414921881329
    H            1.425066080762    -0.112276068465     0.322754083338
    H           -0.049278158854    -0.950646839196     0.718035439001
    C           -0.151279515438     1.549295062861     1.886298647342
    H            0.103914297100     1.932431216737    -0.224460520314
    H           -1.369451683145     1.092746355960     0.172839640831
    C           -0.886232779040     2.833089435816     2.288566615999
    H            0.907285423301     1.654950135291     2.118831452715
    H           -0.517931211280     0.733555429532     2.506051596659
    C           -0.349919009290     4.105572578075     1.630262297945
    H           -0.817927654590     2.943737582478     3.367885913499
    H           -1.945048774307     2.727068827669     2.061523518996
    H            0.710998093241     4.230859367642     1.829826744890
    H           -0.485426994628     4.095101092410     0.553858880180
    H           -0.862729970970     4.982359506134     2.013326785255

  Mulliken Charges: (a.u.)
   Center  Symbol    Alpha    Beta     Spin     Total
       1     H     0.42997  0.42997  0.00000  0.14006
       2     C     2.83170  2.83170  0.00000  0.33661
       3     C     3.20905  3.20905  0.00000 -0.41809
       4     O     4.23801  4.23801  0.00000 -0.47601
       5     C     3.16490  3.16490  0.00000 -0.32979
       6     H     0.41088  0.41088  0.00000  0.17823
       7     H     0.39807  0.39807  0.00000  0.20386
       8     C     3.15684  3.15684  0.00000 -0.31368
       9     H     0.41288  0.41288  0.00000  0.17425
      10     H     0.41280  0.41280  0.00000  0.17439
      11     C     3.15412  3.15412  0.00000 -0.30825
      12     H     0.42143  0.42143  0.00000  0.15715
      13     H     0.42158  0.42158  0.00000  0.15683
      14     C     3.15306  3.15306  0.00000 -0.30613
      15     H     0.42006  0.42006  0.00000  0.15987
      16     H     0.42184  0.42184  0.00000  0.15632
      17     C     3.15279  3.15279  0.00000 -0.30558
      18     H     0.42376  0.42376  0.00000  0.15248
      19     H     0.42172  0.42172  0.00000  0.15656
      20     C     3.24153  3.24153  0.00000 -0.48305
      21     H     0.42000  0.42000  0.00000  0.15999
      22     H     0.42252  0.42252  0.00000  0.15495
      23     H     0.42210  0.42210  0.00000  0.15580
      24     H     0.42016  0.42016  0.00000  0.15968
      25     H     0.41822  0.41822  0.00000  0.16356

   Total alpha = 36.00000, Total beta = 36.00000, Total charge =  0.00000
