  ==> Input File <==

--------------------------------------------------------------------------
set {
	reference rhf
	basis 6-31G*
}

set_num_threads( 4 )
memory 2 gb

molecule MOL {
0 1

O	 -1.915415	 -0.226468	 2.208522
C	 -0.891046	 0.385985	 2.206649
C	 0.378021	 -0.221375	 1.634907
C	 -0.810055	 1.799251	 2.739093
C	 0.379448	 -0.143569	 0.099626
H	 0.413919	 -1.260177	 1.944593
H	 1.255145	 0.280838	 2.032979
C	 1.631333	 -0.777471	 -0.511575
H	 -0.514810	 -0.636448	 -0.264733
H	 0.315065	 0.897049	 -0.214564
C	 2.915987	 -0.544314	 0.291766
H	 1.766672	 -0.399098	 -1.523130
H	 1.471257	 -1.849544	 -0.605828
C	 3.373361	 0.914346	 0.347591
H	 3.708709	 -1.142521	 -0.150311
H	 2.780642	 -0.921148	 1.303579
H	 3.506512	 1.320010	 -0.651625
H	 4.322697	 0.999599	 0.867103
H	 2.660624	 1.545032	 0.868198
H	 -0.182162	 1.820029	 3.625988
H	 -1.798612	 2.157340	 2.990708
H	 -0.353157	 2.459930	 2.007962

	symmetry c1
}
set optking {
	frozen_dihedral = ("
		3 5 8 12
	")
}

ee = optimize('scf')
oeprop('DIPOLE', 'QUADRUPOLE', 'MULLIKEN_CHARGES')
f=open( 'psi4out.xyz', 'w' )
f.write( "22  " )
f.write( str(ee) + "\n" )
f.write( MOL.save_string_xyz() )
f.close()
--------------------------------------------------------------------------

    Molecular point group: c1
  Charge       = 0
  Multiplicity = 1
  Basis Set: 6-31G*
  Basis Set:
  @DF-RHF Final Energy:  -348.09180767992405
    Total Energy =                       -348.0918076799239316
    Molecular point group: c1
  Basis Set: 6-31G*
  Basis Set:
  Basis Set: 6-31G*
  Basis Set:
  @DF-RHF Final Energy:  -348.09313039918015
    Total Energy =                       -348.0931303991803816
  Basis Set: 6-31G*
  Basis Set:
  Basis Set: 6-31G*
  Basis Set:
  @DF-RHF Final Energy:  -348.09390714478195
    Total Energy =                       -348.0939071447819515
  Basis Set: 6-31G*
  Basis Set:
  Basis Set: 6-31G*
  Basis Set:
  @DF-RHF Final Energy:  -348.09408929146252
    Total Energy =                       -348.0940892914622964
  Basis Set: 6-31G*
  Basis Set:
  @DF-RHF Final Energy:  -348.09404915526085
    Total Energy =                       -348.0940491552610752
  @DF-RHF Final Energy:  -348.09412461131211
    Total Energy =                       -348.0941246113119405
  @DF-RHF Final Energy:  -348.09413976031288
    Total Energy =                       -348.0941397603130554
  @DF-RHF Final Energy:  -348.09414051891798
    Total Energy =                       -348.0941405189179250
  Basis Set: 6-31G*
  Basis Set:
  @DF-RHF Final Energy:  -348.09414399805269
    Total Energy =                       -348.0941439980529140
  Basis Set: 6-31G*
  Basis Set:
  Basis Set: 6-31G*
  Basis Set:
  @DF-RHF Final Energy:  -348.09414793329626
    Total Energy =                       -348.0941479332962558
  Basis Set: 6-31G*
  Basis Set:
  Basis Set: 6-31G*
  Basis Set:
  @DF-RHF Final Energy:  -348.09414908926504
    Total Energy =                       -348.0941490892652155
  Basis Set: 6-31G*
  Basis Set:
  Charge       = 0
  Multiplicity = 1
  Basis Set: 6-31G*
  Basis Set:

    Orbital Energies (a.u.)
    -----------------------

    Doubly Occupied:

       1A    -20.547235     2A    -11.324513     3A    -11.230087
       4A    -11.228784     5A    -11.228360     6A    -11.222987
       7A    -11.222079     8A    -11.216254     9A     -1.393107
      10A     -1.095906    11A     -1.042444    12A     -0.998982
      13A     -0.942829    14A     -0.864042    15A     -0.778411
      16A     -0.733896    17A     -0.663240    18A     -0.653263
      19A     -0.620797    20A     -0.614820    21A     -0.605506
      22A     -0.574539    23A     -0.564218    24A     -0.552501
      25A     -0.533509    26A     -0.520573    27A     -0.509753
      28A     -0.489182    29A     -0.466327    30A     -0.460817
      31A     -0.456986    32A     -0.397170

  @DF-RHF Final Energy:  -348.09414918224616

   => Energetics <=

    Nuclear Repulsion Energy =            380.6068083953877021
    One-Electron Energy =               -1225.8956816471763887
    Two-Electron Energy =                 497.1947240695425307
    DFT Exchange-Correlation Energy =       0.0000000000000000
    Empirical Dispersion Energy =           0.0000000000000000
    PCM Polarization Energy =               0.0000000000000000
    EFP Energy =                            0.0000000000000000
    Total Energy =                       -348.0941491822461558
    Molecular point group: c1
  Basis Set: 6-31G*
  Basis Set:

  -Total Gradient:
     Atom            X                  Y                   Z
    ------   -----------------  -----------------  -----------------
       1        0.000000757135    -0.000008678846     0.000012568967
       2       -0.000023004860     0.000004127278    -0.000062350128
       3        0.002415326470     0.004085937303     0.000326309432
       4        0.000003021574    -0.000011233744     0.000029528937
       5       -0.002665628659    -0.004886930893    -0.000047503161
       6        0.000040564882    -0.000004375473    -0.000006136027
       7       -0.000023492494     0.000020949788    -0.000000152983
       8       -0.003463675748    -0.003779996980    -0.002701708010
       9       -0.000030084039     0.000068186246    -0.000003776108
      10        0.000051856602     0.000032047070     0.000088735066
      11        0.000011456928    -0.000000814544     0.000002531882
      12        0.003660545765     0.004486231106     0.002347980553
      13        0.000030971865    -0.000009314982     0.000005637075
      14       -0.000013695441     0.000006482886     0.000021631962
      15       -0.000004109744    -0.000002177641    -0.000006259298
      16        0.000003918032    -0.000003024968    -0.000001914555
      17        0.000003230303    -0.000000378834    -0.000000025519
      18       -0.000000913405     0.000000160518     0.000001024952
      19        0.000001192691     0.000000255820    -0.000000231901
      20        0.000002011181     0.000008547862     0.000000112731
      21       -0.000000009109    -0.000000481061    -0.000000978370
      22       -0.000000239923    -0.000005517913    -0.000005025497

  **** Optimization is complete! (in 12 steps) ****
    Final optimized geometry and variables:
    Molecular point group: c1

    Geometry (in Angstrom), charge = 0, multiplicity = 1:

    O           -2.589241989094    -0.425083423696     1.043424214481
    C           -1.587714530865     0.222559371903     1.082849129137
    C           -0.272440627784    -0.341141401679     0.572450454550
    C           -1.577927447740     1.637037339048     1.619039274377
    C           -0.214412694072    -0.252264209593    -0.962575850024
    H           -0.220358271229    -1.379049350190     0.885166600512
    H            0.560797295073     0.188585690057     1.018784326663
    C            1.007648995221    -0.926118889129    -1.614898695670
    H           -1.117685751155    -0.693847683537    -1.368777181484
    H           -0.235219907069     0.798185265514    -1.245384029187
    C            2.354302384616    -0.741174290173    -0.900394081544
    H            1.127390861247    -0.504288398463    -2.610074388713
    H            0.814158292161    -1.988863393551    -1.727462547846
    C            2.852457841759     0.705298014776    -0.876290777111
    H            3.091152871140    -1.351297079236    -1.416572777670
    H            2.304859674677    -1.130869918965     0.112379989057
    H            2.955038032535     1.096566353921    -1.884705248084
    H            3.823708545023     0.773580910682    -0.396304794819
    H            2.176434427287     1.362936478488    -0.338583984732
    H           -0.992266871306     1.677166909408     2.533709909820
    H           -2.588323148002     1.961408710381     1.825477757165
    H           -1.110806878165     2.314159028838     0.909685144981

  Mulliken Charges: (a.u.)
   Center  Symbol    Alpha    Beta     Spin     Total
       1     O     4.26245  4.26245  0.00000 -0.52490
       2     C     2.73646  2.73646  0.00000  0.52708
       3     C     3.20372  3.20372  0.00000 -0.40744
       4     C     3.28986  3.28986  0.00000 -0.57972
       5     C     3.16563  3.16563  0.00000 -0.33125
       6     H     0.40161  0.40161  0.00000  0.19677
       7     H     0.41393  0.41393  0.00000  0.17215
       8     C     3.15320  3.15320  0.00000 -0.30639
       9     H     0.40267  0.40267  0.00000  0.19466
      10     H     0.42066  0.42066  0.00000  0.15869
      11     C     3.15849  3.15849  0.00000 -0.31699
      12     H     0.41980  0.41980  0.00000  0.16040
      13     H     0.41662  0.41662  0.00000  0.16677
      14     C     3.24128  3.24128  0.00000 -0.48255
      15     H     0.41795  0.41795  0.00000  0.16410
      16     H     0.42068  0.42068  0.00000  0.15865
      17     H     0.42036  0.42036  0.00000  0.15928
      18     H     0.41742  0.41742  0.00000  0.16516
      19     H     0.42360  0.42360  0.00000  0.15281
      20     H     0.40692  0.40692  0.00000  0.18617
      21     H     0.39691  0.39691  0.00000  0.20619
      22     H     0.40981  0.40981  0.00000  0.18038

   Total alpha = 32.00000, Total beta = 32.00000, Total charge = -0.00000
