  ==> Input File <==

--------------------------------------------------------------------------
set {
	reference rhf
	basis cc-pvtz
}

set_num_threads( 4 )
memory 2 gb

molecule MOL {
0 1

H	 -3.401682	 -1.036167	 0.000000
O	 -3.113760	 -0.140926	 0.000000
C	 -1.775087	 -0.058754	 0.000000
C	 -0.967418	 -1.170653	 -0.204415
C	 -1.210331	 1.187740	 0.213276
H	 -1.412966	 -2.134374	 -0.369212
C	 0.400035	 -1.030413	 -0.194506
H	 -1.851155	 2.032233	 0.368826
C	 0.160702	 1.311215	 0.220196
H	 1.034102	 -1.880465	 -0.350962
C	 0.981216	 0.212001	 0.017875
H	 0.599923	 2.277784	 0.385563
C	 2.447560	 0.368717	 0.029615
O	 3.226711	 -0.510190	 -0.133486
H	 2.797641	 1.391550	 0.205847

	symmetry c1
}
set optking {
	frozen_dihedral = ("
		5 3 2 1
	")
}

ee = optimize('scf')
oeprop('DIPOLE', 'QUADRUPOLE', 'MULLIKEN_CHARGES')
f=open( 'psi4out.xyz', 'w' )
f.write( "15  " )
f.write( str(ee) + "\n" )
f.write( MOL.save_string_xyz() )
f.close()
--------------------------------------------------------------------------

    Molecular point group: c1
  Charge       = 0
  Multiplicity = 1
  Basis Set: CC-PVTZ
  Basis Set:
  @DF-RHF Final Energy:  -418.44246154981704
    Total Energy =                       -418.4424615498172670
    Molecular point group: c1
  Basis Set: CC-PVTZ
  Basis Set:
  Basis Set: CC-PVTZ
  Basis Set:
  @DF-RHF Final Energy:  -418.44246513016282
    Total Energy =                       -418.4424651301628728
  Basis Set: CC-PVTZ
  Basis Set:
  Charge       = 0
  Multiplicity = 1
  Basis Set: CC-PVTZ
  Basis Set:

    Orbital Energies (a.u.)
    -----------------------

    Doubly Occupied:

       1A    -20.604438     2A    -20.545619     3A    -11.322779
       4A    -11.322388     5A    -11.258275     6A    -11.254651
       7A    -11.242382     8A    -11.236947     9A    -11.236676
      10A     -1.437556    11A     -1.401865    12A     -1.175293
      13A     -1.044911    14A     -1.042484    15A     -0.892049
      16A     -0.870874    17A     -0.797514    18A     -0.762501
      19A     -0.717773    20A     -0.670863    21A     -0.646682
      22A     -0.631441    23A     -0.616601    24A     -0.610722
      25A     -0.585487    26A     -0.562453    27A     -0.555430
      28A     -0.509009    29A     -0.490283    30A     -0.421657
      31A     -0.362531    32A     -0.331880

  @DF-RHF Final Energy:  -418.44246599579878

   => Energetics <=

    Nuclear Repulsion Energy =            402.2955364262976445
    One-Electron Energy =               -1367.1519727336929009
    Two-Electron Energy =                 546.4139703115963584
    DFT Exchange-Correlation Energy =       0.0000000000000000
    Empirical Dispersion Energy =           0.0000000000000000
    PCM Polarization Energy =               0.0000000000000000
    EFP Energy =                            0.0000000000000000
    Total Energy =                       -418.4424659957988979
    Molecular point group: c1
  Basis Set: CC-PVTZ
  Basis Set:

  -Total Gradient:
     Atom            X                  Y                   Z
    ------   -----------------  -----------------  -----------------
       1       -0.000007596054    -0.000019343206     0.001324772425
       2        0.000030368016    -0.000047261862    -0.001225505542
       3       -0.000044278127     0.000091006098    -0.001080401744
       4       -0.000120907499     0.000039335805     0.000077088479
       5        0.000153288121    -0.000080697656     0.000933709412
       6        0.000006588588     0.000002205499    -0.000019297646
       7        0.000098993848     0.000089315972    -0.000021085198
       8       -0.000014257077    -0.000006599779     0.000010959423
       9       -0.000132189889     0.000062218616     0.000020421400
      10       -0.000002696104    -0.000011674818     0.000008946197
      11        0.000030352950    -0.000129406606    -0.000013322167
      12        0.000009572730     0.000001949213     0.000000255219
      13       -0.000027382230     0.000039123197    -0.000057404453
      14        0.000018958363    -0.000029921047     0.000017777224
      15        0.000001184365    -0.000000249427     0.000023086971

  **** Optimization is complete! (in 3 steps) ****
    Final optimized geometry and variables:
    Molecular point group: c1

    Geometry (in Angstrom), charge = 0, multiplicity = 1:

    H           -3.401070612465    -1.037467301414     0.003736031963
    O           -3.114165608368    -0.141729803814     0.005013071729
    C           -1.775109618165    -0.058830937325     0.007474947876
    C           -0.967420952156    -1.171418928284    -0.195375550578
    C           -1.210214139744     1.186799163362     0.222638804775
    H           -1.413792940074    -2.134201470683    -0.363435095064
    C            0.399806597659    -1.031730365514    -0.185031911398
    H           -1.850480093113     2.031155575926     0.381617341081
    C            0.161252348399     1.310725819149     0.225997493571
    H            1.033664333413    -1.882190674857    -0.340579335153
    C            0.981209282284     0.211404006901     0.024607256743
    H            0.600522930877     2.277242366660     0.391805488873
    C            2.447799969174     0.368429671202     0.035765195517
    O            3.226928874541    -0.510742030683    -0.124921903932
    H            2.797117145935     1.392091732637     0.209659315056

  Mulliken Charges: (a.u.)
   Center  Symbol    Alpha    Beta     Spin     Total
       1     H     0.38507  0.38507  0.00000  0.22986
       2     O     4.16696  4.16696  0.00000 -0.33391
       3     C     2.84511  2.84511  0.00000  0.30978
       4     C     3.13190  3.13190  0.00000 -0.26380
       5     C     3.10864  3.10864  0.00000 -0.21728
       6     H     0.43041  0.43041  0.00000  0.13918
       7     C     3.06663  3.06663  0.00000 -0.13327
       8     H     0.41652  0.41652  0.00000  0.16696
       9     C     3.06607  3.06607  0.00000 -0.13214
      10     H     0.40709  0.40709  0.00000  0.18582
      11     C     3.00378  3.00378  0.00000 -0.00757
      12     H     0.42138  0.42138  0.00000  0.15723
      13     C     2.91084  2.91084  0.00000  0.17832
      14     O     4.17904  4.17904  0.00000 -0.35807
      15     H     0.46055  0.46055  0.00000  0.07889

   Total alpha = 32.00000, Total beta = 32.00000, Total charge = -0.00000
