  ==> Input File <==

--------------------------------------------------------------------------
set {
	reference rhf
	basis cc-pvtz
}

set_num_threads( 4 )
memory 2 gb

molecule MOL {
0 1

H	 1.618457	 -1.443998	 1.410394
O	 1.206069	 -0.957349	 0.721073
C	 0.696428	 0.251863	 1.221164
C	 0.027642	 1.012027	 0.090274
H	 1.498996	 0.859742	 1.631207
H	 -0.009796	 0.062219	 2.024746
C	 -1.138737	 0.285728	 -0.581921
H	 0.782737	 1.233165	 -0.657013
H	 -0.313069	 1.966171	 0.484913
C	 -1.933983	 -0.631436	 0.343653
H	 -0.763151	 -0.285569	 -1.422081
H	 -1.808359	 1.035291	 -0.992333
H	 -2.789188	 -1.049673	 -0.174718
H	 -1.335629	 -1.461368	 0.700418
H	 -2.305435	 -0.092167	 1.209725

	symmetry c1
}
set optking {
	frozen_dihedral = ("
		8 4 7 11
	")
}

ee = optimize('scf')
oeprop('DIPOLE', 'QUADRUPOLE', 'MULLIKEN_CHARGES')
f=open( 'psi4out.xyz', 'w' )
f.write( "15  " )
f.write( str(ee) + "\n" )
f.write( MOL.save_string_xyz() )
f.close()
--------------------------------------------------------------------------

    Molecular point group: c1
  Charge       = 0
  Multiplicity = 1
  Basis Set: CC-PVTZ
  Basis Set:
  @DF-RHF Final Energy:  -232.23356548784975
    Total Energy =                       -232.2335654878496030
    Molecular point group: c1
  Basis Set: CC-PVTZ
  Basis Set:
  Basis Set: CC-PVTZ
  Basis Set:
  @DF-RHF Final Energy:  -232.23417425385540
    Total Energy =                       -232.2341742538553717
  Basis Set: CC-PVTZ
  Basis Set:
  Basis Set: CC-PVTZ
  Basis Set:
  @DF-RHF Final Energy:  -232.23437907210152
    Total Energy =                       -232.2343790721014329
  Basis Set: CC-PVTZ
  Basis Set:
  Basis Set: CC-PVTZ
  Basis Set:
  @DF-RHF Final Energy:  -232.23441338485850
    Total Energy =                       -232.2344133848586694
  Basis Set: CC-PVTZ
  Basis Set:
  Basis Set: CC-PVTZ
  Basis Set:
  @DF-RHF Final Energy:  -232.23441886512657
    Total Energy =                       -232.2344188651264858
  Basis Set: CC-PVTZ
  Basis Set:
  Basis Set: CC-PVTZ
  Basis Set:
  @DF-RHF Final Energy:  -232.23442076557171
    Total Energy =                       -232.2344207655718833
  Basis Set: CC-PVTZ
  Basis Set:
  Charge       = 0
  Multiplicity = 1
  Basis Set: CC-PVTZ
  Basis Set:

    Orbital Energies (a.u.)
    -----------------------

    Doubly Occupied:

       1A    -20.546811     2A    -11.264798     3A    -11.211196
       4A    -11.208575     5A    -11.201278     6A     -1.364343
       7A     -1.063426     8A     -0.971120     9A     -0.871478
      10A     -0.771356    11A     -0.708320    12A     -0.650667
      13A     -0.609590    14A     -0.573273    15A     -0.562724
      16A     -0.531747    17A     -0.516007    18A     -0.475820
      19A     -0.461674    20A     -0.452237    21A     -0.434143

  @DF-RHF Final Energy:  -232.23442111590276

   => Energetics <=

    Nuclear Repulsion Energy =            193.2385995576833579
    One-Electron Energy =                -698.0448691149924798
    Two-Electron Energy =                 272.5718484414064164
    DFT Exchange-Correlation Energy =       0.0000000000000000
    Empirical Dispersion Energy =           0.0000000000000000
    PCM Polarization Energy =               0.0000000000000000
    EFP Energy =                            0.0000000000000000
    Total Energy =                       -232.2344211159027054
    Molecular point group: c1
  Basis Set: CC-PVTZ
  Basis Set:

  -Total Gradient:
     Atom            X                  Y                   Z
    ------   -----------------  -----------------  -----------------
       1        0.000005187763     0.000004986236     0.000000137062
       2       -0.000012139219    -0.000003762490     0.000000151286
       3        0.000005111191     0.000005993811    -0.000003416051
       4       -0.003239608339     0.006996365469    -0.002187806212
       5       -0.000007716519     0.000006443470    -0.000007186943
       6       -0.000005017428    -0.000007243927    -0.000000027359
       7        0.001561954617    -0.006501572291     0.004488803695
       8        0.002498038703    -0.004878146982     0.001134236738
       9        0.000001463852     0.000001723861     0.000004937793
      10       -0.000010746727     0.000022139718    -0.000004700246
      11       -0.000811494268     0.004373533358    -0.003448614425
      12        0.000010560193    -0.000002351861     0.000010606016
      13        0.000002219154    -0.000001975612    -0.000001312861
      14        0.000003382192    -0.000011234253     0.000007345662
      15       -0.000001195165    -0.000004898510     0.000006845845

  **** Optimization is complete! (in 7 steps) ****
    Final optimized geometry and variables:
    Molecular point group: c1

    Geometry (in Angstrom), charge = 0, multiplicity = 1:

    H            1.914587822653    -1.363067368210     0.974956752085
    O            1.469855361106    -0.879916628309     0.303462653291
    C            0.913151044454     0.293635198728     0.838625663764
    C            0.204298226964     1.048934040294    -0.271949181067
    H            1.693847248867     0.926533505111     1.253281655099
    H            0.226082055514     0.055031348801     1.645257008450
    C           -0.953253650013     0.297798954321    -0.952291726757
    H            0.963369126477     1.264334941701    -1.016101400648
    H           -0.145674779624     1.990882499511     0.138140004680
    C           -1.817562320874    -0.572570253283    -0.046964512396
    H           -0.565656289311    -0.283121999721    -1.780527176656
    H           -1.591028116490     1.044708718625    -1.417866601451
    H           -2.650716896523    -0.983301620158    -0.605572088665
    H           -1.256296823702    -1.401226173420     0.364611262325
    H           -2.229830534468     0.000054437691     0.778301111797

  Mulliken Charges: (a.u.)
   Center  Symbol    Alpha    Beta     Spin     Total
       1     H     0.39510  0.39510  0.00000  0.20980
       2     O     4.20189  4.20189  0.00000 -0.40378
       3     C     2.98240  2.98240  0.00000  0.03520
       4     C     3.09689  3.09689  0.00000 -0.19377
       5     H     0.45860  0.45860  0.00000  0.08280
       6     H     0.46789  0.46789  0.00000  0.06422
       7     C     3.08033  3.08033  0.00000 -0.16067
       8     H     0.45048  0.45048  0.00000  0.09903
       9     H     0.45157  0.45157  0.00000  0.09685
      10     C     3.15948  3.15948  0.00000 -0.31896
      11     H     0.44949  0.44949  0.00000  0.10103
      12     H     0.45374  0.45374  0.00000  0.09252
      13     H     0.44624  0.44624  0.00000  0.10752
      14     H     0.44922  0.44922  0.00000  0.10157
      15     H     0.45668  0.45668  0.00000  0.08664

   Total alpha = 21.00000, Total beta = 21.00000, Total charge =  0.00000
