  ==> Input File <==

--------------------------------------------------------------------------
set {
	reference rhf
	basis 6-31G*
}

set_num_threads( 4 )
memory 2 gb

molecule MOL {
0 1

O	 1.381333	 2.107614	 -0.189326
C	 0.331796	 2.509768	 -0.576445
C	 -0.963431	 1.735066	 -0.566939
O	 0.160146	 3.726984	 -1.076504
C	 -0.823008	 0.326187	 0.001381
H	 -1.685934	 2.317466	 -0.001686
H	 -1.335825	 1.712663	 -1.587498
C	 -2.149452	 -0.435131	 -0.000098
H	 -0.432892	 0.385753	 1.012544
H	 -0.083322	 -0.220062	 -0.575494
C	 -3.368779	 0.488503	 -0.000883
H	 -2.193746	 -1.087250	 -0.871175
H	 -2.195311	 -1.087803	 0.870418
C	 -4.693822	 -0.272754	 -0.001129
H	 -3.325798	 1.139422	 -0.871284
H	 -3.326423	 1.139959	 0.869145
H	 -4.781274	 -0.907928	 -0.878124
H	 -5.538651	 0.408946	 -0.001420
H	 -4.781694	 -0.907783	 0.875984
C	 1.301698	 4.562269	 -1.140636
H	 1.706071	 4.729689	 -0.152718
H	 0.962849	 5.492773	 -1.568678
H	 2.063141	 4.117976	 -1.765387

	symmetry c1
}
set optking {
	frozen_dihedral = ("
		9 5 8 12
	")
}

ee = optimize('scf')
oeprop('DIPOLE', 'QUADRUPOLE', 'MULLIKEN_CHARGES')
f=open( 'psi4out.xyz', 'w' )
f.write( "23  " )
f.write( str(ee) + "\n" )
f.write( MOL.save_string_xyz() )
f.close()
--------------------------------------------------------------------------

    Molecular point group: c1
  Charge       = 0
  Multiplicity = 1
  Basis Set: 6-31G*
  Basis Set:
  @DF-RHF Final Energy:  -422.96554202679300
    Total Energy =                       -422.9655420267937416
    Molecular point group: c1
  Basis Set: 6-31G*
  Basis Set:
  Basis Set: 6-31G*
  Basis Set:
  @DF-RHF Final Energy:  -422.96661447657198
    Total Energy =                       -422.9666144765723175
  Basis Set: 6-31G*
  Basis Set:
  Basis Set: 6-31G*
  Basis Set:
  @DF-RHF Final Energy:  -422.96937820964490
    Total Energy =                       -422.9693782096441055
  Basis Set: 6-31G*
  Basis Set:
  Basis Set: 6-31G*
  Basis Set:
  @DF-RHF Final Energy:  -422.96971414131099
    Total Energy =                       -422.9697141413118970
  Basis Set: 6-31G*
  Basis Set:
  @DF-RHF Final Energy:  -422.96959017591189
    Total Energy =                       -422.9695901759118897
  @DF-RHF Final Energy:  -422.96935511866076
    Total Energy =                       -422.9693551186603599
  Basis Set: 6-31G*
  Basis Set:
  @DF-RHF Final Energy:  -422.96975782283823
    Total Energy =                       -422.9697578228383463
  Basis Set: 6-31G*
  Basis Set:
  Basis Set: 6-31G*
  Basis Set:
  @DF-RHF Final Energy:  -422.96976732672550
    Total Energy =                       -422.9697673267253322
  Basis Set: 6-31G*
  Basis Set:
  Basis Set: 6-31G*
  Basis Set:
  @DF-RHF Final Energy:  -422.96977859343923
    Total Energy =                       -422.9697785934390595
  Basis Set: 6-31G*
  Basis Set:
  Charge       = 0
  Multiplicity = 1
  Basis Set: 6-31G*
  Basis Set:

    Orbital Energies (a.u.)
    -----------------------

    Doubly Occupied:

       1A    -20.603450     2A    -20.545373     3A    -11.372159
       4A    -11.280737     5A    -11.235294     6A    -11.219588
       7A    -11.219117     8A    -11.217714     9A    -11.211311
      10A     -1.469201    11A     -1.362663    12A     -1.091749
      13A     -1.042025    14A     -0.986644    15A     -0.933294
      16A     -0.853622    17A     -0.792534    18A     -0.760093
      19A     -0.699988    20A     -0.682890    21A     -0.671245
      22A     -0.645473    23A     -0.611098    24A     -0.600938
      25A     -0.578552    26A     -0.558571    27A     -0.552311
      28A     -0.526149    29A     -0.521006    30A     -0.512363
      31A     -0.493601    32A     -0.467031    33A     -0.458805
      34A     -0.458305    35A     -0.451058    36A     -0.437682

  @DF-RHF Final Energy:  -422.96977892261913

   => Energetics <=

    Nuclear Repulsion Energy =            458.0222008222166892
    One-Electron Energy =               -1483.7366892664881561
    Two-Electron Energy =                 602.7447095216525668
    DFT Exchange-Correlation Energy =       0.0000000000000000
    Empirical Dispersion Energy =           0.0000000000000000
    PCM Polarization Energy =               0.0000000000000000
    EFP Energy =                            0.0000000000000000
    Total Energy =                       -422.9697789226188434
    Molecular point group: c1
  Basis Set: 6-31G*
  Basis Set:

  -Total Gradient:
     Atom            X                  Y                   Z
    ------   -----------------  -----------------  -----------------
       1        0.000016390354    -0.000012297547    -0.000027579042
       2       -0.000024618842     0.000050132936     0.000107438928
       3        0.000018373161    -0.000043256208    -0.000094987414
       4        0.000013058497    -0.000001414292    -0.000033087241
       5       -0.003397375782     0.005355143036     0.001888537747
       6       -0.000012970143    -0.000002529636     0.000009771506
       7        0.000004819558     0.000012564700     0.000007141470
       8       -0.002490249333     0.004361003774    -0.004160821511
       9        0.003265537352    -0.005204764212    -0.000912277469
      10       -0.000011109693     0.000021384619     0.000013593152
      11       -0.000002186004     0.000001902115    -0.000016519100
      12        0.002650003544    -0.004530778036     0.003218234727
      13       -0.000008021796    -0.000008122418    -0.000011948042
      14       -0.000009310082     0.000003800399     0.000021671330
      15        0.000002758586    -0.000004232958     0.000001645820
      16       -0.000007579969     0.000003434186    -0.000010143792
      17       -0.000001980405     0.000009303154    -0.000002957645
      18       -0.000008960966    -0.000003777177     0.000011195045
      19        0.000004766238    -0.000008149241    -0.000008308167
      20        0.000001528184     0.000001382814     0.000000364214
      21       -0.000001099860    -0.000000727811     0.000000053540
      22       -0.000002009826    -0.000000988206    -0.000000846351
      23        0.000000237227     0.000000986002    -0.000000171707

  **** Optimization is complete! (in 10 steps) ****
    Final optimized geometry and variables:
    Molecular point group: c1

    Geometry (in Angstrom), charge = 0, multiplicity = 1:

    O            2.347246329154     0.421604746392     0.250009811302
    C            1.333592935842     0.872467001363    -0.176877367143
    C           -0.003708180221     0.171696007947    -0.198136578261
    O            1.245441580326     2.086766723781    -0.705475581573
    C            0.052140337048    -1.228109447926     0.406069304976
    H           -0.707600948471     0.813542460152     0.320965446422
    H           -0.334823331270     0.143585389343    -1.232660970514
    C           -1.260115595876    -2.038806530704     0.339740928418
    H            0.411406169564    -1.183664110439     1.428562532356
    H            0.821150311882    -1.787472847125    -0.116704887717
    C           -2.569088328232    -1.251618633170     0.429752543400
    H           -1.256353132962    -2.665597121115    -0.549349717768
    H           -1.240350288091    -2.749028778174     1.163924999431
    C           -3.793284919954    -2.166188249117     0.466556049997
    H           -2.660434863701    -0.573242452977    -0.414114596192
    H           -2.559338089905    -0.630822431477     1.323495010026
    H           -3.847468504125    -2.783053816382    -0.426039386942
    H           -4.711856088323    -1.590862952473     0.527174294500
    H           -3.761126830197    -2.830736306241     1.325104871459
    C            2.433029924339     2.856602932585    -0.748541284934
    H            2.814778891962     3.022566096628     0.248574722641
    H            2.159953206223     3.795069680917    -1.205379261779
    H            3.187961527817     2.358139774952    -1.339428662918

  Mulliken Charges: (a.u.)
   Center  Symbol    Alpha    Beta     Spin     Total
       1     O     4.28588  4.28588  0.00000 -0.57175
       2     C     2.60435  2.60435  0.00000  0.79129
       3     C     3.21103  3.21103  0.00000 -0.42206
       4     O     4.30766  4.30766  0.00000 -0.61532
       5     C     3.15666  3.15666  0.00000 -0.31333
       6     H     0.39847  0.39847  0.00000  0.20305
       7     H     0.40048  0.40048  0.00000  0.19903
       8     C     3.15554  3.15554  0.00000 -0.31109
       9     H     0.41064  0.41064  0.00000  0.17872
      10     H     0.40940  0.40940  0.00000  0.18121
      11     C     3.15666  3.15666  0.00000 -0.31331
      12     H     0.42103  0.42103  0.00000  0.15795
      13     H     0.41945  0.41945  0.00000  0.16110
      14     C     3.23917  3.23917  0.00000 -0.47834
      15     H     0.42172  0.42172  0.00000  0.15656
      16     H     0.42233  0.42233  0.00000  0.15534
      17     H     0.42106  0.42106  0.00000  0.15789
      18     H     0.41865  0.41865  0.00000  0.16269
      19     H     0.42074  0.42074  0.00000  0.15852
      20     C     3.09238  3.09238  0.00000 -0.18476
      21     H     0.40909  0.40909  0.00000  0.18182
      22     H     0.40848  0.40848  0.00000  0.18304
      23     H     0.40912  0.40912  0.00000  0.18177

   Total alpha = 36.00000, Total beta = 36.00000, Total charge = -0.00000
