                              Psi4 1.0.54 Driver

  ==> Input File <==

--------------------------------------------------------------------------
set {
	reference rhf
	basis cc-pvtz
}

set_num_threads( 4 )
memory 2 gb

molecule MOL {
0 1

H	 -2.126674	 -1.202550	 0.102599
O	 -2.346257	 -0.289210	 0.080372
C	 -1.183935	 0.486039	 -0.009831
C	 0.062853	 -0.375310	 0.027457
H	 -1.178881	 1.094526	 -0.908634
H	 -1.184406	 1.155156	 0.838676
O	 1.172093	 0.457955	 -0.054438
H	 0.052476	 -1.081302	 -0.804627
H	 0.076323	 -0.955658	 0.947560
C	 2.395478	 -0.199028	 -0.000366
H	 2.505946	 -0.901710	 -0.823354
H	 3.174616	 0.545641	 -0.071768
H	 2.513730	 -0.742241	 0.934223

	symmetry c1
}
set optking {
	frozen_dihedral = ("
		1 2 3 5
	")
}

ee,wfn = optimize('scf', return_wfn=True)
oeprop( wfn, 'DIPOLE', 'QUADRUPOLE', 'MULLIKEN_CHARGES')
f=open( 'psi4out.xyz', 'w' )
f.write( "13  " )
f.write( str(ee) + "\n" )
f.write( MOL.save_string_xyz() )
f.close()
--------------------------------------------------------------------------

    Molecular point group: c1
  Charge       = 0
  Multiplicity = 1
  Basis Set: CC-PVTZ
  Basis Set:
  @DF-RHF Final Energy:  -268.05834974550947
    Total Energy =                       -268.0583497455093607
    Molecular point group: c1
  Basis Set: CC-PVTZ
  Basis Set:
  Basis Set: CC-PVTZ
  Basis Set:
  @DF-RHF Final Energy:  -268.05873919445509
    Total Energy =                       -268.0587391944551428
  Basis Set: CC-PVTZ
  Basis Set:
  Basis Set: CC-PVTZ
  Basis Set:
  @DF-RHF Final Energy:  -268.05883078327224
    Total Energy =                       -268.0588307832722421
  Basis Set: CC-PVTZ
  Basis Set:
  Charge       = 0
  Multiplicity = 1
  Basis Set: CC-PVTZ
  Basis Set:

    Orbital Energies (a.u.)
    -----------------------

    Doubly Occupied:

       1A    -20.561550     2A    -20.550407     3A    -11.278530
       4A    -11.271875     5A    -11.267100     6A     -1.397609
       7A     -1.367053     8A     -1.023155     9A     -0.916701
      10A     -0.852626    11A     -0.694222    12A     -0.692337
      13A     -0.672362    14A     -0.625506    15A     -0.612325
      16A     -0.580700    17A     -0.546682    18A     -0.500500
      19A     -0.473120    20A     -0.443304    21A     -0.430082

  @DF-RHF Final Energy:  -268.05883175713490

   => Energetics <=

    Nuclear Repulsion Energy =            190.6860877582913076
    One-Electron Energy =                -743.9743443929860405
    Two-Electron Energy =                 285.2294248775597794
    DFT Exchange-Correlation Energy =       0.0000000000000000
    Empirical Dispersion Energy =           0.0000000000000000
    PCM Polarization Energy =               0.0000000000000000
    EFP Energy =                            0.0000000000000000
    Total Energy =                       -268.0588317571350103
    Molecular point group: c1
  Basis Set: CC-PVTZ
  Basis Set:

  -Total Gradient:
     Atom            X                  Y                   Z
    ------   -----------------  -----------------  -----------------
       1       -0.000006151929     0.000019007599     0.000166624484
       2       -0.000088080701    -0.000023911621    -0.000180199858
       3        0.000085218105    -0.000183544556    -0.000040380980
       4       -0.000080431732     0.000043491444     0.000045120925
       5       -0.000028874206     0.000107227700     0.000069594844
       6        0.000000470804     0.000005832785     0.000004823842
       7        0.000083260892    -0.000025385476    -0.000025529399
       8        0.000001803962     0.000015801893    -0.000006996319
       9       -0.000016853895     0.000006984618    -0.000020469512
      10        0.000002592974     0.000068175552    -0.000008259445
      11        0.000016267656    -0.000014652471    -0.000003752529
      12        0.000038522630    -0.000015855678    -0.000004449923
      13       -0.000007744563    -0.000003171789     0.000003873871

  **** Optimization is complete! (in 4 steps) ****
    Final optimized geometry and variables:
    Molecular point group: c1

    Geometry (in Angstrom), charge = 0, multiplicity = 1:

    H           -2.162435002967    -1.197222382113     0.169589523901
    O           -2.357327633617    -0.279517461379     0.136170882780
    C           -1.186768435103     0.486588725778     0.025854742994
    C            0.063608405578    -0.368816858478     0.022365652570
    H           -1.224824233990     1.064938949286    -0.889149111420
    H           -1.140063188620     1.180686541475     0.855852735906
    O            1.166377970666     0.464703444768    -0.090915743543
    H            0.026611041718    -1.072021529101    -0.811083248953
    H            0.114339747303    -0.950849521798     0.943616180131
    C            2.391758270115    -0.192392913693    -0.103823849708
    H            2.465529170141    -0.878589099317    -0.944297510390
    H            3.165719888512     0.555072826656    -0.195233596900
    H            2.551376060666    -0.752551712028     0.814533929902

  Mulliken Charges: (a.u.)
   Center  Symbol    Alpha    Beta     Spin     Total
       1     H     0.39370  0.39370  0.00000  0.21261
       2     O     4.20384  4.20384  0.00000 -0.40769
       3     C     2.94984  2.94984  0.00000  0.10032
       4     C     2.97938  2.97938  0.00000  0.04124
       5     H     0.46696  0.46696  0.00000  0.06608
       6     H     0.46650  0.46650  0.00000  0.06699
       7     O     4.17118  4.17118  0.00000 -0.34235
       8     H     0.47531  0.47531  0.00000  0.04938
       9     H     0.47457  0.47457  0.00000  0.05086
      10     C     3.03370  3.03370  0.00000 -0.06739
      11     H     0.47029  0.47029  0.00000  0.05943
      12     H     0.44453  0.44453  0.00000  0.11095
      13     H     0.47021  0.47021  0.00000  0.05957

   Total alpha = 21.00000, Total beta = 21.00000, Total charge =  0.00000

*** Psi4 exiting successfully. Buy a developer a beer!
