                              Psi4 1.0.54 Driver

  ==> Input File <==

--------------------------------------------------------------------------
set {
	reference rhf
	basis cc-pvtz
}

set_num_threads( 4 )
memory 2 gb

molecule MOL {
0 1

H	 2.867672	 -0.456275	 0.875795
C	 2.403497	 -0.020426	 0.000000
N	 0.989899	 -0.304564	 0.000000
H	 2.867672	 -0.456275	 -0.875795
H	 2.620366	 1.051270	 0.000000
C	 0.245327	 0.591562	 0.860313
C	 0.702965	 -1.685205	 0.330257
H	 0.570993	 0.508270	 1.901826
H	 0.416632	 1.613946	 0.543906
C	 -1.236854	 0.281023	 0.776978
H	 1.210054	 -2.333359	 -0.375069
H	 1.063052	 -1.939743	 1.331902
C	 -0.790975	 -1.937244	 0.260541
H	 -1.790791	 0.882657	 1.483955
H	 -1.599349	 0.504135	 -0.224480
O	 -1.490529	 -1.056673	 1.089012
H	 -1.022614	 -2.939058	 0.594218
H	 -1.130397	 -1.828921	 -0.767641

	symmetry c1
}
set optking {
	frozen_dihedral = ("
		6 3 2 5
	")
}

ee,wfn = optimize('scf', return_wfn=True)
oeprop( wfn, 'DIPOLE', 'QUADRUPOLE', 'MULLIKEN_CHARGES')
f=open( 'psi4out.xyz', 'w' )
f.write( "18  " )
f.write( str(ee) + "\n" )
f.write( MOL.save_string_xyz() )
f.close()
--------------------------------------------------------------------------

    Molecular point group: c1
  Charge       = 0
  Multiplicity = 1
  Basis Set: CC-PVTZ
  Basis Set:
  @DF-RHF Final Energy:  -325.14394432463479
    Total Energy =                       -325.1439443246346173
    Molecular point group: c1
  Basis Set: CC-PVTZ
  Basis Set:
  Basis Set: CC-PVTZ
  Basis Set:
  @DF-RHF Final Energy:  -325.14467417268952
    Total Energy =                       -325.1446741726891787
  Basis Set: CC-PVTZ
  Basis Set:
  Basis Set: CC-PVTZ
  Basis Set:
  @DF-RHF Final Energy:  -325.14476415730758
    Total Energy =                       -325.1447641573076339
  Basis Set: CC-PVTZ
  Basis Set:
  Basis Set: CC-PVTZ
  Basis Set:
  @DF-RHF Final Energy:  -325.14476695444290
    Total Energy =                       -325.1447669544430141
  Basis Set: CC-PVTZ
  Basis Set:
  Charge       = 0
  Multiplicity = 1
  Basis Set: CC-PVTZ
  Basis Set:

    Orbital Energies (a.u.)
    -----------------------

    Doubly Occupied:

       1A    -20.547575     2A    -15.543069     3A    -11.264297
       4A    -11.264261     5A    -11.242766     6A    -11.242525
       7A    -11.239257     8A     -1.386432     9A     -1.233291
      10A     -1.039445    11A     -0.982056    12A     -0.884496
      13A     -0.869667    14A     -0.773924    15A     -0.685106
      16A     -0.646849    17A     -0.645493    18A     -0.635496
      19A     -0.629895    20A     -0.573898    21A     -0.557957
      22A     -0.541457    23A     -0.527620    24A     -0.501302
      25A     -0.486584    26A     -0.454106    27A     -0.410815
      28A     -0.352206

  @DF-RHF Final Energy:  -325.14476740253224

   => Energetics <=

    Nuclear Repulsion Energy =            341.8279514799536400
    One-Electron Energy =               -1119.6217471445659157
    Two-Electron Energy =                 452.6490282620798098
    DFT Exchange-Correlation Energy =       0.0000000000000000
    Empirical Dispersion Energy =           0.0000000000000000
    PCM Polarization Energy =               0.0000000000000000
    EFP Energy =                            0.0000000000000000
    Total Energy =                       -325.1447674025324659
    Molecular point group: c1
  Basis Set: CC-PVTZ
  Basis Set:

  -Total Gradient:
     Atom            X                  Y                   Z
    ------   -----------------  -----------------  -----------------
       1        0.000004205946    -0.000004650110     0.000000620073
       2       -0.000204617354     0.000579986162    -0.005028770939
       3        0.000528538513    -0.002221184925     0.003628551385
       4       -0.000020989420    -0.000006429849     0.000023271113
       5        0.000063014827     0.000054153669     0.003362774020
       6       -0.000384103276     0.001603702436    -0.001960769602
       7        0.000012676718    -0.000021128480    -0.000006117308
       8        0.000006782705    -0.000008090531    -0.000016709522
       9       -0.000004010171    -0.000000578614    -0.000001365352
      10       -0.000006635671     0.000002436392    -0.000013594700
      11        0.000005676609     0.000001373605    -0.000000679300
      12       -0.000007985849     0.000011433560    -0.000011087004
      13        0.000008553469     0.000004646029     0.000017011327
      14       -0.000004637551    -0.000003114380     0.000002712046
      15        0.000001888740     0.000006503767     0.000000165040
      16        0.000003302650     0.000004627387    -0.000001576374
      17       -0.000005552594    -0.000007170527    -0.000001248297
      18        0.000003891714     0.000003484408     0.000006813396

  **** Optimization is complete! (in 5 steps) ****
    Final optimized geometry and variables:
    Molecular point group: c1

    Geometry (in Angstrom), charge = 0, multiplicity = 1:

    H            2.808613142460     0.212811941105     0.386413908852
    C            2.281425831778     0.592584545617    -0.493360833614
    N            0.869838546906     0.298112388922    -0.460483711277
    H            2.739866784706     0.156597968047    -1.372379203775
    H            2.435117569072     1.663563641820    -0.512460501696
    C            0.113119515515     1.187144472451     0.394240743320
    C            0.593858147450    -1.088791649892    -0.159194794409
    H            0.430387875156     1.112729907917     1.439484007213
    H            0.272086098777     2.210163343921     0.074734484100
    C           -1.364873593608     0.857702436414     0.301310781916
    H            1.108010399721    -1.719195481214    -0.876166571886
    H            0.956259207156    -1.359769648880     0.837443057341
    C           -0.897918594893    -1.351933451515    -0.234317147961
    H           -1.930347202680     1.448141686704     1.008700697407
    H           -1.723954637344     1.082839199831    -0.701043190561
    O           -1.604336047096    -0.485043861082     0.602665773282
    H           -1.122530609151    -2.359019648109     0.088361460691
    H           -1.237102284465    -1.235091646186    -1.261679979894

  Mulliken Charges: (a.u.)
   Center  Symbol    Alpha    Beta     Spin     Total
       1     H     0.46928  0.46928  0.00000  0.06143
       2     C     3.09421  3.09421  0.00000 -0.18841
       3     N     3.61700  3.61700  0.00000 -0.23400
       4     H     0.44984  0.44984  0.00000  0.10031
       5     H     0.45326  0.45326  0.00000  0.09349
       6     C     3.03927  3.03927  0.00000 -0.07855
       7     C     3.04092  3.04092  0.00000 -0.08185
       8     H     0.47017  0.47017  0.00000  0.05966
       9     H     0.45403  0.45403  0.00000  0.09195
      10     C     2.98392  2.98392  0.00000  0.03216
      11     H     0.45447  0.45447  0.00000  0.09106
      12     H     0.46841  0.46841  0.00000  0.06318
      13     C     2.98339  2.98339  0.00000  0.03322
      14     H     0.44982  0.44982  0.00000  0.10037
      15     H     0.46788  0.46788  0.00000  0.06425
      16     O     4.18649  4.18649  0.00000 -0.37298
      17     H     0.44989  0.44989  0.00000  0.10022
      18     H     0.46776  0.46776  0.00000  0.06449

   Total alpha = 28.00000, Total beta = 28.00000, Total charge = -0.00000

*** Psi4 exiting successfully. Buy a developer a beer!
