                              Psi4 1.0.54 Driver

  ==> Input File <==

--------------------------------------------------------------------------
set {
	reference rhf
	basis cc-pvtz
}

set_num_threads( 4 )
memory 2 gb

molecule MOL {
0 1

H	 1.394983	 3.138174	 -4.552441
C	 1.369986	 2.574372	 -3.639382
C	 0.608959	 3.020238	 -2.573698
C	 2.098421	 1.404833	 -3.531942
H	 0.043812	 3.928111	 -2.657815
C	 0.577339	 2.295209	 -1.400741
H	 2.688288	 1.059916	 -4.358962
C	 2.067785	 0.677741	 -2.358104
H	 -0.006463	 2.625848	 -0.565929
C	 1.306469	 1.121471	 -1.288519
H	 2.630755	 -0.228413	 -2.271612
C	 1.238974	 0.374429	 0.000004
O	 1.968286	 -0.725612	 -0.000027
O	 0.598287	 0.726045	 0.933313
C	 3.373556	 -0.568203	 0.000011
H	 3.695416	 -0.031588	 -0.879663
H	 3.782700	 -1.565294	 -0.000152
H	 3.695405	 -0.031851	 0.879862

	symmetry c1
}
set optking {
	frozen_dihedral = ("
		10 12 13 15
	")
}

ee,wfn = optimize('scf', return_wfn=True)
oeprop( wfn, 'DIPOLE', 'QUADRUPOLE', 'MULLIKEN_CHARGES')
f=open( 'psi4out.xyz', 'w' )
f.write( "18  " )
f.write( str(ee) + "\n" )
f.write( MOL.save_string_xyz() )
f.close()
--------------------------------------------------------------------------

    Molecular point group: c1
  Charge       = 0
  Multiplicity = 1
  Basis Set: CC-PVTZ
  Basis Set:
  @DF-RHF Final Energy:  -457.48097468811000
    Total Energy =                       -457.4809746881098818
    Molecular point group: c1
  Basis Set: CC-PVTZ
  Basis Set:
  Basis Set: CC-PVTZ
  Basis Set:
  @DF-RHF Final Energy:  -457.48357701484366
    Total Energy =                       -457.4835770148438314
  Basis Set: CC-PVTZ
  Basis Set:
  Basis Set: CC-PVTZ
  Basis Set:
  @DF-RHF Final Energy:  -457.48829189826029
    Total Energy =                       -457.4882918982602860
  Basis Set: CC-PVTZ
  Basis Set:
  Basis Set: CC-PVTZ
  Basis Set:
  @DF-RHF Final Energy:  -457.48923013628132
    Total Energy =                       -457.4892301362810940
  Basis Set: CC-PVTZ
  Basis Set:
  @DF-RHF Final Energy:  -457.48965985117286
    Total Energy =                       -457.4896598511730872
  @DF-RHF Final Energy:  -457.48997968073400
    Total Energy =                       -457.4899796807346775
  Basis Set: CC-PVTZ
  Basis Set:
  @DF-RHF Final Energy:  -457.49003424850270
    Total Energy =                       -457.4900342485027522
  Basis Set: CC-PVTZ
  Basis Set:
  Basis Set: CC-PVTZ
  Basis Set:
  @DF-RHF Final Energy:  -457.49007601738515
    Total Energy =                       -457.4900760173857179
  Basis Set: CC-PVTZ
  Basis Set:
  Basis Set: CC-PVTZ
  Basis Set:
  @DF-RHF Final Energy:  -457.49008142205838
    Total Energy =                       -457.4900814220579832
  Basis Set: CC-PVTZ
  Basis Set:
  Charge       = 0
  Multiplicity = 1
  Basis Set: CC-PVTZ
  Basis Set:

    Orbital Energies (a.u.)
    -----------------------

    Doubly Occupied:

       1A    -20.584761     2A    -20.543646     3A    -11.373799
       4A    -11.290018     5A    -11.250903     6A    -11.249428
       7A    -11.248509     8A    -11.245768     9A    -11.242633
      10A    -11.241215    11A     -1.465074    12A     -1.372556
      13A     -1.176165    14A     -1.050292    15A     -1.035070
      16A     -0.978539    17A     -0.876780    18A     -0.846109
      19A     -0.784415    20A     -0.741580    21A     -0.690494
      22A     -0.680924    23A     -0.668826    24A     -0.642159
      25A     -0.633201    26A     -0.612490    27A     -0.602551
      28A     -0.565746    29A     -0.536280    30A     -0.523664
      31A     -0.510339    32A     -0.497871    33A     -0.466879
      34A     -0.446429    35A     -0.355401    36A     -0.352248

  @DF-RHF Final Energy:  -457.49008156935224

   => Energetics <=

    Nuclear Repulsion Energy =            497.9896892712379213
    One-Electron Energy =               -1610.1940173799755485
    Two-Electron Energy =                 654.7142465393851580
    DFT Exchange-Correlation Energy =       0.0000000000000000
    Empirical Dispersion Energy =           0.0000000000000000
    PCM Polarization Energy =               0.0000000000000000
    EFP Energy =                            0.0000000000000000
    Total Energy =                       -457.4900815693524692
    Molecular point group: c1
  Basis Set: CC-PVTZ
  Basis Set:

  -Total Gradient:
     Atom            X                  Y                   Z
    ------   -----------------  -----------------  -----------------
       1       -0.000006867641     0.000000967893     0.000001656864
       2        0.000026614479    -0.000010534267    -0.000014555925
       3       -0.000014821897    -0.000002877874     0.000036403005
       4        0.000000460031     0.000013610582    -0.000002133737
       5       -0.000001521636     0.000008345630    -0.000002782924
       6       -0.000011469399     0.000018905591    -0.000026121497
       7        0.000004341014    -0.000005568445    -0.000002266745
       8       -0.000041895566    -0.000016112556     0.000022232421
       9       -0.000003150113     0.000002858963     0.000007052163
      10        0.000802688508     0.000532102835     0.000360522468
      11        0.000009321281     0.000000730399    -0.000003445178
      12       -0.001119760323    -0.000791792859    -0.001109787313
      13        0.000288574037     0.000281078131     0.001821997394
      14       -0.000003561659    -0.000000208903     0.000000808328
      15        0.000039112832    -0.000036054955    -0.001102330849
      16        0.000012096003     0.000002607710    -0.000003779560
      17        0.000009231189    -0.000005861464    -0.000002057533
      18        0.000010608860     0.000007803586     0.000018588617

  **** Optimization is complete! (in 10 steps) ****
    Final optimized geometry and variables:
    Molecular point group: c1

    Geometry (in Angstrom), charge = 0, multiplicity = 1:

    H           -0.112066664163     2.149423987846    -3.258814779866
    C           -0.144792888458     1.579153295637    -2.350146506232
    C           -0.583107201623     2.171338854744    -1.178771458506
    C            0.245289064775     0.253712989349    -2.353953169461
    H           -0.889817851544     3.199307600442    -1.177454085227
    C           -0.633610439776     1.436307910730    -0.012940652796
    H            0.573684103448    -0.209133667242    -3.264333696658
    C            0.209713841378    -0.478446817912    -1.182853946638
    H           -0.987185403078     1.876736534416     0.897464430984
    C           -0.227330432553     0.110318633784    -0.007490301838
    H            0.503373595817    -1.509081418833    -1.186695731922
    C           -0.327487587533    -0.661525820215     1.269102203004
    O            0.420375983178    -1.774053024748     1.352492805912
    O           -1.045805791701    -0.348683335677     2.148242982184
    C            1.821939337610    -1.635973805722     1.449115630781
    H            2.223845212012    -1.032496683322     0.646858477914
    H            2.232561994118    -2.630928442718     1.390634130846
    H            2.087864464598    -1.194544613127     2.401415743941

  Mulliken Charges: (a.u.)
   Center  Symbol    Alpha    Beta     Spin     Total
       1     H     0.41958  0.41958  0.00000  0.16083
       2     C     3.07157  3.07157  0.00000 -0.14314
       3     C     3.07166  3.07166  0.00000 -0.14331
       4     C     3.07439  3.07439  0.00000 -0.14878
       5     H     0.41981  0.41981  0.00000  0.16037
       6     C     3.08190  3.08190  0.00000 -0.16380
       7     H     0.42048  0.42048  0.00000  0.15903
       8     C     3.09007  3.09007  0.00000 -0.18014
       9     H     0.40812  0.40812  0.00000  0.18377
      10     C     3.02902  3.02902  0.00000 -0.05804
      11     H     0.40856  0.40856  0.00000  0.18287
      12     C     2.77370  2.77370  0.00000  0.45260
      13     O     4.16080  4.16080  0.00000 -0.32160
      14     O     4.17690  4.17690  0.00000 -0.35380
      15     C     3.04550  3.04550  0.00000 -0.09100
      16     H     0.45696  0.45696  0.00000  0.08609
      17     H     0.44248  0.44248  0.00000  0.11503
      18     H     0.44850  0.44850  0.00000  0.10300

   Total alpha = 36.00000, Total beta = 36.00000, Total charge = -0.00000

*** Psi4 exiting successfully. Buy a developer a beer!
