  ==> Input File <==

--------------------------------------------------------------------------
set {
	reference rhf
	basis 6-31G*
}

set_num_threads( 1 )
memory 2 gb

molecule MOL {
0 1

O	 -1.276010	 1.052711	 -0.768302
C	 -1.204840	 0.067374	 -0.106123
C	 -2.388195	 -0.672128	 0.458071
O	 -0.067104	 -0.527208	 0.221609
H	 -2.388023	 -1.694060	 0.097175
H	 -3.300579	 -0.174919	 0.164318
H	 -2.315377	 -0.706351	 1.539059
C	 -0.086406	 -1.578379	 1.197618
C	 1.303051	 -1.604812	 1.809418
C	 -0.468991	 -2.890884	 0.531581
H	 -0.820266	 -1.321573	 1.947290
H	 1.541982	 -0.647459	 2.258455
H	 1.358130	 -2.367735	 2.578994
H	 2.050348	 -1.824383	 1.054441
H	 -0.462990	 -3.694917	 1.260629
H	 -1.461962	 -2.829674	 0.104688
H	 0.237499	 -3.137106	 -0.254711

	symmetry c1
}
set optking {
	frozen_dihedral = ("
		11 8 4 2
	")
}

ee = energy('scf')
oeprop('DIPOLE', 'QUADRUPOLE', 'MULLIKEN_CHARGES')
f=open( 'psi4out.xyz', 'w' )
f.write( "17  " )
f.write( str(ee) + "\n" )
f.write( MOL.save_string_xyz() )
f.close()
--------------------------------------------------------------------------

    Molecular point group: c1

    Geometry (in Angstrom), charge = 0, multiplicity = 1:

       Center              X                  Y                   Z               Mass
    ------------   -----------------  -----------------  -----------------  -----------------
           O         -0.676093543414     1.937245284343    -1.246188250940    15.994914619560
           C         -0.604923543414     0.951908284343    -0.584009250940    12.000000000000
           C         -1.788278543414     0.212406284343    -0.019815250940    12.000000000000
           O          0.532812456586     0.357326284343    -0.256277250940    15.994914619560
           H         -1.788106543414    -0.809525715657    -0.380711250940     1.007825032070
           H         -2.700662543414     0.709615284343    -0.313568250940     1.007825032070
           H         -1.715460543414     0.178183284343     1.061172749060     1.007825032070
           C          0.513510456586    -0.693844715657     0.719731749060    12.000000000000
           C          1.902967456586    -0.720277715657     1.331531749060    12.000000000000
           C          0.130925456586    -2.006349715657     0.053694749060    12.000000000000
           H         -0.220349543414    -0.437038715657     1.469403749060     1.007825032070
           H          2.141898456586     0.237075284343     1.780568749060     1.007825032070
           H          1.958046456586    -1.483200715657     2.101107749060     1.007825032070
           H          2.650264456586    -0.939848715657     0.576554749060     1.007825032070
           H          0.136926456586    -2.810382715657     0.782742749060     1.007825032070
           H         -0.862045543414    -1.945139715657    -0.373198250940     1.007825032070
           H          0.837415456586    -2.252571715657    -0.732597250940     1.007825032070

  Charge       = 0
  Multiplicity = 1
  Basis Set: 6-31G*
  Basis Set:

    Orbital Energies (a.u.)
    -----------------------

    Doubly Occupied:

       1A    -20.602388     2A    -20.540348     3A    -11.375492
       4A    -11.307079     5A    -11.233556     6A    -11.232239
       7A    -11.228818     8A     -1.464382     9A     -1.366353
      10A     -1.083202    11A     -1.027261    12A     -0.960337
      13A     -0.862729    14A     -0.779846    15A     -0.708354
      16A     -0.676857    17A     -0.661606    18A     -0.639189
      19A     -0.603007    20A     -0.575475    21A     -0.568726
      22A     -0.557651    23A     -0.549519    24A     -0.527985
      25A     -0.512575    26A     -0.488561    27A     -0.442711
      28A     -0.430333

  @DF-RHF Final Energy:  -344.87221051217870

   => Energetics <=

    Nuclear Repulsion Energy =            327.5009884965556353
    One-Electron Energy =               -1118.7332730408295447
    Two-Electron Energy =                 446.3600740320959517
    DFT Exchange-Correlation Energy =       0.0000000000000000
    Empirical Dispersion Energy =           0.0000000000000000
    PCM Polarization Energy =               0.0000000000000000
    EFP Energy =                            0.0000000000000000
    Total Energy =                       -344.8722105121779009

  Mulliken Charges: (a.u.)
   Center  Symbol    Alpha    Beta     Spin     Total
       1     O     4.27327  4.27327  0.00000 -0.54653
       2     C     2.60380  2.60380  0.00000  0.79240
       3     C     3.32067  3.32067  0.00000 -0.64135
       4     O     4.30527  4.30527  0.00000 -0.61053
       5     H     0.40324  0.40324  0.00000  0.19351
       6     H     0.38896  0.38896  0.00000  0.22207
       7     H     0.40185  0.40185  0.00000  0.19629
       8     C     2.93477  2.93477  0.00000  0.13045
       9     C     3.23653  3.23653  0.00000 -0.47306
      10     C     3.24890  3.24890  0.00000 -0.49779
      11     H     0.41521  0.41521  0.00000  0.16958
      12     H     0.40683  0.40683  0.00000  0.18634
      13     H     0.41829  0.41829  0.00000  0.16343
      14     H     0.40836  0.40836  0.00000  0.18327
      15     H     0.41469  0.41469  0.00000  0.17063
      16     H     0.41372  0.41372  0.00000  0.17256
      17     H     0.40564  0.40564  0.00000  0.18872

   Total alpha = 28.00000, Total beta = 28.00000, Total charge =  0.00000
