  ==> Input File <==

--------------------------------------------------------------------------
set {
	reference rhf
	basis 6-31G*
}

set_num_threads( 1 )
memory 2 gb

molecule MOL {
0 1

H	 3.729471	 -0.928294	 -0.070608
O	 2.826016	 -1.159218	 0.122261
C	 2.077727	 -0.067559	 -0.035091
C	 0.624473	 -0.343591	 0.253101
O	 2.542965	 0.974826	 -0.363729
C	 -0.265902	 0.883932	 0.072916
H	 0.324016	 -1.163849	 -0.390541
H	 0.565024	 -0.726111	 1.268924
C	 -1.728698	 0.646073	 0.462102
H	 -0.209144	 1.219470	 -0.958188
H	 0.135059	 1.692851	 0.673903
C	 -1.934408	 -0.260645	 1.678861
H	 -2.236471	 0.201634	 -0.390776
H	 -2.217954	 1.602909	 0.638876
C	 -3.410402	 -0.545451	 1.955998
H	 -1.409528	 -1.200166	 1.518096
H	 -1.490943	 0.190561	 2.562678
H	 -3.530862	 -1.187788	 2.822720
H	 -3.879819	 -1.039140	 1.109979
H	 -3.957649	 0.373440	 2.146779

	symmetry c1
}
set optking {
	frozen_dihedral = ("
		16 12 9 6,
		7 4 6 10,
		5 3 4 7,
		1 2 3 5
	")
}

ee = energy('scf')
oeprop('DIPOLE', 'QUADRUPOLE', 'MULLIKEN_CHARGES')
f=open( 'psi4out.xyz', 'w' )
f.write( "20  " )
f.write( str(ee) + "\n" )
f.write( MOL.save_string_xyz() )
f.close()
--------------------------------------------------------------------------

    Molecular point group: c1

    Geometry (in Angstrom), charge = 0, multiplicity = 1:

       Center              X                  Y                   Z               Mass
    ------------   -----------------  -----------------  -----------------  -----------------
           H          3.592155260956    -0.926844559949    -0.585837551675     1.007825032070
           O          2.688700260956    -1.157768559949    -0.392968551675    15.994914619560
           C          1.940411260956    -0.066109559949    -0.550320551675    12.000000000000
           C          0.487157260956    -0.342141559949    -0.262128551675    12.000000000000
           O          2.405649260956     0.976275440051    -0.878958551675    15.994914619560
           C         -0.403217739044     0.885381440051    -0.442313551675    12.000000000000
           H          0.186700260956    -1.162399559949    -0.905770551675     1.007825032070
           H          0.427708260956    -0.724661559949     0.753694448325     1.007825032070
           C         -1.866013739044     0.647522440051    -0.053127551675    12.000000000000
           H         -0.346459739044     1.220919440051    -1.473417551675     1.007825032070
           H         -0.002256739044     1.694300440051     0.158673448325     1.007825032070
           C         -2.071723739044    -0.259195559949     1.163631448325    12.000000000000
           H         -2.373786739044     0.203083440051    -0.906005551675     1.007825032070
           H         -2.355269739044     1.604358440051     0.123646448325     1.007825032070
           C         -3.547717739044    -0.544001559949     1.440768448325    12.000000000000
           H         -1.546843739044    -1.198716559949     1.002866448325     1.007825032070
           H         -1.628258739044     0.192010440051     2.047448448325     1.007825032070
           H         -3.668177739044    -1.186338559949     2.307490448325     1.007825032070
           H         -4.017134739044    -1.037690559949     0.594749448325     1.007825032070
           H         -4.094964739044     0.374889440051     1.631549448325     1.007825032070

  Charge       = 0
  Multiplicity = 1
  Basis Set: 6-31G*
  Basis Set:

    Orbital Energies (a.u.)
    -----------------------

    Doubly Occupied:

       1A    -20.612295     2A    -20.551112     3A    -11.380691
       4A    -11.239716     5A    -11.222472     6A    -11.221054
       7A    -11.219922     8A    -11.212688     9A     -1.474263
      10A     -1.365260    11A     -1.098036    12A     -1.039122
      13A     -0.961806    14A     -0.869253    15A     -0.822379
      16A     -0.769686    17A     -0.699321    18A     -0.690917
      19A     -0.665471    20A     -0.636882    21A     -0.601644
      22A     -0.593854    23A     -0.579427    24A     -0.553096
      25A     -0.537568    26A     -0.518928    27A     -0.495946
      28A     -0.478979    29A     -0.470896    30A     -0.461504
      31A     -0.458148    32A     -0.443208

  @DF-RHF Final Energy:  -383.94398355402984

   => Energetics <=

    Nuclear Repulsion Energy =            378.5508007438295408
    One-Electron Energy =               -1273.0986090313565455
    Two-Electron Energy =                 510.6038247334968219
    DFT Exchange-Correlation Energy =       0.0000000000000000
    Empirical Dispersion Energy =           0.0000000000000000
    PCM Polarization Energy =               0.0000000000000000
    EFP Energy =                            0.0000000000000000
    Total Energy =                       -383.9439835540301829

  Mulliken Charges: (a.u.)
   Center  Symbol    Alpha    Beta     Spin     Total
       1     H     0.26783  0.26783  0.00000  0.46434
       2     O     4.35162  4.35162  0.00000 -0.70325
       3     C     2.62091  2.62091  0.00000  0.75818
       4     C     3.21825  3.21825  0.00000 -0.43650
       5     O     4.27931  4.27931  0.00000 -0.55861
       6     C     3.15363  3.15363  0.00000 -0.30727
       7     H     0.39884  0.39884  0.00000  0.20232
       8     H     0.39504  0.39504  0.00000  0.20993
       9     C     3.15384  3.15384  0.00000 -0.30768
      10     H     0.40964  0.40964  0.00000  0.18072
      11     H     0.41014  0.41014  0.00000  0.17972
      12     C     3.16019  3.16019  0.00000 -0.32038
      13     H     0.42285  0.42285  0.00000  0.15431
      14     H     0.41729  0.41729  0.00000  0.16542
      15     C     3.23829  3.23829  0.00000 -0.47658
      16     H     0.42052  0.42052  0.00000  0.15896
      17     H     0.42152  0.42152  0.00000  0.15696
      18     H     0.41848  0.41848  0.00000  0.16305
      19     H     0.42106  0.42106  0.00000  0.15789
      20     H     0.42077  0.42077  0.00000  0.15847

   Total alpha = 32.00000, Total beta = 32.00000, Total charge =  0.00000
