                              Psi4 1.0.54 Driver

  ==> Input File <==

--------------------------------------------------------------------------
set {
	reference rhf
	basis cc-pvtz
}

set_num_threads( 4 )
memory 2 gb

molecule MOL {
0 1

H	 -1.625945	 0.067635	 1.364790
C	 -0.925135	 -0.484972	 0.776553
C	 -0.919316	 -1.865072	 0.771639
C	 0.000000	 0.179985	 0.000046
H	 -1.630653	 -2.400828	 1.368697
C	 -0.000002	 -2.552036	 -0.000012
N	 0.000000	 1.644631	 0.000076
C	 0.925135	 -0.484941	 -0.776487
H	 -0.000000	 -3.625035	 -0.000032
C	 0.919315	 -1.865041	 -0.771632
O	 1.050559	 2.194174	 -0.000073
O	 -1.050559	 2.194174	 -0.000074
H	 1.625940	 0.067691	 -1.364708
H	 1.630654	 -2.400772	 -1.368710

	symmetry c1
}
set optking {
	frozen_dihedral = ("
		2 4 7 11
	")
}

ee,wfn = optimize('scf', return_wfn=True)
oeprop( wfn, 'DIPOLE', 'QUADRUPOLE', 'MULLIKEN_CHARGES')
f=open( 'psi4out.xyz', 'w' )
f.write( "14  " )
f.write( str(ee) + "\n" )
f.write( MOL.save_string_xyz() )
f.close()
--------------------------------------------------------------------------

    Molecular point group: c1
  Charge       = 0
  Multiplicity = 1
  Basis Set: CC-PVTZ
  Basis Set:
  @DF-RHF Final Energy:  -434.32674883902081
    Total Energy =                       -434.3267488390209792
    Molecular point group: c1
  Basis Set: CC-PVTZ
  Basis Set:
  Basis Set: CC-PVTZ
  Basis Set:
  @DF-RHF Final Energy:  -434.31986849624514
    Total Energy =                       -434.3198684962450216
  Basis Set: CC-PVTZ
  Basis Set:
  Basis Set: CC-PVTZ
  Basis Set:
  @DF-RHF Final Energy:  -434.32620008976647
    Total Energy =                       -434.3262000897664166
  Basis Set: CC-PVTZ
  Basis Set:
  Basis Set: CC-PVTZ
  Basis Set:
  @DF-RHF Final Energy:  -434.32708208563037
    Total Energy =                       -434.3270820856303089
  Basis Set: CC-PVTZ
  Basis Set:
  Basis Set: CC-PVTZ
  Basis Set:
  @DF-RHF Final Energy:  -434.32709326186819
    Total Energy =                       -434.3270932618680717
  Basis Set: CC-PVTZ
  Basis Set:
  Basis Set: CC-PVTZ
  Basis Set:
  @DF-RHF Final Energy:  -434.32711829589044
    Total Energy =                       -434.3271182958907275
  Basis Set: CC-PVTZ
  Basis Set:
  Charge       = 0
  Multiplicity = 1
  Basis Set: CC-PVTZ
  Basis Set:

    Orbital Energies (a.u.)
    -----------------------

    Doubly Occupied:

       1A    -20.594167     2A    -20.593829     3A    -15.847478
       4A    -11.304187     5A    -11.267898     6A    -11.267687
       7A    -11.262958     8A    -11.259287     9A    -11.259053
      10A     -1.642172    11A     -1.425087    12A     -1.205712
      13A     -1.096594    14A     -1.056104    15A     -0.959523
      16A     -0.870688    17A     -0.829702    18A     -0.787533
      19A     -0.740367    20A     -0.735853    21A     -0.714711
      22A     -0.656729    23A     -0.651509    24A     -0.626334
      25A     -0.558362    26A     -0.545741    27A     -0.532726
      28A     -0.495826    29A     -0.490037    30A     -0.456919
      31A     -0.375201    32A     -0.370087

  @DF-RHF Final Energy:  -434.32711867652063

   => Energetics <=

    Nuclear Repulsion Energy =            418.0858607814158177
    One-Electron Energy =               -1419.8658449631684562
    Two-Electron Energy =                 567.4528655052320119
    DFT Exchange-Correlation Energy =       0.0000000000000000
    Empirical Dispersion Energy =           0.0000000000000000
    PCM Polarization Energy =               0.0000000000000000
    EFP Energy =                            0.0000000000000000
    Total Energy =                       -434.3271186765206267
    Molecular point group: c1
  Basis Set: CC-PVTZ
  Basis Set:

  -Total Gradient:
     Atom            X                  Y                   Z
    ------   -----------------  -----------------  -----------------
       1        0.000001147721    -0.000002323216    -0.000006475655
       2        0.002680246678    -0.000195688344     0.003040427996
       3       -0.000037006774     0.000032554889    -0.000013416925
       4       -0.003765491960     0.000219502122    -0.002630345752
       5       -0.000001500840     0.000002100556    -0.000002137803
       6        0.000019965696     0.000001643315    -0.000029580015
       7        0.001037776414     0.000272129162    -0.004981488131
       8       -0.000008493993     0.000024736342     0.000006093975
       9        0.000002032693     0.000000450866     0.000005446675
      10        0.000008100286    -0.000022761318     0.000022325209
      11        0.000193696528    -0.000297874721     0.004587333031
      12       -0.000128699514    -0.000038698154     0.000010102152
      13       -0.000000489868    -0.000001287338    -0.000003440221
      14       -0.000001283066     0.000005515835    -0.000004844537

  **** Optimization is complete! (in 7 steps) ****
    Final optimized geometry and variables:
    Molecular point group: c1

    Geometry (in Angstrom), charge = 0, multiplicity = 1:

    H           -1.631798711983     0.076260364298     1.352336743111
    C           -0.935484593216    -0.478711881379     0.758620902354
    C           -0.932864096760    -1.859459469396     0.750306221053
    C           -0.017207425896     0.180738305007    -0.026376142873
    H           -1.633400648823    -2.395390972377     1.359907559558
    C           -0.031103182117    -2.546319331326    -0.041425844210
    N            0.022757003285     1.640995702568     0.024010838577
    C            0.910229913436    -0.479962222815    -0.800102296998
    H           -0.038864845914    -3.619101155633    -0.050013563369
    C            0.884796015937    -1.859861305753    -0.818001885698
    O            1.090170080594     2.156730484245     0.007400985942
    O           -1.012962781436     2.211483289112     0.112974070527
    H            1.626563728251     0.073942234183    -1.370652831049
    H            1.584238520517    -2.396350439245    -1.428373224105

  Mulliken Charges: (a.u.)
   Center  Symbol    Alpha    Beta     Spin     Total
       1     H     0.40481  0.40481  0.00000  0.19038
       2     C     3.08478  3.08478  0.00000 -0.16956
       3     C     3.07036  3.07036  0.00000 -0.14072
       4     C     2.94777  2.94777  0.00000  0.10446
       5     H     0.41707  0.41707  0.00000  0.16585
       6     C     3.06797  3.06797  0.00000 -0.13595
       7     N     3.27067  3.27067  0.00000  0.45865
       8     C     3.08304  3.08304  0.00000 -0.16608
       9     H     0.41737  0.41737  0.00000  0.16527
      10     C     3.06990  3.06990  0.00000 -0.13979
      11     O     4.17053  4.17053  0.00000 -0.34105
      12     O     4.17238  4.17238  0.00000 -0.34475
      13     H     0.40623  0.40623  0.00000  0.18753
      14     H     0.41712  0.41712  0.00000  0.16576

   Total alpha = 32.00000, Total beta = 32.00000, Total charge = -0.00000

*** Psi4 exiting successfully. Buy a developer a beer!
