  ==> Input File <==

--------------------------------------------------------------------------
set {
	reference rhf
	basis 6-31G*
}

set_num_threads( 4 )
memory 2 gb

molecule MOL {
0 1

O	 -2.324811	 1.361668	 -0.277141
C	 -2.105949	 0.203097	 -0.092081
C	 -0.889235	 -0.467034	 -0.705952
C	 -3.002726	 -0.644460	 0.782455
C	 0.376048	 -0.160693	 0.111579
H	 -0.772706	 -0.079093	 -1.712046
H	 -1.037299	 -1.541124	 -0.772547
C	 1.628128	 -0.794840	 -0.498966
H	 0.485418	 0.916085	 0.174603
H	 0.250918	 -0.524155	 1.130395
C	 2.908861	 -0.578868	 0.315364
H	 1.772311	 -0.405392	 -1.505081
H	 1.462332	 -1.864750	 -0.606919
C	 3.374483	 0.876266	 0.391384
H	 3.700903	 -1.176565	 -0.128620
H	 2.764680	 -0.966780	 1.321755
H	 3.516559	 1.292870	 -0.602084
H	 4.320891	 0.949701	 0.917995
H	 2.662102	 1.505034	 0.914792
H	 -3.496582	 -1.399307	 0.176174
H	 -3.747939	 -0.023774	 1.260148
H	 -2.421318	 -1.168775	 1.535358

	symmetry c1
}
set optking {
	frozen_dihedral = ("
		6 3 2 1
	")
}

ee = optimize('scf')
oeprop('DIPOLE', 'QUADRUPOLE', 'MULLIKEN_CHARGES')
f=open( 'psi4out.xyz', 'w' )
f.write( "22  " )
f.write( str(ee) + "\n" )
f.write( MOL.save_string_xyz() )
f.close()
--------------------------------------------------------------------------

    Molecular point group: c1
  Charge       = 0
  Multiplicity = 1
  Basis Set: 6-31G*
  Basis Set:
  @DF-RHF Final Energy:  -348.09833212954140
    Total Energy =                       -348.0983321295417454
    Molecular point group: c1
  Basis Set: 6-31G*
  Basis Set:
  Basis Set: 6-31G*
  Basis Set:
  @DF-RHF Final Energy:  -348.09822536900060
    Total Energy =                       -348.0982253690004882
  Basis Set: 6-31G*
  Basis Set:
  Basis Set: 6-31G*
  Basis Set:
  @DF-RHF Final Energy:  -348.09832165531515
    Total Energy =                       -348.0983216553147486
  Basis Set: 6-31G*
  Basis Set:
  Basis Set: 6-31G*
  Basis Set:
  @DF-RHF Final Energy:  -348.09833368584708
    Total Energy =                       -348.0983336858470238
  Basis Set: 6-31G*
  Basis Set:
  Basis Set: 6-31G*
  Basis Set:
  @DF-RHF Final Energy:  -348.09831728905596
    Total Energy =                       -348.0983172890557285
  Basis Set: 6-31G*
  Basis Set:
  Basis Set: 6-31G*
  Basis Set:
  @DF-RHF Final Energy:  -348.09833376783814
    Total Energy =                       -348.0983337678379712
  Basis Set: 6-31G*
  Basis Set:
  Charge       = 0
  Multiplicity = 1
  Basis Set: 6-31G*
  Basis Set:

    Orbital Energies (a.u.)
    -----------------------

    Doubly Occupied:

       1A    -20.547363     2A    -11.324478     3A    -11.229647
       4A    -11.229042     5A    -11.228205     6A    -11.222462
       7A    -11.220711     8A    -11.211135     9A     -1.393120
      10A     -1.095743    11A     -1.044303    12A     -0.999441
      13A     -0.937732    14A     -0.857711    15A     -0.786519
      16A     -0.732950    17A     -0.662801    18A     -0.643710
      19A     -0.626053    20A     -0.620634    21A     -0.596738
      22A     -0.583187    23A     -0.562807    24A     -0.540995
      25A     -0.534613    26A     -0.519614    27A     -0.497754
      28A     -0.488159    29A     -0.470795    30A     -0.464231
      31A     -0.459859    32A     -0.396212

  @DF-RHF Final Energy:  -348.09833394126071

   => Energetics <=

    Nuclear Repulsion Energy =            372.9596430373118778
    One-Electron Energy =               -1210.6585068692077130
    Two-Electron Energy =                 489.6005298906350731
    DFT Exchange-Correlation Energy =       0.0000000000000000
    Empirical Dispersion Energy =           0.0000000000000000
    PCM Polarization Energy =               0.0000000000000000
    EFP Energy =                            0.0000000000000000
    Total Energy =                       -348.0983339412607052
    Molecular point group: c1
  Basis Set: 6-31G*
  Basis Set:

  -Total Gradient:
     Atom            X                  Y                   Z
    ------   -----------------  -----------------  -----------------
       1       -0.000010750299    -0.000007653061    -0.000014872557
       2        0.000028108876     0.000013918142     0.000039512797
       3       -0.000012128474    -0.000015680482    -0.000014136659
       4       -0.000014247440    -0.000002783895    -0.000017104130
       5       -0.000002250410     0.000003753781    -0.000001155940
       6        0.000009960736     0.000006433010     0.000004917851
       7        0.000000630094     0.000000729231    -0.000000023830
       8        0.000000266258    -0.000002223679    -0.000003290854
       9       -0.000006916685    -0.000001455489    -0.000001065416
      10        0.000000088633     0.000000520809    -0.000000035422
      11       -0.000005958136    -0.000000132095     0.000007046506
      12        0.000002224971     0.000002653897     0.000000910365
      13        0.000001195042    -0.000000566336    -0.000004360814
      14        0.000003582285     0.000001573452    -0.000004027901
      15       -0.000002331937    -0.000000163169     0.000000479859
      16       -0.000001400812    -0.000001181146     0.000001548884
      17        0.000000413559     0.000002971190    -0.000001042231
      18       -0.000000374285    -0.000000695260    -0.000000773210
      19        0.000004287550    -0.000001944758     0.000000317089
      20        0.000001240450    -0.000001697836     0.000004216126
      21        0.000000136132     0.000000937299     0.000001895124
      22        0.000004223895     0.000002686394     0.000001044364

  **** Optimization is complete! (in 7 steps) ****
    Final optimized geometry and variables:
    Molecular point group: c1

    Geometry (in Angstrom), charge = 0, multiplicity = 1:

    O           -2.323751893151     1.374825978151    -0.289350101185
    C           -2.103806561714     0.216882733207    -0.102049280987
    C           -0.887620000348    -0.454229362234    -0.715829643756
    C           -3.003035815629    -0.631328446385     0.769626939807
    C            0.378496735790    -0.145861181321     0.099513566649
    H           -0.772513519816    -0.068690643705    -1.722977123859
    H           -1.035703556992    -1.528537293831    -0.779365450635
    C            1.630011119794    -0.781435011452    -0.510787615262
    H            0.488217177915     0.931080847207     0.159831307362
    H            0.254732823622    -0.506621468179     1.119450629049
    C            2.911257674750    -0.565468771377     0.302632608550
    H            1.773797349631    -0.393341391662    -1.517528646492
    H            1.463236599419    -1.851350120183    -0.617431273850
    C            3.376028243792     0.889894764906     0.379961625083
    H            3.703441316041    -1.162149587548    -0.142491547276
    H            2.768394332770    -0.954403991587     1.308822157726
    H            3.516922069462     1.307600127340    -0.613168690011
    H            4.322868863185     0.963240565519     0.905794853905
    H            2.663718869954     1.517683417737     0.904648800704
    H           -3.497847197479    -1.383435623485     0.160773802847
    H           -3.747507059695    -0.010288951506     1.247983864338
    H           -2.423687900236    -1.158834360380     1.521818555012

  Mulliken Charges: (a.u.)
   Center  Symbol    Alpha    Beta     Spin     Total
       1     O     4.26238  4.26238  0.00000 -0.52476
       2     C     2.73720  2.73720  0.00000  0.52560
       3     C     3.19956  3.19956  0.00000 -0.39912
       4     C     3.28951  3.28951  0.00000 -0.57902
       5     C     3.16419  3.16419  0.00000 -0.32838
       6     H     0.40112  0.40112  0.00000  0.19775
       7     H     0.41698  0.41698  0.00000  0.16604
       8     C     3.15256  3.15256  0.00000 -0.30513
       9     H     0.40371  0.40371  0.00000  0.19258
      10     H     0.42136  0.42136  0.00000  0.15727
      11     C     3.15333  3.15333  0.00000 -0.30666
      12     H     0.42056  0.42056  0.00000  0.15888
      13     H     0.42192  0.42192  0.00000  0.15616
      14     C     3.24206  3.24206  0.00000 -0.48413
      15     H     0.41953  0.41953  0.00000  0.16093
      16     H     0.42301  0.42301  0.00000  0.15397
      17     H     0.42073  0.42073  0.00000  0.15855
      18     H     0.41824  0.41824  0.00000  0.16352
      19     H     0.41834  0.41834  0.00000  0.16333
      20     H     0.40683  0.40683  0.00000  0.18634
      21     H     0.39709  0.39709  0.00000  0.20582
      22     H     0.40978  0.40978  0.00000  0.18045

   Total alpha = 32.00000, Total beta = 32.00000, Total charge =  0.00000
