  ==> Input File <==

--------------------------------------------------------------------------
set {
	reference rhf
	basis 6-31G*
}

set_num_threads( 1 )
memory 2 gb

molecule MOL {
0 1

H	 2.176868	 -0.646004	 -0.217325
O	 1.337496	 -0.537251	 0.205931
C	 0.702312	 0.627605	 -0.264544
C	 -0.714990	 0.596302	 0.266387
H	 0.682322	 0.642550	 -1.350929
H	 1.215941	 1.520383	 0.085680
O	 -1.405996	 -0.526611	 -0.195820
H	 -1.257453	 1.468809	 -0.075599
H	 -0.688972	 0.618407	 1.353696
H	 -1.697214	 -0.342803	 -1.079799

	symmetry c1
}
set optking {
	frozen_dihedral = ("
		5 3 4 7
	")
}

ee = energy('scf')
oeprop('DIPOLE', 'QUADRUPOLE', 'MULLIKEN_CHARGES')
f=open( 'psi4out.xyz', 'w' )
f.write( "10  " )
f.write( str(ee) + "\n" )
f.write( MOL.save_string_xyz() )
f.close()
--------------------------------------------------------------------------

    Molecular point group: c1

    Geometry (in Angstrom), charge = 0, multiplicity = 1:

       Center              X                  Y                   Z               Mass
    ------------   -----------------  -----------------  -----------------  -----------------
           H          2.189971826797    -0.661436204210    -0.199424571749     1.007825032070
           O          1.350599826797    -0.552683204210     0.223831428251    15.994914619560
           C          0.715415826797     0.612172795790    -0.246643571749    12.000000000000
           C         -0.701886173203     0.580869795790     0.284287428251    12.000000000000
           H          0.695425826797     0.627117795790    -1.333028571749     1.007825032070
           H          1.229044826797     1.504950795790     0.103580428251     1.007825032070
           O         -1.392892173203    -0.542043204210    -0.177919571749    15.994914619560
           H         -1.244349173203     1.453376795790    -0.057698571749     1.007825032070
           H         -0.675868173203     0.602974795790     1.371596428251     1.007825032070
           H         -1.684110173203    -0.358235204210    -1.061898571749     1.007825032070

  Charge       = 0
  Multiplicity = 1
  Basis Set: 6-31G*
  Basis Set:

    Orbital Energies (a.u.)
    -----------------------

    Doubly Occupied:

       1A    -20.553601     2A    -20.551951     3A    -11.273007
       4A    -11.270292     5A     -1.372718     6A     -1.349086
       7A     -1.000374     8A     -0.840270     9A     -0.720380
      10A     -0.672474    11A     -0.657479    12A     -0.595288
      13A     -0.571113    14A     -0.528197    15A     -0.481632
      16A     -0.444345    17A     -0.433444

  @DF-RHF Final Energy:  -228.91606930133273

   => Energetics <=

    Nuclear Repulsion Energy =            134.0229755386052659
    One-Electron Energy =                -579.2469099406096120
    Two-Electron Energy =                 216.3078651006715631
    DFT Exchange-Correlation Energy =       0.0000000000000000
    Empirical Dispersion Energy =           0.0000000000000000
    PCM Polarization Energy =               0.0000000000000000
    EFP Energy =                            0.0000000000000000
    Total Energy =                       -228.9160693013328114

  Mulliken Charges: (a.u.)
   Center  Symbol    Alpha    Beta     Spin     Total
       1     H     0.28045  0.28045  0.00000  0.43911
       2     O     4.36402  4.36402  0.00000 -0.72804
       3     C     3.00214  3.00214  0.00000 -0.00427
       4     C     3.00454  3.00454  0.00000 -0.00908
       5     H     0.43585  0.43585  0.00000  0.12830
       6     H     0.43052  0.43052  0.00000  0.13897
       7     O     4.35938  4.35938  0.00000 -0.71876
       8     H     0.43193  0.43193  0.00000  0.13614
       9     H     0.40830  0.40830  0.00000  0.18341
      10     H     0.28288  0.28288  0.00000  0.43424

   Total alpha = 17.00000, Total beta = 17.00000, Total charge =  0.00000
