                              Psi4 1.0.54 Driver

  ==> Input File <==

--------------------------------------------------------------------------
set {
	reference rhf
	basis cc-pvtz
}

set_num_threads( 4 )
memory 2 gb

molecule MOL {
0 1

O	 -2.081319	 -0.951530	 -0.502732
N	 -1.613558	 0.006676	 0.014756
C	 -0.329345	 -0.171618	 0.743966
O	 -2.068523	 1.100482	 -0.024385
C	 0.835904	 0.041968	 -0.213982
H	 -0.346048	 -1.174374	 1.137184
H	 -0.333613	 0.555559	 1.538590
C	 2.061361	 -0.761892	 0.212900
H	 0.529606	 -0.250747	 -1.211508
H	 1.077570	 1.098108	 -0.244054
C	 3.245538	 -0.560193	 -0.725995
H	 1.805797	 -1.816725	 0.251015
H	 2.346848	 -0.476675	 1.221144
H	 3.000275	 -0.868718	 -1.736122
H	 3.543856	 0.481696	 -0.760487
H	 4.100755	 -1.139650	 -0.400427

	symmetry c1
}
set optking {
	frozen_dihedral = ("
		9 5 3 2
	")
}

ee,wfn = optimize('scf', return_wfn=True)
oeprop( wfn, 'DIPOLE', 'QUADRUPOLE', 'MULLIKEN_CHARGES')
f=open( 'psi4out.xyz', 'w' )
f.write( "16  " )
f.write( str(ee) + "\n" )
f.write( MOL.save_string_xyz() )
f.close()
--------------------------------------------------------------------------

    Molecular point group: c1
  Charge       = 0
  Multiplicity = 1
  Basis Set: CC-PVTZ
  Basis Set:
  @DF-RHF Final Energy:  -360.90696683721018
    Total Energy =                       -360.9069668372101773
    Molecular point group: c1
  Basis Set: CC-PVTZ
  Basis Set:
  Basis Set: CC-PVTZ
  Basis Set:
  @DF-RHF Final Energy:  -360.90616507207585
    Total Energy =                       -360.9061650720756802
  Basis Set: CC-PVTZ
  Basis Set:
  Basis Set: CC-PVTZ
  Basis Set:
  @DF-RHF Final Energy:  -360.90394086593761
    Total Energy =                       -360.9039408659374999
  Basis Set: CC-PVTZ
  Basis Set:
  Basis Set: CC-PVTZ
  Basis Set:
  @DF-RHF Final Energy:  -360.90681078621327
    Total Energy =                       -360.9068107862133274
  Basis Set: CC-PVTZ
  Basis Set:
  @DF-RHF Final Energy:  -360.90708717880074
    Total Energy =                       -360.9070871788007935
  Basis Set: CC-PVTZ
  Basis Set:
  @DF-RHF Final Energy:  -360.90720658073178
    Total Energy =                       -360.9072065807319518
  Basis Set: CC-PVTZ
  Basis Set:
  Basis Set: CC-PVTZ
  Basis Set:
  @DF-RHF Final Energy:  -360.90721467089890
    Total Energy =                       -360.9072146708988384
  Basis Set: CC-PVTZ
  Basis Set:
  Basis Set: CC-PVTZ
  Basis Set:
  @DF-RHF Final Energy:  -360.90721864264702
    Total Energy =                       -360.9072186426469671
  Basis Set: CC-PVTZ
  Basis Set:
  Charge       = 0
  Multiplicity = 1
  Basis Set: CC-PVTZ
  Basis Set:

    Orbital Energies (a.u.)
    -----------------------

    Doubly Occupied:

       1A    -20.589765     2A    -20.589611     3A    -15.836237
       4A    -11.296279     5A    -11.251199     6A    -11.241361
       7A    -11.225536     8A     -1.635261     9A     -1.419494
      10A     -1.135516    11A     -1.060201    12A     -0.948621
      13A     -0.844141    14A     -0.829534    15A     -0.759053
      16A     -0.737437    17A     -0.728086    18A     -0.673268
      19A     -0.619729    20A     -0.607339    21A     -0.566641
      22A     -0.544513    23A     -0.514917    24A     -0.504257
      25A     -0.495312    26A     -0.484981    27A     -0.470553
      28A     -0.452685

  @DF-RHF Final Energy:  -360.90721900756660

   => Energetics <=

    Nuclear Repulsion Energy =            313.2207790955909559
    One-Electron Energy =               -1112.1329467160417153
    Two-Electron Energy =                 438.0049486128841068
    DFT Exchange-Correlation Energy =       0.0000000000000000
    Empirical Dispersion Energy =           0.0000000000000000
    PCM Polarization Energy =               0.0000000000000000
    EFP Energy =                            0.0000000000000000
    Total Energy =                       -360.9072190075666526
    Molecular point group: c1
  Basis Set: CC-PVTZ
  Basis Set:

  -Total Gradient:
     Atom            X                  Y                   Z
    ------   -----------------  -----------------  -----------------
       1       -0.000018692005    -0.000018407180    -0.000037502552
       2       -0.000238344884    -0.002814069843    -0.000531681901
       3        0.000140888714     0.004713585565     0.000572981827
       4       -0.000022499150    -0.000029678012    -0.000014883847
       5        0.001035597224    -0.005683823410     0.000853650411
       6        0.000000191653    -0.000001136799     0.000007714036
       7        0.000004801450    -0.000006204848    -0.000018636126
       8        0.000008231510     0.000011247347     0.000002912586
       9       -0.000919039277     0.003829187069    -0.000842115135
      10        0.000010811236     0.000000253146     0.000012054429
      11       -0.000006550954    -0.000010593735    -0.000008486322
      12        0.000007967783     0.000013197767    -0.000001807017
      13       -0.000000171552    -0.000000807086    -0.000005395401
      14        0.000002542188     0.000007352530     0.000008550103
      15       -0.000004672143    -0.000009734571     0.000003235510
      16       -0.000001061787    -0.000000367937    -0.000000590603

  **** Optimization is complete! (in 9 steps) ****
    Final optimized geometry and variables:
    Molecular point group: c1

    Geometry (in Angstrom), charge = 0, multiplicity = 1:

    O           -2.129247805256    -0.626595601034    -0.433061389129
    N           -1.572190438578     0.307120091954     0.038882108822
    C           -0.327666382725     0.040602110427     0.807232669034
    O           -1.907302473018     1.438321785371    -0.077185562716
    C            0.883618614967     0.121811751424    -0.125023300861
    H           -0.449784542915    -0.950437071764     1.210997714069
    H           -0.289710775639     0.772978131115     1.595361913982
    C            2.043525075262    -0.736091748404     0.369442078786
    H            0.585806919697    -0.173003406113    -1.124431127844
    H            1.195331976657     1.157044102546    -0.200442425878
    C            3.283211107858    -0.603431946462    -0.507494413915
    H            1.730578423234    -1.774896455237     0.402472337392
    H            2.290750321551    -0.455516028506     1.389724980980
    H            3.072137850869    -0.901198274274    -1.528574502724
    H            3.641424377707     0.419824923084    -0.527682996232
    H            4.086849098278    -1.229068529918    -0.138862699509

  Mulliken Charges: (a.u.)
   Center  Symbol    Alpha    Beta     Spin     Total
       1     O     4.17277  4.17277  0.00000 -0.34554
       2     N     3.27883  3.27883  0.00000  0.44234
       3     C     3.03866  3.03866  0.00000 -0.07731
       4     O     4.17349  4.17349  0.00000 -0.34698
       5     C     3.09830  3.09830  0.00000 -0.19659
       6     H     0.43633  0.43633  0.00000  0.12735
       7     H     0.43251  0.43251  0.00000  0.13498
       8     C     3.09233  3.09233  0.00000 -0.18466
       9     H     0.43808  0.43808  0.00000  0.12384
      10     H     0.44162  0.44162  0.00000  0.11677
      11     C     3.14896  3.14896  0.00000 -0.29791
      12     H     0.44826  0.44826  0.00000  0.10348
      13     H     0.45104  0.45104  0.00000  0.09791
      14     H     0.45123  0.45123  0.00000  0.09754
      15     H     0.45241  0.45241  0.00000  0.09517
      16     H     0.44518  0.44518  0.00000  0.10964

   Total alpha = 28.00000, Total beta = 28.00000, Total charge = -0.00000

*** Psi4 exiting successfully. Buy a developer a beer!
