  ==> Input File <==

--------------------------------------------------------------------------
set {
	reference rhf
	basis 6-31G*
}

set_num_threads( 4 )
memory 2 gb

molecule MOL {
0 1

H	 -2.535089	 0.521775	 0.613510
O	 -2.315789	 -0.143634	 -0.024262
C	 -0.945151	 -0.064130	 -0.333158
H	 -0.813375	 -0.223047	 -1.403232
C	 -0.232801	 -1.184051	 0.407206
C	 -0.355424	 1.302939	 0.054523
H	 -0.318824	 -0.992899	 1.473524
H	 -0.742411	 -2.122033	 0.217954
C	 1.248522	 -1.270719	 -0.013048
H	 -0.546144	 2.018388	 -0.742941
H	 -0.890929	 1.656788	 0.930149
C	 1.156425	 1.235120	 0.355905
H	 1.825384	 -1.683246	 0.809111
H	 1.357782	 -1.965923	 -0.840362
C	 1.828244	 0.099899	 -0.419275
H	 1.626109	 2.185622	 0.123525
H	 1.309438	 1.071213	 1.419539
H	 2.901447	 0.112642	 -0.255830
H	 1.681817	 0.263413	 -1.484607

	symmetry c1
}
set optking {
	frozen_dihedral = ("
		1 2 3 4
	")
}

ee = optimize('scf')
oeprop('DIPOLE', 'QUADRUPOLE', 'MULLIKEN_CHARGES')
f=open( 'psi4out.xyz', 'w' )
f.write( "19  " )
f.write( str(ee) + "\n" )
f.write( MOL.save_string_xyz() )
f.close()
--------------------------------------------------------------------------

    Molecular point group: c1
  Charge       = 0
  Multiplicity = 1
  Basis Set: 6-31G*
  Basis Set:
  @DF-RHF Final Energy:  -309.04537051916975
    Total Energy =                       -309.0453705191699783
    Molecular point group: c1
  Basis Set: 6-31G*
  Basis Set:
  Basis Set: 6-31G*
  Basis Set:
  @DF-RHF Final Energy:  -309.04644384375570
    Total Energy =                       -309.0464438437558101
  Basis Set: 6-31G*
  Basis Set:
  Basis Set: 6-31G*
  Basis Set:
  @DF-RHF Final Energy:  -309.04664716773499
    Total Energy =                       -309.0466471677348181
  Basis Set: 6-31G*
  Basis Set:
  Basis Set: 6-31G*
  Basis Set:
  @DF-RHF Final Energy:  -309.04665292409510
    Total Energy =                       -309.0466529240951559
  Basis Set: 6-31G*
  Basis Set:
  Charge       = 0
  Multiplicity = 1
  Basis Set: 6-31G*
  Basis Set:

    Orbital Energies (a.u.)
    -----------------------

    Doubly Occupied:

       1A    -20.547829     2A    -11.268916     3A    -11.221971
       4A    -11.221069     5A    -11.217924     6A    -11.216385
       7A    -11.208571     8A     -1.357445     9A     -1.110705
      10A     -1.005020    11A     -0.989113    12A     -0.845618
      13A     -0.842542    14A     -0.749118    15A     -0.673917
      16A     -0.665258    17A     -0.614062    18A     -0.607571
      19A     -0.580227    20A     -0.555701    21A     -0.529931
      22A     -0.521795    23A     -0.502614    24A     -0.488202
      25A     -0.467969    26A     -0.450462    27A     -0.429198
      28A     -0.408522

  @DF-RHF Final Energy:  -309.04665387675539

   => Energetics <=

    Nuclear Repulsion Energy =            331.2124809546953657
    One-Electron Energy =               -1075.9229617176431475
    Two-Electron Energy =                 435.6638268861925098
    DFT Exchange-Correlation Energy =       0.0000000000000000
    Empirical Dispersion Energy =           0.0000000000000000
    PCM Polarization Energy =               0.0000000000000000
    EFP Energy =                            0.0000000000000000
    Total Energy =                       -309.0466538767552720
    Molecular point group: c1
  Basis Set: 6-31G*
  Basis Set:

  -Total Gradient:
     Atom            X                  Y                   Z
    ------   -----------------  -----------------  -----------------
       1       -0.000223793489     0.001157585584    -0.001274365241
       2        0.000294186758    -0.001144123376     0.001537018712
       3        0.000038047922    -0.001517624065    -0.000023966899
       4       -0.000069578227     0.001452778947    -0.000207160559
       5       -0.000060428444     0.000025928746    -0.000032718077
       6        0.000036538661    -0.000005590267     0.000001991754
       7        0.000008677416    -0.000014019420    -0.000007003867
       8        0.000016395880    -0.000014773153     0.000008228108
       9       -0.000016139745    -0.000005276391     0.000052480320
      10        0.000007048665     0.000023478309    -0.000014302549
      11        0.000005201204     0.000008834315    -0.000004633269
      12       -0.000018629987     0.000017256242    -0.000005690258
      13        0.000018662522    -0.000020584188    -0.000003810425
      14       -0.000014941334     0.000006601002    -0.000003649361
      15       -0.000009542197     0.000032133971    -0.000041017744
      16       -0.000006138217     0.000011972169     0.000016793773
      17       -0.000004725024    -0.000000200668     0.000006354471
      18       -0.000016501773    -0.000015713402     0.000004205846
      19        0.000015659410     0.000001335644    -0.000008754736

  **** Optimization is complete! (in 5 steps) ****
    Final optimized geometry and variables:
    Molecular point group: c1

    Geometry (in Angstrom), charge = 0, multiplicity = 1:

    H           -2.596135307417     0.526695555209     0.532477721077
    O           -2.336914443491    -0.122749256015    -0.104190596428
    C           -0.945859258154    -0.066608763726    -0.317739321664
    H           -0.810848852399    -0.206566723480    -1.385398770640
    C           -0.226180003039    -1.190783980748     0.416883699476
    C           -0.356198049786     1.298626509194     0.072161743799
    H           -0.303524679805    -1.009155013704     1.487168505368
    H           -0.736607345251    -2.127954584819     0.225571541883
    C            1.253853846619    -1.274769464523    -0.011455324875
    H           -0.574658050729     2.018613940562    -0.710946671587
    H           -0.861133461666     1.655317929472     0.969273790372
    C            1.161286543502     1.232440619335     0.346086573318
    H            1.840824743957    -1.675892951922     0.809289417129
    H            1.360704482028    -1.976290727368    -0.833518725477
    C            1.822105357673     0.095285478853    -0.435525585608
    H            1.624117979226     2.183229631623     0.101998742574
    H            1.334385614064     1.072387291939     1.407260110951
    H            2.897616943080     0.113013932077    -0.289154175633
    H            1.658086650300     0.253212553107    -1.498822166176

  Mulliken Charges: (a.u.)
   Center  Symbol    Alpha    Beta     Spin     Total
       1     H     0.28167  0.28167  0.00000  0.43666
       2     O     4.38402  4.38402  0.00000 -0.76804
       3     C     2.89815  2.89815  0.00000  0.20370
       4     H     0.41994  0.41994  0.00000  0.16012
       5     C     3.16862  3.16862  0.00000 -0.33723
       6     C     3.17846  3.17846  0.00000 -0.35693
       7     H     0.42511  0.42511  0.00000  0.14978
       8     H     0.40885  0.40885  0.00000  0.18230
       9     C     3.16121  3.16121  0.00000 -0.32242
      10     H     0.41264  0.41264  0.00000  0.17471
      11     H     0.42756  0.42756  0.00000  0.14488
      12     C     3.16272  3.16272  0.00000 -0.32543
      13     H     0.41823  0.41823  0.00000  0.16354
      14     H     0.41734  0.41734  0.00000  0.16532
      15     C     3.16468  3.16468  0.00000 -0.32935
      16     H     0.41541  0.41541  0.00000  0.16917
      17     H     0.41920  0.41920  0.00000  0.16159
      18     H     0.41603  0.41603  0.00000  0.16793
      19     H     0.42015  0.42015  0.00000  0.15969

   Total alpha = 28.00000, Total beta = 28.00000, Total charge =  0.00000
