  ==> Input File <==

--------------------------------------------------------------------------
set {
	reference rhf
	basis 6-31G*
}

set_num_threads( 4 )
memory 2 gb

molecule MOL {
0 1

O	 -2.821601	 1.309235	 -0.001213
C	 -2.668563	 0.129746	 -0.000350
C	 -3.801572	 -0.864014	 -0.000442
O	 -1.481751	 -0.454642	 0.000584
H	 -4.417280	 -0.689587	 -0.874708
H	 -3.443784	 -1.883046	 -0.000565
H	 -4.417179	 -0.689832	 0.873954
C	 -0.334255	 0.388708	 0.000906
C	 0.891947	 -0.504646	 0.000751
H	 -0.365390	 1.025305	 -0.873475
H	 -0.365484	 1.024911	 0.875569
C	 2.191998	 0.301789	 0.000897
H	 0.855148	 -1.151283	 -0.871571
H	 0.855132	 -1.151660	 0.872805
C	 2.991037	 0.144395	 -1.294128
H	 1.966523	 1.355393	 0.156346
H	 2.810484	 -0.005300	 0.842475
C	 4.288861	 0.950942	 -1.294463
H	 2.374587	 0.451173	 -2.136121
H	 3.219207	 -0.907633	 -1.449840
H	 4.091132	 2.012297	 -1.174289
H	 4.832453	 0.819226	 -2.224728
H	 4.942229	 0.643062	 -0.483087

	symmetry c1
}
set optking {
	frozen_dihedral = ("
		16 12 9 13
	")
}

ee = optimize('scf')
oeprop('DIPOLE', 'QUADRUPOLE', 'MULLIKEN_CHARGES')
f=open( 'psi4out.xyz', 'w' )
f.write( "23  " )
f.write( str(ee) + "\n" )
f.write( MOL.save_string_xyz() )
f.close()
--------------------------------------------------------------------------

    Molecular point group: c1
  Charge       = 0
  Multiplicity = 1
  Basis Set: 6-31G*
  Basis Set:
  @DF-RHF Final Energy:  -422.97446790963153
    Total Energy =                       -422.9744679096312439
    Molecular point group: c1
  Basis Set: 6-31G*
  Basis Set:
  Basis Set: 6-31G*
  Basis Set:
  @DF-RHF Final Energy:  -422.97469301115444
    Total Energy =                       -422.9746930111546135
  Basis Set: 6-31G*
  Basis Set:
  Basis Set: 6-31G*
  Basis Set:
  @DF-RHF Final Energy:  -422.97475338999618
    Total Energy =                       -422.9747533899967493
  Basis Set: 6-31G*
  Basis Set:
  Basis Set: 6-31G*
  Basis Set:
  @DF-RHF Final Energy:  -422.97463262304097
    Total Energy =                       -422.9746326230405202
  Basis Set: 6-31G*
  Basis Set:
  Basis Set: 6-31G*
  Basis Set:
  @DF-RHF Final Energy:  -422.97476449717630
    Total Energy =                       -422.9747644971766931
  Basis Set: 6-31G*
  Basis Set:
  Charge       = 0
  Multiplicity = 1
  Basis Set: 6-31G*
  Basis Set:

    Orbital Energies (a.u.)
    -----------------------

    Doubly Occupied:

       1A    -20.602957     2A    -20.540622     3A    -11.374202
       4A    -11.281842     5A    -11.232424     6A    -11.224229
       7A    -11.223673     8A    -11.221826     9A    -11.212678
      10A     -1.468064    11A     -1.360849    12A     -1.092622
      13A     -1.041672    14A     -1.002720    15A     -0.930072
      16A     -0.844217    17A     -0.800594    18A     -0.777261
      19A     -0.688760    20A     -0.684902    21A     -0.671734
      22A     -0.636045    23A     -0.613544    24A     -0.586080
      25A     -0.579568    26A     -0.571111    27A     -0.559945
      28A     -0.532803    29A     -0.525743    30A     -0.501617
      31A     -0.496850    32A     -0.478344    33A     -0.468136
      34A     -0.462896    35A     -0.449877    36A     -0.435466

  @DF-RHF Final Energy:  -422.97476471653471

   => Energetics <=

    Nuclear Repulsion Energy =            452.2271058581937382
    One-Electron Energy =               -1472.0518471906880222
    Two-Electron Energy =                 596.8499766159600313
    DFT Exchange-Correlation Energy =       0.0000000000000000
    Empirical Dispersion Energy =           0.0000000000000000
    PCM Polarization Energy =               0.0000000000000000
    EFP Energy =                            0.0000000000000000
    Total Energy =                       -422.9747647165343096
    Molecular point group: c1
  Basis Set: 6-31G*
  Basis Set:

  -Total Gradient:
     Atom            X                  Y                   Z
    ------   -----------------  -----------------  -----------------
       1        0.000006620764    -0.000001638572    -0.000033558299
       2       -0.000007440320    -0.000014439341     0.000077446323
       3       -0.000004678586     0.000000718124    -0.000016811853
       4       -0.000034477892    -0.000003210069    -0.000033828033
       5       -0.000003015143    -0.000004527701    -0.000001705696
       6       -0.000000328900    -0.000000228166    -0.000001676200
       7        0.000001542352     0.000003748685    -0.000001724362
       8        0.000025082028     0.000004615133     0.000041277971
       9        0.000709394507    -0.001094991313     0.000506290655
      10       -0.000001633558     0.000004376185    -0.000003672678
      11        0.000007730263     0.000007734234    -0.000013312264
      12        0.000028274664     0.000010767762     0.001393386054
      13       -0.000585494342     0.000922230162    -0.000668395581
      14        0.000002835252     0.000007749875    -0.000004774161
      15       -0.000008740057    -0.000013479549     0.000015457842
      16       -0.000130190580     0.000166254135    -0.001251130762
      17       -0.000002299688     0.000000091805    -0.000006358232
      18       -0.000001283910     0.000011176666     0.000005771822
      19       -0.000004177281    -0.000005485929     0.000000983206
      20        0.000001712599    -0.000002461980    -0.000001239492
      21        0.000003153863    -0.000000949588     0.000002867750
      22       -0.000002198623     0.000000804775    -0.000002651434
      23       -0.000000387413     0.000001144666    -0.000002642576

  **** Optimization is complete! (in 6 steps) ****
    Final optimized geometry and variables:
    Molecular point group: c1

    Geometry (in Angstrom), charge = 0, multiplicity = 1:

    O           -2.708557927022     1.154786976214     0.280912520667
    C           -2.564480402694    -0.025827566455     0.278252497523
    C           -3.704886564835    -1.010800450162     0.255805231916
    O           -1.382125776978    -0.619176865462     0.294178282441
    H           -4.306256215061    -0.826847370932    -0.626446912052
    H           -3.354891183307    -2.032538004690     0.255292721258
    H           -4.332035426970    -0.836703650402     1.121981444984
    C           -0.228504530187     0.214560998602     0.317306897702
    C            0.992961249453    -0.686984804009     0.328321115097
    H           -0.240186823862     0.857596054697    -0.553327907292
    H           -0.266600231192     0.845224100202     1.195627978404
    C            2.306082657463     0.124895129599     0.303096785191
    H            0.936462556262    -1.340719686033    -0.536596293387
    H            0.945238234280    -1.324160772354     1.204810812070
    C            3.086556398862    -0.024051638738    -1.005909764226
    H            2.090607839079     1.181178822322     0.454788804413
    H            2.942481673144    -0.172316487628     1.131246743029
    C            4.365569323833     0.810577778077    -1.035456880730
    H            2.447908661156     0.261777690989    -1.839390181990
    H            3.333753747667    -1.072365084671    -1.157308492907
    H            4.146655119193     1.868734494272    -0.923548660180
    H            4.897886279503     0.680464571191    -1.972437036221
    H            5.037802491469     0.526038794463    -0.230836005762

  Mulliken Charges: (a.u.)
   Center  Symbol    Alpha    Beta     Spin     Total
       1     O     4.28382  4.28382  0.00000 -0.56763
       2     C     2.61551  2.61551  0.00000  0.76897
       3     C     3.28777  3.28777  0.00000 -0.57554
       4     O     4.31237  4.31237  0.00000 -0.62474
       5     H     0.39749  0.39749  0.00000  0.20501
       6     H     0.39987  0.39987  0.00000  0.20027
       7     H     0.39749  0.39749  0.00000  0.20503
       8     C     3.00014  3.00014  0.00000 -0.00029
       9     C     3.16598  3.16598  0.00000 -0.33196
      10     H     0.41084  0.41084  0.00000  0.17833
      11     H     0.41006  0.41006  0.00000  0.17988
      12     C     3.16444  3.16444  0.00000 -0.32888
      13     H     0.41147  0.41147  0.00000  0.17706
      14     H     0.41151  0.41151  0.00000  0.17699
      15     C     3.15303  3.15303  0.00000 -0.30606
      16     H     0.41902  0.41902  0.00000  0.16195
      17     H     0.41638  0.41638  0.00000  0.16724
      18     C     3.24063  3.24063  0.00000 -0.48126
      19     H     0.42207  0.42207  0.00000  0.15587
      20     H     0.42071  0.42071  0.00000  0.15858
      21     H     0.42055  0.42055  0.00000  0.15890
      22     H     0.41783  0.41783  0.00000  0.16433
      23     H     0.42102  0.42102  0.00000  0.15795

   Total alpha = 36.00000, Total beta = 36.00000, Total charge =  0.00000
