  ==> Input File <==

--------------------------------------------------------------------------
set {
	reference rhf
	basis 6-31G*
}

set_num_threads( 4 )
memory 2 gb

molecule MOL {
0 1

H	 -1.836216	 1.387520	 -0.000064
C	 -1.301823	 0.443321	 -0.000031
O	 -0.003969	 0.658512	 0.000451
O	 -1.829879	 -0.616434	 -0.000857
C	 0.572587	 1.194298	 -1.190223
C	 2.057699	 1.350935	 -0.944808
H	 0.099697	 2.141404	 -1.410866
H	 0.369639	 0.519595	 -2.010517
H	 2.241783	 2.023582	 -0.114934
H	 2.536006	 1.757856	 -1.829608
H	 2.513186	 0.393994	 -0.717467

	symmetry c1
}
set optking {
	frozen_dihedral = ("
		5 3 2 4
	")
}

ee = optimize('scf')
oeprop('DIPOLE', 'QUADRUPOLE', 'MULLIKEN_CHARGES')
f=open( 'psi4out.xyz', 'w' )
f.write( "11  " )
f.write( str(ee) + "\n" )
f.write( MOL.save_string_xyz() )
f.close()
--------------------------------------------------------------------------

    Molecular point group: c1
  Charge       = 0
  Multiplicity = 1
  Basis Set: 6-31G*
  Basis Set:
  @DF-RHF Final Energy:  -266.80916179059051
    Total Energy =                       -266.8091617905903377
    Molecular point group: c1
  Basis Set: 6-31G*
  Basis Set:
  Basis Set: 6-31G*
  Basis Set:
  @DF-RHF Final Energy:  -266.81033192063467
    Total Energy =                       -266.8103319206348942
  Basis Set: 6-31G*
  Basis Set:
  Basis Set: 6-31G*
  Basis Set:
  @DF-RHF Final Energy:  -266.81022309330888
    Total Energy =                       -266.8102230933088777
  Basis Set: 6-31G*
  Basis Set:
  Basis Set: 6-31G*
  Basis Set:
  @DF-RHF Final Energy:  -266.81046871666166
    Total Energy =                       -266.8104687166614895
  Basis Set: 6-31G*
  Basis Set:
  Basis Set: 6-31G*
  Basis Set:
  @DF-RHF Final Energy:  -266.81047791265121
    Total Energy =                       -266.8104779126511517
  Basis Set: 6-31G*
  Basis Set:
  Charge       = 0
  Multiplicity = 1
  Basis Set: 6-31G*
  Basis Set:

    Orbital Energies (a.u.)
    -----------------------

    Doubly Occupied:

       1A    -20.596254     2A    -20.569814     3A    -11.381354
       4A    -11.304270     5A    -11.230535     6A     -1.468052
       7A     -1.380992     8A     -1.050584     9A     -0.886458
      10A     -0.835808    11A     -0.741057    12A     -0.690217
      13A     -0.651558    14A     -0.634398    15A     -0.565686
      16A     -0.543645    17A     -0.536963    18A     -0.505104
      19A     -0.465361    20A     -0.453591

  @DF-RHF Final Energy:  -266.81047804774164

   => Energetics <=

    Nuclear Repulsion Energy =            176.7003137359762945
    One-Electron Energy =                -714.0381799770094631
    Two-Electron Energy =                 270.5273881932915288
    DFT Exchange-Correlation Energy =       0.0000000000000000
    Empirical Dispersion Energy =           0.0000000000000000
    PCM Polarization Energy =               0.0000000000000000
    EFP Energy =                            0.0000000000000000
    Total Energy =                       -266.8104780477416966
    Molecular point group: c1
  Basis Set: 6-31G*
  Basis Set:

  -Total Gradient:
     Atom            X                  Y                   Z
    ------   -----------------  -----------------  -----------------
       1        0.000086599183     0.000029649379    -0.000017988081
       2        0.000278621936    -0.001477596734     0.005507068387
       3       -0.000615723777     0.004153544005    -0.000086972368
       4        0.000044436009     0.000155214490    -0.004048011522
       5        0.000170141830    -0.002826710202    -0.001356747249
       6       -0.000033033724    -0.000044266925     0.000044070230
       7       -0.000007020276    -0.000059013375     0.000026891821
       8        0.000103483127     0.000055794943    -0.000072005431
       9       -0.000003030208     0.000002958354     0.000001629563
      10       -0.000027793316     0.000012968235     0.000001750973
      11        0.000003319221    -0.000002542170     0.000000313677

  **** Optimization is complete! (in 6 steps) ****
    Final optimized geometry and variables:
    Molecular point group: c1

    Geometry (in Angstrom), charge = 0, multiplicity = 1:

    H           -1.727296678615     0.817624259665     0.507563198658
    C           -1.206416969016    -0.137517343625     0.444994831972
    O            0.124983444839    -0.010575655919     0.429213800270
    O           -1.771479753669    -1.168275194181     0.392151183142
    C            0.684859903437     0.555547533115    -0.748201973334
    C            2.164104466925     0.763548458174    -0.507170824022
    H            0.191401719996     1.498479373350    -0.970189490209
    H            0.513743121157    -0.121124293499    -1.577259411161
    H            2.322051953205     1.441713941571     0.323109697442
    H            2.629592780346     1.183605099283    -1.392683797518
    H            2.644067845285    -0.179934452336    -0.277166930988

  Mulliken Charges: (a.u.)
   Center  Symbol    Alpha    Beta     Spin     Total
       1     H     0.42702  0.42702  0.00000  0.14596
       2     C     2.73180  2.73180  0.00000  0.53639
       3     O     4.29826  4.29826  0.00000 -0.59651
       4     O     4.22707  4.22707  0.00000 -0.45413
       5     C     3.00630  3.00630  0.00000 -0.01259
       6     C     3.24661  3.24661  0.00000 -0.49323
       7     H     0.42199  0.42199  0.00000  0.15601
       8     H     0.41059  0.41059  0.00000  0.17883
       9     H     0.40940  0.40940  0.00000  0.18119
      10     H     0.41596  0.41596  0.00000  0.16808
      11     H     0.40500  0.40500  0.00000  0.18999

   Total alpha = 20.00000, Total beta = 20.00000, Total charge =  0.00000
