  ==> Input File <==

--------------------------------------------------------------------------
set {
	reference rhf
	basis 6-31G*
}

set_num_threads( 4 )
memory 2 gb

molecule MOL {
0 1

H	 -1.093408	 -0.276182	 -0.773293
C	 -0.790252	 0.431209	 0.000000
N	 0.538815	 0.649616	 0.000000
O	 -1.580949	 0.933115	 0.743034
C	 1.521968	 -0.411503	 0.000000
H	 0.852804	 1.592852	 0.000000
H	 2.150599	 -0.357004	 -0.881901
H	 0.999455	 -1.354525	 0.000000
H	 2.150599	 -0.357004	 0.881901

	symmetry c1
}
set optking {
	frozen_dihedral = ("
		1 2 3 6
	")
}

ee = optimize('scf')
oeprop('DIPOLE', 'QUADRUPOLE', 'MULLIKEN_CHARGES')
f=open( 'psi4out.xyz', 'w' )
f.write( "9  " )
f.write( str(ee) + "\n" )
f.write( MOL.save_string_xyz() )
f.close()
--------------------------------------------------------------------------

    Molecular point group: c1
  Charge       = 0
  Multiplicity = 1
  Basis Set: 6-31G*
  Basis Set:
  @DF-RHF Final Energy:  -207.93600324547035
    Total Energy =                       -207.9360032454703457
    Molecular point group: c1
  Basis Set: 6-31G*
  Basis Set:
  Basis Set: 6-31G*
  Basis Set:
  @DF-RHF Final Energy:  -207.94031304071649
    Total Energy =                       -207.9403130407164895
  Basis Set: 6-31G*
  Basis Set:
  Basis Set: 6-31G*
  Basis Set:
  @DF-RHF Final Energy:  -207.94464198662857
    Total Energy =                       -207.9446419866285964
  Basis Set: 6-31G*
  Basis Set:
  Basis Set: 6-31G*
  Basis Set:
  @DF-RHF Final Energy:  -207.94797571449271
    Total Energy =                       -207.9479757144927703
  Basis Set: 6-31G*
  Basis Set:
  @DF-RHF Final Energy:  -207.94836407292078
    Total Energy =                       -207.9483640729206968
  @DF-RHF Final Energy:  -207.94857342124391
    Total Energy =                       -207.9485734212438501
  @DF-RHF Final Energy:  -207.94895994922985
    Total Energy =                       -207.9489599492297884
  Basis Set: 6-31G*
  Basis Set:
  @DF-RHF Final Energy:  -207.94911339058041
    Total Energy =                       -207.9491133905804645
  Basis Set: 6-31G*
  Basis Set:
  Basis Set: 6-31G*
  Basis Set:
  @DF-RHF Final Energy:  -207.94914783387108
    Total Energy =                       -207.9491478338711374
  Basis Set: 6-31G*
  Basis Set:
  Basis Set: 6-31G*
  Basis Set:
  @DF-RHF Final Energy:  -207.94916212492211
    Total Energy =                       -207.9491621249220543
  Basis Set: 6-31G*
  Basis Set:
  Charge       = 0
  Multiplicity = 1
  Basis Set: 6-31G*
  Basis Set:

    Orbital Energies (a.u.)
    -----------------------

    Doubly Occupied:

       1A    -20.543389     2A    -15.584293     3A    -11.349968
       4A    -11.270357     5A     -1.402710     6A     -1.237624
       7A     -0.955496     8A     -0.839043     9A     -0.696116
      10A     -0.677155    11A     -0.639116    12A     -0.585344
      13A     -0.566551    14A     -0.539598    15A     -0.435321
      16A     -0.399422

  @DF-RHF Final Energy:  -207.94916269863538

   => Energetics <=

    Nuclear Repulsion Energy =            120.2868758921399888
    One-Electron Energy =                -521.0290729441647954
    Two-Electron Energy =                 192.7930343533894302
    DFT Exchange-Correlation Energy =       0.0000000000000000
    Empirical Dispersion Energy =           0.0000000000000000
    PCM Polarization Energy =               0.0000000000000000
    EFP Energy =                            0.0000000000000000
    Total Energy =                       -207.9491626986354049
    Molecular point group: c1
  Basis Set: 6-31G*
  Basis Set:

  -Total Gradient:
     Atom            X                  Y                   Z
    ------   -----------------  -----------------  -----------------
       1        0.002472927513     0.007216187127    -0.008571789799
       2       -0.002061244754    -0.010114523284     0.008260570249
       3       -0.004665490192     0.005190194173     0.011674958627
       4       -0.000044990395    -0.000019300848    -0.000002917922
       5       -0.000112042739     0.000189465188     0.000068111446
       6        0.004312475581    -0.002356621181    -0.011390024187
       7        0.000022538686    -0.000022792328    -0.000015101128
       8        0.000021647580    -0.000034054201    -0.000004296976
       9        0.000054178718    -0.000048554648    -0.000019510310

  **** Optimization is complete! (in 11 steps) ****
    Final optimized geometry and variables:
    Molecular point group: c1

    Geometry (in Angstrom), charge = 0, multiplicity = 1:

    H           -0.828611246227    -0.810105764937    -0.898562352349
    C           -0.683541355375    -0.002724538589    -0.176348431281
    N            0.604737659152     0.109041166735     0.292374085692
    O           -1.559381042525     0.757563552709     0.083890190189
    C            1.582160266458    -0.868768696121    -0.156411525182
    H            0.945388326760     1.046351806726     0.230186153310
    H            1.820450224151    -0.792175677220    -1.215697731714
    H            1.215095670369    -1.867479671824     0.041971174435
    H            2.494047501854    -0.738009544149     0.410472398819

  Mulliken Charges: (a.u.)
   Center  Symbol    Alpha    Beta     Spin     Total
       1     H     0.42922  0.42922  0.00000  0.14156
       2     C     2.75155  2.75155  0.00000  0.49690
       3     N     3.85759  3.85759  0.00000 -0.71518
       4     O     4.26384  4.26384  0.00000 -0.52767
       5     C     3.15888  3.15888  0.00000 -0.31776
       6     H     0.30884  0.30884  0.00000  0.38232
       7     H     0.41909  0.41909  0.00000  0.16182
       8     H     0.40712  0.40712  0.00000  0.18577
       9     H     0.40387  0.40387  0.00000  0.19225

   Total alpha = 16.00000, Total beta = 16.00000, Total charge =  0.00000
