  ==> Input File <==

--------------------------------------------------------------------------
set {
	reference rhf
	basis 6-31G*
}

set_num_threads( 4 )
memory 2 gb

molecule MOL {
0 1

O	 2.862325	 1.357334	 0.000267
C	 2.843464	 0.164689	 -0.000222
C	 1.546494	 -0.624492	 -0.000609
C	 4.124123	 -0.644674	 -0.000428
C	 0.291004	 0.242674	 0.000989
H	 1.557904	 -1.283758	 -0.867573
H	 1.558622	 -1.285963	 0.864672
C	 -0.924417	 -0.486454	 0.576218
H	 0.081192	 0.566711	 -1.013461
H	 0.483412	 1.146185	 0.570896
C	 -2.189673	 0.373098	 0.581593
H	 -1.109588	 -1.393244	 0.002205
H	 -0.706601	 -0.810059	 1.593028
C	 -3.409871	 -0.349305	 1.155409
H	 -2.408769	 0.696574	 -0.434467
H	 -2.006008	 1.279456	 1.155856
C	 -4.669842	 0.515653	 1.157210
H	 -3.595176	 -1.254868	 0.581438
H	 -3.192609	 -0.671817	 2.171599
H	 -4.933229	 0.826613	 0.150194
H	 -5.517285	 -0.023834	 1.568907
H	 -4.528228	 1.413229	 1.752564
H	 4.165367	 -1.288615	 -0.874074
H	 4.976217	 0.020734	 -0.001915
H	 4.166763	 -1.286207	 0.874930

	symmetry c1
}
set optking {
	frozen_dihedral = ("
		9 5 3 6
	")
}

ee = optimize('scf')
oeprop('DIPOLE', 'QUADRUPOLE', 'MULLIKEN_CHARGES')
f=open( 'psi4out.xyz', 'w' )
f.write( "25  " )
f.write( str(ee) + "\n" )
f.write( MOL.save_string_xyz() )
f.close()
--------------------------------------------------------------------------

    Molecular point group: c1
  Charge       = 0
  Multiplicity = 1
  Basis Set: 6-31G*
  Basis Set:
  @DF-RHF Final Energy:  -387.13478722117446
    Total Energy =                       -387.1347872211742924
    Molecular point group: c1
  Basis Set: 6-31G*
  Basis Set:
  Basis Set: 6-31G*
  Basis Set:
  @DF-RHF Final Energy:  -387.13496334060164
    Total Energy =                       -387.1349633406015300
  Basis Set: 6-31G*
  Basis Set:
  Basis Set: 6-31G*
  Basis Set:
  @DF-RHF Final Energy:  -387.13497904258770
    Total Energy =                       -387.1349790425871333
  Basis Set: 6-31G*
  Basis Set:
  Basis Set: 6-31G*
  Basis Set:
  @DF-RHF Final Energy:  -387.13488476312915
    Total Energy =                       -387.1348847631293211
  Basis Set: 6-31G*
  Basis Set:
  Basis Set: 6-31G*
  Basis Set:
  @DF-RHF Final Energy:  -387.13501208610597
    Total Energy =                       -387.1350120861051209
  Basis Set: 6-31G*
  Basis Set:
  Basis Set: 6-31G*
  Basis Set:
  @DF-RHF Final Energy:  -387.13501316340376
    Total Energy =                       -387.1350131634031868
  Basis Set: 6-31G*
  Basis Set:
  Charge       = 0
  Multiplicity = 1
  Basis Set: 6-31G*
  Basis Set:

    Orbital Energies (a.u.)
    -----------------------

    Doubly Occupied:

       1A    -20.550522     2A    -11.326389     3A    -11.232077
       4A    -11.228349     5A    -11.216754     6A    -11.216124
       7A    -11.215236     8A    -11.213293     9A    -11.208219
      10A     -1.395878    11A     -1.093086    12A     -1.056001
      13A     -1.014446    14A     -0.968811    15A     -0.890782
      16A     -0.814018    17A     -0.790577    18A     -0.729179
      19A     -0.663334    20A     -0.649333    21A     -0.632419
      22A     -0.623809    23A     -0.595954    24A     -0.583939
      25A     -0.567961    26A     -0.559575    27A     -0.538990
      28A     -0.525903    29A     -0.513751    30A     -0.491662
      31A     -0.485800    32A     -0.473235    33A     -0.463616
      34A     -0.461943    35A     -0.449508    36A     -0.399220

  @DF-RHF Final Energy:  -387.13501359403892

   => Energetics <=

    Nuclear Repulsion Energy =            438.4209903254717346
    One-Electron Energy =               -1393.4326192287749109
    Two-Electron Energy =                 567.8766153092641389
    DFT Exchange-Correlation Energy =       0.0000000000000000
    Empirical Dispersion Energy =           0.0000000000000000
    PCM Polarization Energy =               0.0000000000000000
    EFP Energy =                            0.0000000000000000
    Total Energy =                       -387.1350135940390373
    Molecular point group: c1
  Basis Set: 6-31G*
  Basis Set:

  -Total Gradient:
     Atom            X                  Y                   Z
    ------   -----------------  -----------------  -----------------
       1       -0.000000247688    -0.000014358957     0.000028677504
       2       -0.000005304622     0.000035260450    -0.000072991293
       3       -0.002467978923    -0.003560202630     0.002087021554
       4        0.000007394858    -0.000005038135     0.000036237618
       5        0.002754583471     0.003869923245     0.000096070927
       6        0.001605027267     0.002341452737    -0.001746175932
       7       -0.000011971328     0.000004315026     0.000001745760
       8       -0.000007618506    -0.000021556296    -0.000009589434
       9       -0.001897379382    -0.002664758981    -0.000460445454
      10        0.000007069110    -0.000011178936     0.000000319438
      11        0.000006446897     0.000013360651     0.000022107094
      12        0.000009891277    -0.000019178798     0.000013439760
      13       -0.000001197245     0.000024361240     0.000000023148
      14       -0.000001500209     0.000002013805     0.000001204291
      15        0.000006639788     0.000014705113     0.000008842761
      16       -0.000001497501    -0.000003548118     0.000017856499
      17       -0.000006643574    -0.000009346446    -0.000022798373
      18        0.000004572483    -0.000008476550     0.000008347338
      19       -0.000002481266     0.000012784890     0.000001886241
      20       -0.000003945481     0.000006517962    -0.000001483978
      21       -0.000001974796    -0.000002020359    -0.000006057005
      22        0.000004224566    -0.000006858639     0.000001456553
      23       -0.000007661340     0.000011367159    -0.000001779291
      24        0.000004251116     0.000000217275    -0.000001477032
      25        0.000007301023    -0.000009756708    -0.000002438692

  **** Optimization is complete! (in 7 steps) ****
    Final optimized geometry and variables:
    Molecular point group: c1

    Geometry (in Angstrom), charge = 0, multiplicity = 1:

    O            2.845255312656     1.286351939191    -0.430633871307
    C            2.806571487789     0.094587259926    -0.405908805328
    C            1.499381930905    -0.680039099089    -0.350619035903
    C            4.074448488272    -0.734780341854    -0.433753260695
    C            0.249906811142     0.201516578982    -0.321480616143
    H            1.489612814668    -1.330302074307    -1.223795133664
    H            1.539232760406    -1.337506805358     0.515827820816
    C           -0.973206794593    -0.540166505139     0.225125349853
    H            0.028626917419     0.536836486706    -1.330649063129
    H            0.443139920645     1.087197311220     0.271413503754
    C           -2.244915884670     0.309272882069     0.206932516727
    H           -1.139382832828    -1.447739925697    -0.353786327464
    H           -0.772331724730    -0.863265770668     1.245488895626
    C           -3.469522140460    -0.421627625617     0.760316845134
    H           -2.449173879737     0.629525062819    -0.813339718248
    H           -2.078054865356     1.217979905862     0.782658358712
    C           -4.737362555562     0.431304959428     0.732429040199
    H           -3.634840181468    -1.331975258729     0.187748497406
    H           -3.269496026585    -0.736622362941     1.782337240849
    H           -4.983890694127     0.734142167981    -0.281332770012
    H           -5.587625277338    -0.113897020571     1.130543661940
    H           -4.615845480745     1.333459351731     1.325260131226
    H            4.078834294111    -1.391105777321    -1.299131414910
    H            4.935965019053    -0.082748573142    -0.471520682559
    H            4.134960807413    -1.364975997691     0.448728304451

  Mulliken Charges: (a.u.)
   Center  Symbol    Alpha    Beta     Spin     Total
       1     O     4.26067  4.26067  0.00000 -0.52133
       2     C     2.73752  2.73752  0.00000  0.52496
       3     C     3.21114  3.21114  0.00000 -0.42227
       4     C     3.28677  3.28677  0.00000 -0.57354
       5     C     3.14975  3.14975  0.00000 -0.29951
       6     H     0.40889  0.40889  0.00000  0.18221
       7     H     0.40945  0.40945  0.00000  0.18110
       8     C     3.15495  3.15495  0.00000 -0.30990
       9     H     0.41721  0.41721  0.00000  0.16558
      10     H     0.40376  0.40376  0.00000  0.19249
      11     C     3.15095  3.15095  0.00000 -0.30190
      12     H     0.42527  0.42527  0.00000  0.14946
      13     H     0.42436  0.42436  0.00000  0.15127
      14     C     3.15144  3.15144  0.00000 -0.30288
      15     H     0.42327  0.42327  0.00000  0.15346
      16     H     0.42187  0.42187  0.00000  0.15627
      17     C     3.23932  3.23932  0.00000 -0.47865
      18     H     0.42370  0.42370  0.00000  0.15260
      19     H     0.42334  0.42334  0.00000  0.15332
      20     H     0.42160  0.42160  0.00000  0.15679
      21     H     0.41955  0.41955  0.00000  0.16090
      22     H     0.42120  0.42120  0.00000  0.15760
      23     H     0.40875  0.40875  0.00000  0.18251
      24     H     0.39642  0.39642  0.00000  0.20716
      25     H     0.40885  0.40885  0.00000  0.18230

   Total alpha = 36.00000, Total beta = 36.00000, Total charge =  0.00000
