  ==> Input File <==

--------------------------------------------------------------------------
set {
	reference rhf
	basis cc-pvtz
}

set_num_threads( 4 )
memory 2 gb

molecule MOL {
0 1

H	 -3.941973	 0.934228	 -0.390224
C	 -3.240162	 0.342701	 0.161016
C	 -2.105997	 -0.000418	 -0.398703
H	 -3.485368	 0.047206	 1.162193
O	 -1.189946	 -0.765863	 0.237511
H	 -1.846458	 0.297311	 -1.398265
C	 0.026572	 -0.995256	 -0.379403
C	 1.057223	 0.049888	 -0.004615
H	 -0.054361	 -1.010670	 -1.459674
H	 0.397526	 -1.952058	 -0.044198
F	 2.135641	 -0.545504	 0.464004
F	 1.419939	 0.775498	 -1.040681
F	 0.615754	 0.868343	 0.919341

	symmetry c1
}
set optking {
	frozen_dihedral = ("
		11 8 7 9
	")
}

ee = optimize('scf')
oeprop('DIPOLE', 'QUADRUPOLE', 'MULLIKEN_CHARGES')
f=open( 'psi4out.xyz', 'w' )
f.write( "13  " )
f.write( str(ee) + "\n" )
f.write( MOL.save_string_xyz() )
f.close()
--------------------------------------------------------------------------

    Molecular point group: c1
  Charge       = 0
  Multiplicity = 1
  Basis Set: CC-PVTZ
  Basis Set:
  @DF-RHF Final Energy:  -527.73482932549837
    Total Energy =                       -527.7348293254982536
    Molecular point group: c1
  Basis Set: CC-PVTZ
  Basis Set:
  Basis Set: CC-PVTZ
  Basis Set:
  @DF-RHF Final Energy:  -527.73541003984906
    Total Energy =                       -527.7354100398492847
  Basis Set: CC-PVTZ
  Basis Set:
  Basis Set: CC-PVTZ
  Basis Set:
  @DF-RHF Final Energy:  -527.73565578014814
    Total Energy =                       -527.7356557801483632
  Basis Set: CC-PVTZ
  Basis Set:
  Basis Set: CC-PVTZ
  Basis Set:
  @DF-RHF Final Energy:  -527.73568853958977
    Total Energy =                       -527.7356885395900008
  Basis Set: CC-PVTZ
  Basis Set:
  Basis Set: CC-PVTZ
  Basis Set:
  @DF-RHF Final Energy:  -527.73571173666664
    Total Energy =                       -527.7357117366664170
  Basis Set: CC-PVTZ
  Basis Set:
  Basis Set: CC-PVTZ
  Basis Set:
  @DF-RHF Final Energy:  -527.73571543232561
    Total Energy =                       -527.7357154323256054
  Basis Set: CC-PVTZ
  Basis Set:
  Charge       = 0
  Multiplicity = 1
  Basis Set: CC-PVTZ
  Basis Set:

    Orbital Energies (a.u.)
    -----------------------

    Doubly Occupied:

       1A    -26.339725     2A    -26.339144     3A    -26.338931
       4A    -20.602768     5A    -11.499452     6A    -11.319794
       7A    -11.298176     8A    -11.214832     9A     -1.750421
      10A     -1.645915    11A     -1.644668    12A     -1.443723
      13A     -1.083672    14A     -1.019176    15A     -0.932272
      16A     -0.843393    17A     -0.837512    18A     -0.827669
      19A     -0.797471    20A     -0.728957    21A     -0.723090
      22A     -0.701096    23A     -0.680444    24A     -0.668396
      25A     -0.662129    26A     -0.649650    27A     -0.634658
      28A     -0.587223    29A     -0.565475    30A     -0.527888
      31A     -0.516400    32A     -0.357407

  @DF-RHF Final Energy:  -527.73571654977263

   => Energetics <=

    Nuclear Repulsion Energy =            413.4438612050196866
    One-Electron Energy =               -1550.7961087798016706
    Two-Electron Energy =                 609.6165310250097491
    DFT Exchange-Correlation Energy =       0.0000000000000000
    Empirical Dispersion Energy =           0.0000000000000000
    PCM Polarization Energy =               0.0000000000000000
    EFP Energy =                            0.0000000000000000
    Total Energy =                       -527.7357165497722917
    Molecular point group: c1
  Basis Set: CC-PVTZ
  Basis Set:

  -Total Gradient:
     Atom            X                  Y                   Z
    ------   -----------------  -----------------  -----------------
       1       -0.000014444658    -0.000019751338    -0.000014154118
       2        0.000005094394    -0.000005625988     0.000002760141
       3        0.000036255644     0.000085870426     0.000059548888
       4        0.000001198798     0.000003617726    -0.000002751515
       5       -0.000083413857    -0.000023966902     0.000006733374
       6       -0.000010288853    -0.000028068694    -0.000014817800
       7        0.001624092074    -0.001592431707     0.000366818873
       8        0.000426387220     0.000128540720    -0.001857863640
       9       -0.001447494227     0.001323408956     0.000048737056
      10        0.000003937730    -0.000007293984    -0.000015208551
      11       -0.000638532226     0.000127558620     0.001542011363
      12        0.000046607089     0.000052395289    -0.000102699171
      13        0.000050600878    -0.000044253117    -0.000019114902

  **** Optimization is complete! (in 7 steps) ****
    Final optimized geometry and variables:
    Molecular point group: c1

    Geometry (in Angstrom), charge = 0, multiplicity = 1:

    H           -3.863856322039     1.015115622984    -0.350894161847
    C           -3.209079941762     0.346723075208     0.169582411335
    C           -2.065082323550     0.010127940694    -0.373689121151
    H           -3.509110593029    -0.031157489759     1.127205988019
    O           -1.206758692390    -0.849991806293     0.219667866193
    H           -1.752979946115     0.389288354684    -1.330829561903
    C            0.032372919045    -1.037855391986    -0.365274353781
    C            1.048210031379     0.061159668847    -0.008388568004
    H           -0.045812255367    -1.075895038547    -1.444452196404
    H            0.418994673064    -1.975458246328    -0.001924931846
    F            2.154492831805    -0.466378347317     0.474961118420
    F            1.387609447857     0.763701245318    -1.073076174985
    F            0.586992582199     0.898826095382     0.884255880147

  Mulliken Charges: (a.u.)
   Center  Symbol    Alpha    Beta     Spin     Total
       1     H     0.42535  0.42535  0.00000  0.14930
       2     C     3.19493  3.19493  0.00000 -0.38986
       3     C     2.96037  2.96037  0.00000  0.07927
       4     H     0.42479  0.42479  0.00000  0.15042
       5     O     4.13898  4.13898  0.00000 -0.27796
       6     H     0.43412  0.43412  0.00000  0.13175
       7     C     3.03289  3.03289  0.00000 -0.06578
       8     C     2.67328  2.67328  0.00000  0.65344
       9     H     0.45516  0.45516  0.00000  0.08967
      10     H     0.43383  0.43383  0.00000  0.13234
      11     F     4.61054  4.61054  0.00000 -0.22108
      12     F     4.61328  4.61328  0.00000 -0.22656
      13     F     4.60247  4.60247  0.00000 -0.20494

   Total alpha = 32.00000, Total beta = 32.00000, Total charge = -0.00000
