  ==> Input File <==

--------------------------------------------------------------------------
set {
	reference rhf
	basis cc-pvtz
}

set_num_threads( 4 )
memory 2 gb

molecule MOL {
0 1

H	 -1.796622	 -0.057157	 2.228123
C	 -1.296621	 -0.061542	 1.282652
C	 -1.937272	 0.400694	 0.088894
C	 -0.040931	 -0.503692	 1.178834
H	 -2.947070	 0.762632	 0.138535
C	 -1.289455	 0.384382	 -1.080142
H	 0.504820	 -0.865574	 2.027562
N	 0.640204	 -0.530428	 -0.000115
H	 -1.736767	 0.722045	 -1.992204
C	 0.079606	 -0.098245	 -1.189559
C	 2.006991	 -1.033007	 -0.000020
O	 0.694411	 -0.128502	 -2.220745
H	 2.182444	 -1.636914	 -0.880881
H	 2.678769	 -0.195442	 -0.002236
H	 2.183828	 -1.633244	 0.883082

	symmetry c1
}
set optking {
	frozen_dihedral = ("
		10 8 11 13
	")
}

ee = optimize('scf')
oeprop('DIPOLE', 'QUADRUPOLE', 'MULLIKEN_CHARGES')
f=open( 'psi4out.xyz', 'w' )
f.write( "15  " )
f.write( str(ee) + "\n" )
f.write( MOL.save_string_xyz() )
f.close()
--------------------------------------------------------------------------

    Molecular point group: c1
  Charge       = 0
  Multiplicity = 1
  Basis Set: CC-PVTZ
  Basis Set:
  @DF-RHF Final Energy:  -360.72257700986756
    Total Energy =                       -360.7225770098675071
    Molecular point group: c1
  Basis Set: CC-PVTZ
  Basis Set:
  Basis Set: CC-PVTZ
  Basis Set:
  @DF-RHF Final Energy:  -360.72320204249814
    Total Energy =                       -360.7232020424978600
  Basis Set: CC-PVTZ
  Basis Set:
  Basis Set: CC-PVTZ
  Basis Set:
  @DF-RHF Final Energy:  -360.72327430912924
    Total Energy =                       -360.7232743091292946
  Basis Set: CC-PVTZ
  Basis Set:
  Basis Set: CC-PVTZ
  Basis Set:
  @DF-RHF Final Energy:  -360.72325249546060
    Total Energy =                       -360.7232524954605992
  Basis Set: CC-PVTZ
  Basis Set:
  Charge       = 0
  Multiplicity = 1
  Basis Set: CC-PVTZ
  Basis Set:

    Orbital Energies (a.u.)
    -----------------------

    Doubly Occupied:

       1A    -20.501964     2A    -15.617577     3A    -11.338028
       4A    -11.294299     5A    -11.265470     6A    -11.258137
       7A    -11.229727     8A    -11.227897     9A     -1.391170
      10A     -1.285858    11A     -1.118814    12A     -1.029231
      13A     -0.972579    14A     -0.876405    15A     -0.838903
      16A     -0.719538    17A     -0.702253    18A     -0.663933
      19A     -0.653008    20A     -0.626083    21A     -0.611935
      22A     -0.575549    23A     -0.553242    24A     -0.550882
      25A     -0.530949    26A     -0.484394    27A     -0.420596
      28A     -0.410485    29A     -0.310245

  @DF-RHF Final Energy:  -360.72330189740205

   => Energetics <=

    Nuclear Repulsion Energy =            358.7809102058691906
    One-Electron Energy =               -1200.8901265509878158
    Two-Electron Energy =                 481.3859144477167433
    DFT Exchange-Correlation Energy =       0.0000000000000000
    Empirical Dispersion Energy =           0.0000000000000000
    PCM Polarization Energy =               0.0000000000000000
    EFP Energy =                            0.0000000000000000
    Total Energy =                       -360.7233018974018819
    Molecular point group: c1
  Basis Set: CC-PVTZ
  Basis Set:

  -Total Gradient:
     Atom            X                  Y                   Z
    ------   -----------------  -----------------  -----------------
       1       -0.000006322576    -0.000000400100     0.000002394615
       2        0.000195351807    -0.000040706594     0.000026872640
       3       -0.000047114331     0.000044006542    -0.000176520271
       4       -0.000233371785    -0.000008345605     0.000207922755
       5        0.000006000882     0.000000283206     0.000009647707
       6       -0.000168667275     0.000042947664     0.000078698150
       7        0.000018234378     0.000017898413    -0.000023434413
       8        0.000471651592     0.001238519941    -0.000172038753
       9        0.000013317487     0.000002084152    -0.000014935032
      10       -0.000054660524    -0.000839537983     0.000062206252
      11       -0.000455860939    -0.001316847072     0.000461253705
      12       -0.000037231475     0.000049678156    -0.000060008698
      13        0.000262184402     0.000782993055    -0.000409782049
      14        0.000019289452     0.000034510476    -0.000006363884
      15        0.000017198902    -0.000007084250     0.000014087264

  **** Optimization is complete! (in 5 steps) ****
    Final optimized geometry and variables:
    Molecular point group: c1

    Geometry (in Angstrom), charge = 0, multiplicity = 1:

    H           -1.733792666365     0.171086912758     2.493136090695
    C           -1.228360451661     0.160282008854     1.550620575685
    C           -1.863083373078     0.612260568884     0.350682517145
    C            0.027565315066    -0.287474930624     1.458581727978
    H           -2.873717342600     0.972818107143     0.393273659872
    C           -1.210280454959     0.588039579252    -0.816319613879
    H            0.564928383154    -0.644995251240     2.313528052908
    N            0.710633662237    -0.324722426707     0.282676492139
    H           -1.652830569703     0.919510532284    -1.733081164317
    C            0.161277318737     0.113919100243    -0.908198148294
    C            2.080483650508    -0.814167406283     0.247617989562
    O            0.803218739994     0.092231219835    -1.923134161876
    H            2.230115834450    -1.395050082957    -0.646208256797
    H            2.782007223906     0.009904236162     0.233762937484
    H            2.261246584528    -1.424810994324     1.119136835951

  Mulliken Charges: (a.u.)
   Center  Symbol    Alpha    Beta     Spin     Total
       1     H     0.41393  0.41393  0.00000  0.17214
       2     C     3.10583  3.10583  0.00000 -0.21167
       3     C     3.06018  3.06018  0.00000 -0.12035
       4     C     3.03648  3.03648  0.00000 -0.07296
       5     H     0.41842  0.41842  0.00000  0.16316
       6     C     3.11830  3.11830  0.00000 -0.23659
       7     H     0.42035  0.42035  0.00000  0.15929
       8     N     3.50942  3.50942  0.00000 -0.01884
       9     H     0.40921  0.40921  0.00000  0.18159
      10     C     2.84536  2.84536  0.00000  0.30927
      11     C     3.09497  3.09497  0.00000 -0.18994
      12     O     4.23600  4.23600  0.00000 -0.47200
      13     H     0.43143  0.43143  0.00000  0.13713
      14     H     0.44503  0.44503  0.00000  0.10995
      15     H     0.45509  0.45509  0.00000  0.08982

   Total alpha = 29.00000, Total beta = 29.00000, Total charge =  0.00000
