  ==> Input File <==

--------------------------------------------------------------------------
set {
	reference rhf
	basis 6-31G*
}

set_num_threads( 4 )
memory 2 gb

molecule MOL {
0 1

H	 -3.420663	 1.227371	 -1.044276
O	 -3.452007	 0.283848	 -0.965577
C	 -3.181085	 -0.079926	 0.364119
C	 -1.765924	 0.277073	 0.805136
H	 -3.327791	 -1.152017	 0.410903
H	 -3.905698	 0.375695	 1.036898
C	 -0.677594	 -0.417312	 -0.014550
H	 -1.637766	 1.358238	 0.744969
H	 -1.659588	 0.017670	 1.857098
C	 0.738335	 -0.034840	 0.421385
H	 -0.814977	 -0.178223	 -1.064632
H	 -0.802730	 -1.495410	 0.071702
C	 1.822265	 -0.738362	 -0.399735
H	 0.853533	 1.043532	 0.342250
H	 0.871597	 -0.279636	 1.474438
C	 3.258060	 -0.455774	 0.057203
H	 1.718003	 -0.459167	 -1.447053
H	 1.651028	 -1.811884	 -0.354513
C	 4.033305	 -1.691244	 0.518735
H	 3.224371	 0.259622	 0.875350
H	 3.802581	 0.031898	 -0.748945
H	 3.505840	 -2.206968	 1.316825
H	 5.012236	 -1.412991	 0.897030
H	 4.186673	 -2.399909	 -0.288381

	symmetry c1
}
set optking {
	frozen_dihedral = ("
		20 16 13 17
	")
}

ee = optimize('scf')
oeprop('DIPOLE', 'QUADRUPOLE', 'MULLIKEN_CHARGES')
f=open( 'psi4out.xyz', 'w' )
f.write( "24  " )
f.write( str(ee) + "\n" )
f.write( MOL.save_string_xyz() )
f.close()
--------------------------------------------------------------------------

    Molecular point group: c1
  Charge       = 0
  Multiplicity = 1
  Basis Set: 6-31G*
  Basis Set:
  @DF-RHF Final Energy:  -349.24313512653248
    Total Energy =                       -349.2431351265327635
    Molecular point group: c1
  Basis Set: 6-31G*
  Basis Set:
  Basis Set: 6-31G*
  Basis Set:
  @DF-RHF Final Energy:  -349.24354942491362
    Total Energy =                       -349.2435494249135104
  Basis Set: 6-31G*
  Basis Set:
  Basis Set: 6-31G*
  Basis Set:
  @DF-RHF Final Energy:  -349.24364282769756
    Total Energy =                       -349.2436428276975562
  Basis Set: 6-31G*
  Basis Set:
  Basis Set: 6-31G*
  Basis Set:
  @DF-RHF Final Energy:  -349.24364524595535
    Total Energy =                       -349.2436452459553493
  Basis Set: 6-31G*
  Basis Set:
  Charge       = 0
  Multiplicity = 1
  Basis Set: 6-31G*
  Basis Set:

    Orbital Energies (a.u.)
    -----------------------

    Doubly Occupied:

       1A    -20.553600     2A    -11.267725     3A    -11.217531
       4A    -11.213369     5A    -11.213157     6A    -11.211075
       7A    -11.210926     8A    -11.207702     9A     -1.360199
      10A     -1.087385    11A     -1.047434    12A     -0.987646
      13A     -0.913341    14A     -0.843388    15A     -0.798526
      16A     -0.787020    17A     -0.678900    18A     -0.654471
      19A     -0.626168    20A     -0.614968    21A     -0.595257
      22A     -0.585797    23A     -0.555215    24A     -0.536622
      25A     -0.524611    26A     -0.507323    27A     -0.493672
      28A     -0.473301    29A     -0.466278    30A     -0.459552
      31A     -0.455608    32A     -0.451794    33A     -0.418013

  @DF-RHF Final Energy:  -349.24364525454837

   => Energetics <=

    Nuclear Repulsion Energy =            381.3262646822799979
    One-Electron Energy =               -1229.1046759355854192
    Two-Electron Energy =                 498.5347659987571092
    DFT Exchange-Correlation Energy =       0.0000000000000000
    Empirical Dispersion Energy =           0.0000000000000000
    PCM Polarization Energy =               0.0000000000000000
    EFP Energy =                            0.0000000000000000
    Total Energy =                       -349.2436452545483121
    Molecular point group: c1
  Basis Set: 6-31G*
  Basis Set:

  -Total Gradient:
     Atom            X                  Y                   Z
    ------   -----------------  -----------------  -----------------
       1       -0.000000106391     0.000000276038    -0.000000316618
       2        0.000000835673     0.000000193311     0.000000483522
       3        0.000001443078     0.000000557476    -0.000002582917
       4        0.000005726292    -0.000004331871     0.000001799717
       5        0.000001754572    -0.000000031088     0.000000340305
       6        0.000001426575     0.000000802587     0.000000754297
       7       -0.000008388818    -0.000016953471     0.000005207778
       8       -0.000000062250     0.000000857249    -0.000000467652
       9       -0.000002839009     0.000000820291     0.000002023497
      10       -0.000004794168    -0.000002278025    -0.000024879273
      11        0.000006899581    -0.000001643949    -0.000000124359
      12       -0.000005842521    -0.000000758342     0.000000185570
      13        0.000013838220    -0.000104476477    -0.000050835894
      14       -0.000003336536    -0.000000696605    -0.000014441792
      15        0.000019125333    -0.000000697720    -0.000004242687
      16       -0.000004512693    -0.000079364123     0.000136354761
      17       -0.000050686293     0.000091704224     0.000031920509
      18       -0.000039316768     0.000010711523    -0.000016603042
      19        0.000018936923     0.000034639466    -0.000011001334
      20        0.000044276672     0.000070205808    -0.000053634662
      21        0.000016496787    -0.000016507769     0.000008215858
      22       -0.000010232952     0.000012486865    -0.000003930120
      23       -0.000000896507    -0.000003452435     0.000000954536
      24        0.000000255213     0.000007937037    -0.000005179999

  **** Optimization is complete! (in 5 steps) ****
    Final optimized geometry and variables:
    Molecular point group: c1

    Geometry (in Angstrom), charge = 0, multiplicity = 1:

    H           -3.437893734631     1.616465799605    -1.120282196459
    O           -3.485557746300     0.672614667020    -1.055321422558
    C           -3.228152907562     0.285448651165     0.270461137583
    C           -1.809525442224     0.611911299027     0.723827806430
    H           -3.393183928466    -0.784469289715     0.301039271799
    H           -3.948573597704     0.743644281228     0.945918365242
    C           -0.728672609220    -0.087940180745    -0.101195015378
    H           -1.663001938206     1.691532409003     0.680661047664
    H           -1.712912410339     0.334884853136     1.772224237356
    C            0.690364513961     0.267435467447     0.343911654590
    H           -0.858894572745     0.166464690019    -1.148600076600
    H           -0.869921051371    -1.165215350860    -0.029274859111
    C            1.774629174281    -0.436006626561    -0.476304925886
    H            0.832060206090     1.344917395800     0.273851725770
    H            0.816557465608     0.013084371283     1.395554887954
    C            3.212346104437    -0.093001575790    -0.023152428829
    H            1.643767370632    -0.178467013876    -1.524124025890
    H            1.618264338630    -1.510650153082    -0.413807781068
    C            4.012621797295    -1.311803747063     0.437606347272
    H            3.176956445431     0.630327879789     0.787679252222
    H            3.748905009613     0.395534267406    -0.831488477400
    H            3.523776326124    -1.806851923654     1.272364232499
    H            5.011467795425    -1.030617018047     0.757593926896
    H            4.113197512159    -2.039166370345    -0.362956937696

  Mulliken Charges: (a.u.)
   Center  Symbol    Alpha    Beta     Spin     Total
       1     H     0.28338  0.28338  0.00000  0.43323
       2     O     4.36829  4.36829  0.00000 -0.73659
       3     C     2.99613  2.99613  0.00000  0.00775
       4     C     3.16902  3.16902  0.00000 -0.33804
       5     H     0.41633  0.41633  0.00000  0.16734
       6     H     0.42815  0.42815  0.00000  0.14370
       7     C     3.15283  3.15283  0.00000 -0.30566
       8     H     0.42822  0.42822  0.00000  0.14356
       9     H     0.42235  0.42235  0.00000  0.15530
      10     C     3.15370  3.15370  0.00000 -0.30739
      11     H     0.41204  0.41204  0.00000  0.17591
      12     H     0.42346  0.42346  0.00000  0.15308
      13     C     3.15492  3.15492  0.00000 -0.30984
      14     H     0.42453  0.42453  0.00000  0.15094
      15     H     0.42497  0.42497  0.00000  0.15005
      16     C     3.15515  3.15515  0.00000 -0.31031
      17     H     0.42040  0.42040  0.00000  0.15921
      18     H     0.42077  0.42077  0.00000  0.15845
      19     C     3.23958  3.23958  0.00000 -0.47915
      20     H     0.42067  0.42067  0.00000  0.15866
      21     H     0.42040  0.42040  0.00000  0.15920
      22     H     0.42246  0.42246  0.00000  0.15507
      23     H     0.42097  0.42097  0.00000  0.15806
      24     H     0.42127  0.42127  0.00000  0.15746

   Total alpha = 33.00000, Total beta = 33.00000, Total charge =  0.00000
