                              Psi4 1.0.54 Driver

  ==> Input File <==

--------------------------------------------------------------------------
set {
	reference rhf
	basis cc-pvtz
}

set_num_threads( 4 )
memory 2 gb

molecule MOL {
0 1

H	 -0.366580	 2.045936	 -0.305741
C	 0.351829	 1.335402	 0.083179
N	 -0.000018	 0.000080	 -0.334836
H	 1.327156	 1.599860	 -0.305475
H	 0.380566	 1.445403	 1.171445
C	 -0.018139	 -0.924973	 0.772561
C	 -1.235996	 -0.024696	 -1.079138
H	 -0.216285	 -1.927074	 0.413921
H	 0.945991	 -0.931056	 1.265111
H	 -0.777842	 -0.677037	 1.519855
H	 -1.162244	 0.627221	 -1.940385
H	 -1.432992	 -1.027814	 -1.435610
H	 -2.095862	 0.297626	 -0.484286

	symmetry c1
}
set optking {
	frozen_dihedral = ("
		6 3 2 1
	")
}

ee,wfn = optimize('scf', return_wfn=True)
oeprop( wfn, 'DIPOLE', 'QUADRUPOLE', 'MULLIKEN_CHARGES')
f=open( 'psi4out.xyz', 'w' )
f.write( "13  " )
f.write( str(ee) + "\n" )
f.write( MOL.save_string_xyz() )
f.close()
--------------------------------------------------------------------------

    Molecular point group: c1
  Charge       = 0
  Multiplicity = 1
  Basis Set: CC-PVTZ
  Basis Set:
  @DF-RHF Final Energy:  -173.32704742096280
    Total Energy =                       -173.3270474209627992
    Molecular point group: c1
  Basis Set: CC-PVTZ
  Basis Set:
  Basis Set: CC-PVTZ
  Basis Set:
  @DF-RHF Final Energy:  -173.32756173457275
    Total Energy =                       -173.3275617345728676
  Basis Set: CC-PVTZ
  Basis Set:
  Basis Set: CC-PVTZ
  Basis Set:
  @DF-RHF Final Energy:  -173.32770585969288
    Total Energy =                       -173.3277058596930260
  Basis Set: CC-PVTZ
  Basis Set:
  Basis Set: CC-PVTZ
  Basis Set:
  @DF-RHF Final Energy:  -173.32770806738267
    Total Energy =                       -173.3277080673825878
  Basis Set: CC-PVTZ
  Basis Set:
  Charge       = 0
  Multiplicity = 1
  Basis Set: CC-PVTZ
  Basis Set:

    Orbital Energies (a.u.)
    -----------------------

    Doubly Occupied:

       1A    -15.535829     2A    -11.233902     3A    -11.233860
       4A    -11.233718     5A     -1.221353     6A     -0.951817
       7A     -0.951275     8A     -0.807106     9A     -0.638927
      10A     -0.629225    11A     -0.627495    12A     -0.550761
      13A     -0.547418    14A     -0.513730    15A     -0.501422
      16A     -0.499357    17A     -0.342934

  @DF-RHF Final Energy:  -173.32770838583517

   => Energetics <=

    Nuclear Repulsion Energy =            138.9813405298145028
    One-Electron Energy =                -508.5778393164866316
    Two-Electron Energy =                 196.2687904008369344
    DFT Exchange-Correlation Energy =       0.0000000000000000
    Empirical Dispersion Energy =           0.0000000000000000
    PCM Polarization Energy =               0.0000000000000000
    EFP Energy =                            0.0000000000000000
    Total Energy =                       -173.3277083858351659
    Molecular point group: c1
  Basis Set: CC-PVTZ
  Basis Set:

  -Total Gradient:
     Atom            X                  Y                   Z
    ------   -----------------  -----------------  -----------------
       1       -0.000855268561    -0.000104189146     0.001304064044
       2        0.000653394330     0.000269387550    -0.001578712716
       3        0.001393267912    -0.000406217284     0.000043175287
       4       -0.000013437689    -0.000020480838     0.000001645907
       5       -0.000007176219     0.000009238133     0.000013714459
       6       -0.001148667151     0.000259510396     0.000229850816
       7       -0.000039236495     0.000005745703    -0.000009019987
       8        0.000002353244    -0.000009985367     0.000006773468
       9       -0.000000996041    -0.000001400711     0.000001203108
      10        0.000007359980     0.000005066043    -0.000011399472
      11       -0.000000538469     0.000000207203    -0.000000268075
      12       -0.000005360735    -0.000004809764    -0.000003860300
      13        0.000014305893    -0.000002071918     0.000002833460

  **** Optimization is complete! (in 5 steps) ****
    Final optimized geometry and variables:
    Molecular point group: c1

    Geometry (in Angstrom), charge = 0, multiplicity = 1:

    H           -0.056239399999     1.979228496984    -0.216934321927
    C            0.633538560597     1.240462304370     0.174214738973
    N            0.226720266209    -0.107651537178    -0.192432814596
    H            1.623995282761     1.470034083087    -0.203182895583
    H            0.650818936048     1.374157689286     1.252131551433
    C            0.192063201855    -1.012265167254     0.930417166030
    C           -0.992792176650    -0.148012958816    -0.962535406432
    H           -0.008916454282    -2.019760231598     0.587843907413
    H            1.152168866370    -1.020338418863     1.431094151032
    H           -0.571030463088    -0.747920206596     1.668909479245
    H           -0.893438210270     0.465163414553    -1.849067415434
    H           -1.190652983819    -1.162856263819    -1.284744133661
    H           -1.866128745941     0.203300327290    -0.404240058429

  Mulliken Charges: (a.u.)
   Center  Symbol    Alpha    Beta     Spin     Total
       1     H     0.46091  0.46091  0.00000  0.07819
       2     C     3.08492  3.08492  0.00000 -0.16985
       3     N     3.59946  3.59946  0.00000 -0.19892
       4     H     0.45089  0.45089  0.00000  0.09823
       5     H     0.46418  0.46418  0.00000  0.07164
       6     C     3.09073  3.09073  0.00000 -0.18145
       7     C     3.09046  3.09046  0.00000 -0.18093
       8     H     0.45365  0.45365  0.00000  0.09270
       9     H     0.45202  0.45202  0.00000  0.09597
      10     H     0.47352  0.47352  0.00000  0.05296
      11     H     0.45208  0.45208  0.00000  0.09584
      12     H     0.45358  0.45358  0.00000  0.09283
      13     H     0.47361  0.47361  0.00000  0.05279

   Total alpha = 17.00000, Total beta = 17.00000, Total charge = -0.00000

*** Psi4 exiting successfully. Buy a developer a beer!
