                              Psi4 1.0.54 Driver

  ==> Input File <==

--------------------------------------------------------------------------
set {
	reference rhf
	basis cc-pvtz
}

set_num_threads( 4 )
memory 2 gb

molecule MOL {
0 1

H	 2.570632	 -0.621407	 0.474944
O	 2.063695	 -0.083403	 -0.105237
C	 0.742924	 0.005675	 0.350750
H	 0.731380	 0.039219	 1.440080
C	 -0.064076	 -1.193495	 -0.124425
C	 -0.047832	 1.190568	 -0.194462
H	 0.194729	 -1.376165	 -1.161308
H	 0.163013	 -2.094508	 0.429933
C	 -1.533112	 -0.752002	 0.006102
H	 0.148003	 1.266545	 -1.259275
H	 0.226235	 2.136493	 0.259722
C	 -1.506634	 0.799189	 0.067162
H	 -2.124360	 -1.110499	 -0.826089
H	 -1.983103	 -1.158030	 0.903403
H	 -2.183808	 1.252169	 -0.644677
H	 -1.813926	 1.138698	 1.049457

	symmetry c1
}
set optking {
	frozen_dihedral = ("
		1 2 3 6
	")
}

ee,wfn = optimize('scf', return_wfn=True)
oeprop( wfn, 'DIPOLE', 'QUADRUPOLE', 'MULLIKEN_CHARGES')
f=open( 'psi4out.xyz', 'w' )
f.write( "16  " )
f.write( str(ee) + "\n" )
f.write( MOL.save_string_xyz() )
f.close()
--------------------------------------------------------------------------

    Molecular point group: c1
  Charge       = 0
  Multiplicity = 1
  Basis Set: CC-PVTZ
  Basis Set:
  @DF-RHF Final Energy:  -270.11506099888027
    Total Energy =                       -270.1150609988801534
    Molecular point group: c1
  Basis Set: CC-PVTZ
  Basis Set:
  Basis Set: CC-PVTZ
  Basis Set:
  @DF-RHF Final Energy:  -270.11620345672873
    Total Energy =                       -270.1162034567286696
  Basis Set: CC-PVTZ
  Basis Set:
  Basis Set: CC-PVTZ
  Basis Set:
  @DF-RHF Final Energy:  -270.11653599129733
    Total Energy =                       -270.1165359912972690
  Basis Set: CC-PVTZ
  Basis Set:
  Basis Set: CC-PVTZ
  Basis Set:
  @DF-RHF Final Energy:  -270.11654708245055
    Total Energy =                       -270.1165470824504382
  Basis Set: CC-PVTZ
  Basis Set:
  @DF-RHF Final Energy:  -270.11655001722670
    Total Energy =                       -270.1165500172268708
  @DF-RHF Final Energy:  -270.11655359563798
    Total Energy =                       -270.1165535956379813
  @DF-RHF Final Energy:  -270.11656069926653
    Total Energy =                       -270.1165606992661310
  @DF-RHF Final Energy:  -270.11657005233172
    Total Energy =                       -270.1165700523318947
  @DF-RHF Final Energy:  -270.11656300402888
    Total Energy =                       -270.1165630040289329
  @DF-RHF Final Energy:  -270.11659631457803
    Total Energy =                       -270.1165963145780324
  Basis Set: CC-PVTZ
  Basis Set:
  @DF-RHF Final Energy:  -270.11659556964054
    Total Energy =                       -270.1165955696407082
  Basis Set: CC-PVTZ
  Basis Set:
  Basis Set: CC-PVTZ
  Basis Set:
  @DF-RHF Final Energy:  -270.11660866682405
    Total Energy =                       -270.1166086668238222
  Basis Set: CC-PVTZ
  Basis Set:
  Basis Set: CC-PVTZ
  Basis Set:
  @DF-RHF Final Energy:  -270.11661176535114
    Total Energy =                       -270.1166117653510810
  Basis Set: CC-PVTZ
  Basis Set:
  Charge       = 0
  Multiplicity = 1
  Basis Set: CC-PVTZ
  Basis Set:

    Orbital Energies (a.u.)
    -----------------------

    Doubly Occupied:

       1A    -20.545792     2A    -11.267679     3A    -11.213889
       4A    -11.212578     5A    -11.208088     6A    -11.206603
       7A     -1.365588     8A     -1.114267     9A     -0.965439
      10A     -0.949205    11A     -0.787155    12A     -0.775929
      13A     -0.713291    14A     -0.655584    15A     -0.619666
      16A     -0.584429    17A     -0.563894    18A     -0.525957
      19A     -0.513732    20A     -0.480548    21A     -0.470121
      22A     -0.457541    23A     -0.450440    24A     -0.417902

  @DF-RHF Final Energy:  -270.11661244628868

   => Energetics <=

    Nuclear Repulsion Energy =            255.4900120975499362
    One-Electron Energy =                -873.0826156138678016
    Two-Electron Energy =                 347.4759910700290675
    DFT Exchange-Correlation Energy =       0.0000000000000000
    Empirical Dispersion Energy =           0.0000000000000000
    PCM Polarization Energy =               0.0000000000000000
    EFP Energy =                            0.0000000000000000
    Total Energy =                       -270.1166124462888547
    Molecular point group: c1
  Basis Set: CC-PVTZ
  Basis Set:

  -Total Gradient:
     Atom            X                  Y                   Z
    ------   -----------------  -----------------  -----------------
       1        0.000238773687     0.000973348998     0.000605623319
       2       -0.000234369837    -0.001040187036    -0.000529729485
       3       -0.000194069982    -0.000318570726    -0.000593255710
       4       -0.000005880431    -0.000000050276    -0.000001755114
       5       -0.000092470374     0.000003496033    -0.000021594003
       6        0.000241991132     0.000393088954     0.000536918408
       7        0.000022890142    -0.000000422971    -0.000011333048
       8        0.000018459851    -0.000007673245    -0.000000991976
       9        0.000082711961    -0.000027467274     0.000015320379
      10       -0.000001985487     0.000000043603     0.000001436434
      11       -0.000004299361    -0.000002133048    -0.000007066133
      12       -0.000022006075     0.000026367312    -0.000008673363
      13       -0.000023398743    -0.000018185875    -0.000014803207
      14       -0.000020209671     0.000000745923     0.000028810875
      15       -0.000007703005     0.000015728785    -0.000015045260
      16        0.000001566190     0.000001870839     0.000016137884

  **** Optimization is complete! (in 14 steps) ****
    Final optimized geometry and variables:
    Molecular point group: c1

    Geometry (in Angstrom), charge = 0, multiplicity = 1:

    H            2.617362209587    -0.500311653282     0.415100329032
    O            2.061056832250    -0.002142686655    -0.154160100071
    C            0.749238641833     0.012812994428     0.338133487874
    H            0.765603646442     0.111801985161     1.422768656432
    C           -0.088715210507    -1.204342733818    -0.037938305842
    C           -0.032231571380     1.175446491950    -0.260444837518
    H            0.071847878566    -1.413906750114    -1.090724732356
    H            0.173920645901    -2.096146475833     0.519932051984
    C           -1.523101787746    -0.734165572540     0.214819764158
    H            0.242537790501     1.253456216392    -1.306082942086
    H            0.210463155951     2.120315415342     0.207550840675
    C           -1.515519907182     0.782879224114    -0.109139620291
    H           -2.247545425291    -1.280273325764    -0.374803618947
    H           -1.785158701153    -0.890297843395     1.255419856133
    H           -2.065385239868     0.995829204469    -1.016507091074
    H           -1.994729144227     1.345014587235     0.682363399014

  Mulliken Charges: (a.u.)
   Center  Symbol    Alpha    Beta     Spin     Total
       1     H     0.39456  0.39456  0.00000  0.21088
       2     O     4.20108  4.20108  0.00000 -0.40216
       3     C     2.92213  2.92213  0.00000  0.15575
       4     H     0.46843  0.46843  0.00000  0.06315
       5     C     3.09619  3.09619  0.00000 -0.19238
       6     C     3.10448  3.10448  0.00000 -0.20895
       7     H     0.45394  0.45394  0.00000  0.09212
       8     H     0.45154  0.45154  0.00000  0.09693
       9     C     3.11473  3.11473  0.00000 -0.22946
      10     H     0.45035  0.45035  0.00000  0.09929
      11     H     0.44474  0.44474  0.00000  0.11052
      12     C     3.10848  3.10848  0.00000 -0.21697
      13     H     0.44326  0.44326  0.00000  0.11348
      14     H     0.45167  0.45167  0.00000  0.09667
      15     H     0.44626  0.44626  0.00000  0.10748
      16     H     0.44817  0.44817  0.00000  0.10366

   Total alpha = 24.00000, Total beta = 24.00000, Total charge = -0.00000

*** Psi4 exiting successfully. Buy a developer a beer!
