                              Psi4 1.0.54 Driver

  ==> Input File <==

--------------------------------------------------------------------------
set {
	reference rhf
	basis cc-pvtz
}

set_num_threads( 4 )
memory 2 gb

molecule MOL {
0 1

H	 2.407785	 1.184805	 0.474298
O	 1.498301	 1.265591	 0.693294
C	 0.700177	 0.619554	 -0.266242
C	 -0.713111	 0.588314	 0.266177
H	 1.047530	 -0.395613	 -0.432696
H	 0.721791	 1.153784	 -1.212555
O	 -1.421673	 -0.521378	 -0.196983
H	 -1.244794	 1.469161	 -0.069059
H	 -0.685100	 0.604721	 1.352683
H	 -0.933408	 -1.297830	 0.014544

	symmetry c1
}
set optking {
	frozen_dihedral = ("
		5 3 4 7
	")
}

ee,wfn = optimize('scf', return_wfn=True)
oeprop( wfn, 'DIPOLE', 'QUADRUPOLE', 'MULLIKEN_CHARGES')
f=open( 'psi4out.xyz', 'w' )
f.write( "10  " )
f.write( str(ee) + "\n" )
f.write( MOL.save_string_xyz() )
f.close()
--------------------------------------------------------------------------

    Molecular point group: c1
  Charge       = 0
  Multiplicity = 1
  Basis Set: CC-PVTZ
  Basis Set:
  @DF-RHF Final Energy:  -229.02127281943112
    Total Energy =                       -229.0212728194311467
    Molecular point group: c1
  Basis Set: CC-PVTZ
  Basis Set:
  Basis Set: CC-PVTZ
  Basis Set:
  @DF-RHF Final Energy:  -229.02241383243481
    Total Energy =                       -229.0224138324347223
  Basis Set: CC-PVTZ
  Basis Set:
  Basis Set: CC-PVTZ
  Basis Set:
  @DF-RHF Final Energy:  -229.02278628976561
    Total Energy =                       -229.0227862897656621
  Basis Set: CC-PVTZ
  Basis Set:
  Basis Set: CC-PVTZ
  Basis Set:
  @DF-RHF Final Energy:  -229.02283924836217
    Total Energy =                       -229.0228392483621747
  Basis Set: CC-PVTZ
  Basis Set:
  Basis Set: CC-PVTZ
  Basis Set:
  @DF-RHF Final Energy:  -229.02285133037432
    Total Energy =                       -229.0228513303742375
  Basis Set: CC-PVTZ
  Basis Set:
  Charge       = 0
  Multiplicity = 1
  Basis Set: CC-PVTZ
  Basis Set:

    Orbital Energies (a.u.)
    -----------------------

    Doubly Occupied:

       1A    -20.556765     2A    -20.551250     3A    -11.271945
       4A    -11.267482     5A     -1.379522     6A     -1.365463
       7A     -0.998147     8A     -0.848854     9A     -0.729562
      10A     -0.676550    11A     -0.653876    12A     -0.614875
      13A     -0.576419    14A     -0.529366    15A     -0.497230
      16A     -0.446903    17A     -0.439660

  @DF-RHF Final Energy:  -229.02285141272588

   => Energetics <=

    Nuclear Repulsion Energy =            131.4098197695515466
    One-Electron Energy =                -574.0576051180098602
    Two-Electron Energy =                 213.6249339357324573
    DFT Exchange-Correlation Energy =       0.0000000000000000
    Empirical Dispersion Energy =           0.0000000000000000
    PCM Polarization Energy =               0.0000000000000000
    EFP Energy =                            0.0000000000000000
    Total Energy =                       -229.0228514127258848
    Molecular point group: c1
  Basis Set: CC-PVTZ
  Basis Set:

  -Total Gradient:
     Atom            X                  Y                   Z
    ------   -----------------  -----------------  -----------------
       1       -0.000011335052     0.000000746118     0.000013665924
       2        0.000001587693    -0.000008280044    -0.000025829968
       3        0.002262846898    -0.001000328864     0.006086664927
       4       -0.001721676239     0.002677161324    -0.004641144605
       5       -0.001535356126     0.000279646050    -0.004138360638
       6       -0.000011458380    -0.000006938990    -0.000011987241
       7        0.001009861926    -0.001948645631     0.002723683435
       8        0.000001213773    -0.000004812319    -0.000004594357
       9        0.000001547420     0.000002681547    -0.000000458263
      10        0.000002768089     0.000008770809    -0.000001639214

  **** Optimization is complete! (in 6 steps) ****
    Final optimized geometry and variables:
    Molecular point group: c1

    Geometry (in Angstrom), charge = 0, multiplicity = 1:

    H            2.339297217121     0.942346856180     0.199428442675
    O            1.489308768531     0.773946372741     0.561378319917
    C            0.678279036745     0.131885877557    -0.380701614897
    C           -0.751677809184     0.117606508758     0.146109365079
    H            0.997128977767    -0.890777303519    -0.569652835567
    H            0.715719377776     0.646016442592    -1.337357902022
    O           -1.489936537716    -0.964120937261    -0.348392204623
    H           -1.277231019523     1.014908298043    -0.146327848885
    H           -0.710001609917     0.098770827845     1.230415492984
    H           -1.181003181677    -1.763719877675     0.036500170001

  Mulliken Charges: (a.u.)
   Center  Symbol    Alpha    Beta     Spin     Total
       1     H     0.39219  0.39219  0.00000  0.21562
       2     O     4.19880  4.19880  0.00000 -0.39760
       3     C     2.96183  2.96183  0.00000  0.07633
       4     C     2.97250  2.97250  0.00000  0.05501
       5     H     0.48135  0.48135  0.00000  0.03730
       6     H     0.47383  0.47383  0.00000  0.05234
       7     O     4.20420  4.20420  0.00000 -0.40840
       8     H     0.45612  0.45612  0.00000  0.08776
       9     H     0.46637  0.46637  0.00000  0.06725
      10     H     0.39281  0.39281  0.00000  0.21438

   Total alpha = 17.00000, Total beta = 17.00000, Total charge = -0.00000

*** Psi4 exiting successfully. Buy a developer a beer!
