  ==> Input File <==

--------------------------------------------------------------------------
set {
	reference rhf
	basis 6-31G*
}

set_num_threads( 4 )
memory 2 gb

molecule MOL {
0 1

O	 1.846825	 1.296220	 0.000415
C	 1.705091	 0.115954	 0.001797
C	 0.381791	 -0.609817	 0.001258
O	 2.721346	 -0.737485	 -0.000216
C	 -0.823008	 0.326187	 0.001381
H	 0.371250	 -1.265087	 -0.865474
H	 0.370908	 -1.265746	 0.867490
C	 -0.649737	 1.495390	 -0.969188
H	 -0.983687	 0.702057	 1.006912
H	 -1.714119	 -0.237871	 -0.255656
C	 -1.848890	 2.444993	 -0.981234
H	 0.247416	 2.054927	 -0.708361
H	 -0.486626	 1.111945	 -1.975293
C	 -1.675699	 3.612350	 -1.952076
H	 -2.011590	 2.830918	 0.022624
H	 -2.745724	 1.887697	 -1.242475
H	 -0.805334	 4.209903	 -1.695934
H	 -2.541581	 4.266949	 -1.937963
H	 -1.544833	 3.259124	 -2.971103
C	 4.024888	 -0.184556	 -0.001949
H	 4.179030	 0.422472	 -0.882452
H	 4.701782	 -1.024608	 -0.003642
H	 4.181981	 0.421185	 0.878906

	symmetry c1
}
set optking {
	frozen_dihedral = ("
		9 5 3 6
	")
}

ee = optimize('scf')
oeprop('DIPOLE', 'QUADRUPOLE', 'MULLIKEN_CHARGES')
f=open( 'psi4out.xyz', 'w' )
f.write( "23  " )
f.write( str(ee) + "\n" )
f.write( MOL.save_string_xyz() )
f.close()
--------------------------------------------------------------------------

    Molecular point group: c1
  Charge       = 0
  Multiplicity = 1
  Basis Set: 6-31G*
  Basis Set:
  @DF-RHF Final Energy:  -422.96279113962487
    Total Energy =                       -422.9627911396253239
    Molecular point group: c1
  Basis Set: 6-31G*
  Basis Set:
  Basis Set: 6-31G*
  Basis Set:
  @DF-RHF Final Energy:  -422.97080836360988
    Total Energy =                       -422.9708083636101037
  Basis Set: 6-31G*
  Basis Set:
  Basis Set: 6-31G*
  Basis Set:
  @DF-RHF Final Energy:  -422.97237561289995
    Total Energy =                       -422.9723756129012600
  Basis Set: 6-31G*
  Basis Set:
  Basis Set: 6-31G*
  Basis Set:
  @DF-RHF Final Energy:  -422.97022747057019
    Total Energy =                       -422.9702274705697391
  Basis Set: 6-31G*
  Basis Set:
  @DF-RHF Final Energy:  -422.97316076371158
    Total Energy =                       -422.9731607637115758
  @DF-RHF Final Energy:  -422.97346411293796
    Total Energy =                       -422.9734641129380179
  @DF-RHF Final Energy:  -422.97358758225397
    Total Energy =                       -422.9735875822541402
  Basis Set: 6-31G*
  Basis Set:
  @DF-RHF Final Energy:  -422.97360047001126
    Total Energy =                       -422.9736004700110925
  Basis Set: 6-31G*
  Basis Set:
  Basis Set: 6-31G*
  Basis Set:
  @DF-RHF Final Energy:  -422.97360465680003
    Total Energy =                       -422.9736046567996937
  Basis Set: 6-31G*
  Basis Set:
  Basis Set: 6-31G*
  Basis Set:
  @DF-RHF Final Energy:  -422.97360588394486
    Total Energy =                       -422.9736058839446287
  Basis Set: 6-31G*
  Basis Set:
  Charge       = 0
  Multiplicity = 1
  Basis Set: 6-31G*
  Basis Set:

    Orbital Energies (a.u.)
    -----------------------

    Doubly Occupied:

       1A    -20.605323     2A    -20.544415     3A    -11.373196
       4A    -11.281289     5A    -11.235735     6A    -11.222485
       7A    -11.213568     8A    -11.211048     9A    -11.206392
      10A     -1.470261    11A     -1.362740    12A     -1.090269
      13A     -1.041359    14A     -0.985964    15A     -0.931643
      16A     -0.844595    17A     -0.795310    18A     -0.766413
      19A     -0.698669    20A     -0.680367    21A     -0.671181
      22A     -0.642879    23A     -0.609996    24A     -0.600067
      25A     -0.568648    26A     -0.562181    27A     -0.551278
      28A     -0.527216    29A     -0.522408    30A     -0.503053
      31A     -0.488966    32A     -0.469608    33A     -0.463379
      34A     -0.454772    35A     -0.451560    36A     -0.433323

  @DF-RHF Final Energy:  -422.97360644122773

   => Energetics <=

    Nuclear Repulsion Energy =            463.9626103057960336
    One-Electron Energy =               -1495.7093189696663558
    Two-Electron Energy =                 608.7731022226422510
    DFT Exchange-Correlation Energy =       0.0000000000000000
    Empirical Dispersion Energy =           0.0000000000000000
    PCM Polarization Energy =               0.0000000000000000
    EFP Energy =                            0.0000000000000000
    Total Energy =                       -422.9736064412280712
    Molecular point group: c1
  Basis Set: 6-31G*
  Basis Set:

  -Total Gradient:
     Atom            X                  Y                   Z
    ------   -----------------  -----------------  -----------------
       1       -0.000005290434    -0.000015366692    -0.000013151633
       2       -0.000020227295     0.000018679703     0.000008418034
       3        0.002996101639     0.003445838938    -0.003224499624
       4        0.000003612419     0.000007588475     0.000000572726
       5        0.003376043211     0.003974670445    -0.000503431676
       6       -0.003007370395    -0.003472643061     0.002746518324
       7       -0.000005380423     0.000001088810     0.000000186047
       8       -0.000000344924    -0.000024181596    -0.000016430599
       9       -0.003355005841    -0.003941920656     0.000993591451
      10       -0.000001832247     0.000003523313    -0.000004621423
      11        0.000007188417     0.000014638874     0.000020669610
      12       -0.000008676043    -0.000002819328     0.000004534954
      13        0.000005609264    -0.000005020844    -0.000002729775
      14       -0.000004567370    -0.000000900669    -0.000004574065
      15       -0.000001406445    -0.000003079114     0.000000459684
      16        0.000008302869     0.000002702407    -0.000002374016
      17       -0.000004273786     0.000000433818     0.000002847031
      18       -0.000000883772     0.000001080701    -0.000004529453
      19        0.000003549589     0.000000767671     0.000001764752
      20       -0.000002332132    -0.000008896985    -0.000005158133
      21        0.000005493789    -0.000000059536     0.000001702711
      22        0.000008338001     0.000003010100     0.000001356717
      23        0.000003351903     0.000000865221    -0.000001121645

  **** Optimization is complete! (in 11 steps) ****
    Final optimized geometry and variables:
    Molecular point group: c1

    Geometry (in Angstrom), charge = 0, multiplicity = 1:

    O            1.303614292268     0.246680499304     1.153803689006
    C            1.078915959664    -0.785113820985     0.605738325904
    C           -0.288039080261    -1.401982078173     0.444976692876
    O            2.029636566826    -1.561824928780     0.105676795674
    C           -1.457556559601    -0.412541689526     0.416974814610
    H           -0.304868953603    -2.064119182154    -0.412326097389
    H           -0.405136651725    -2.059287303584     1.305558424198
    C           -1.336412861860     0.714865622185    -0.609009842034
    H           -1.624994088361    -0.018931996411     1.414398246456
    H           -2.347688090017    -0.995793014781     0.188852087090
    C           -2.592719996311     1.585406681666    -0.676379200694
    H           -0.481505895210     1.337064639656    -0.369464641450
    H           -1.147279962137     0.284269244064    -1.592215808623
    C           -2.476261936809     2.718691440916    -1.694959163392
    H           -2.790612714537     2.004660334449     0.307655343120
    H           -3.452003191670     0.965202690897    -0.923371472988
    H           -1.647186776787     3.377583155407    -1.453749208154
    H           -3.380194032979     3.319478877171    -1.720113595325
    H           -2.309148248857     2.330775996073    -2.695997519440
    C            3.366690029204    -1.120871008017     0.260179755963
    H            3.511172710626    -0.169043268923    -0.230118906663
    H            3.981787222970    -1.877169160226    -0.201896887634
    H            3.615926463351    -1.022877540539     1.306969082302

  Mulliken Charges: (a.u.)
   Center  Symbol    Alpha    Beta     Spin     Total
       1     O     4.28838  4.28838  0.00000 -0.57675
       2     C     2.60353  2.60353  0.00000  0.79294
       3     C     3.21225  3.21225  0.00000 -0.42449
       4     O     4.30549  4.30549  0.00000 -0.61097
       5     C     3.15098  3.15098  0.00000 -0.30197
       6     H     0.40003  0.40003  0.00000  0.19993
       7     H     0.39850  0.39850  0.00000  0.20300
       8     C     3.16071  3.16071  0.00000 -0.32142
       9     H     0.41128  0.41128  0.00000  0.17744
      10     H     0.41985  0.41985  0.00000  0.16029
      11     C     3.15234  3.15234  0.00000 -0.30467
      12     H     0.40425  0.40425  0.00000  0.19151
      13     H     0.42663  0.42663  0.00000  0.14674
      14     C     3.23946  3.23946  0.00000 -0.47891
      15     H     0.42091  0.42091  0.00000  0.15818
      16     H     0.42467  0.42467  0.00000  0.15067
      17     H     0.41979  0.41979  0.00000  0.16042
      18     H     0.41967  0.41967  0.00000  0.16067
      19     H     0.42261  0.42261  0.00000  0.15478
      20     C     3.09284  3.09284  0.00000 -0.18568
      21     H     0.40854  0.40854  0.00000  0.18291
      22     H     0.40828  0.40828  0.00000  0.18344
      23     H     0.40904  0.40904  0.00000  0.18193

   Total alpha = 36.00000, Total beta = 36.00000, Total charge =  0.00000
