                              Psi4 1.0.54 Driver

  ==> Input File <==

--------------------------------------------------------------------------
set {
	reference rhf
	basis cc-pvtz
}

set_num_threads( 4 )
memory 2 gb

molecule MOL {
0 1

H	 3.721907	 -0.933076	 -0.066039
O	 2.824271	 -1.154299	 0.131461
C	 2.076458	 -0.067370	 -0.038225
C	 0.626018	 -0.337582	 0.258241
O	 2.538288	 0.965419	 -0.381593
C	 -0.267326	 0.883135	 0.076490
H	 0.325620	 -1.161483	 -0.378003
H	 0.574537	 -0.713685	 1.275261
C	 -1.726822	 0.642622	 0.463839
H	 -0.210803	 1.217591	 -0.953497
H	 0.129920	 1.693110	 0.675679
C	 -2.480891	 -0.340606	 -0.429852
H	 -2.243098	 1.597649	 0.438609
H	 -1.776542	 0.301208	 1.495542
C	 -2.971685	 -1.569185	 0.329221
H	 -3.329576	 0.166616	 -0.880955
H	 -1.847109	 -0.664178	 -1.249350
H	 -3.504369	 -2.248578	 -0.326031
H	 -3.643812	 -1.289333	 1.133352
H	 -2.142737	 -2.114769	 0.767785

	symmetry c1
}
set optking {
	frozen_dihedral = ("
		16 12 9 6
	")
}

ee,wfn = optimize('scf', return_wfn=True)
oeprop( wfn, 'DIPOLE', 'QUADRUPOLE', 'MULLIKEN_CHARGES')
f=open( 'psi4out.xyz', 'w' )
f.write( "20  " )
f.write( str(ee) + "\n" )
f.write( MOL.save_string_xyz() )
f.close()
--------------------------------------------------------------------------

    Molecular point group: c1
  Charge       = 0
  Multiplicity = 1
  Basis Set: CC-PVTZ
  Basis Set:
  @DF-RHF Final Energy:  -384.08925677764364
    Total Energy =                       -384.0892567776435271
    Molecular point group: c1
  Basis Set: CC-PVTZ
  Basis Set:
  Basis Set: CC-PVTZ
  Basis Set:
  @DF-RHF Final Energy:  -384.08956898403312
    Total Energy =                       -384.0895689840331215
  Basis Set: CC-PVTZ
  Basis Set:
  Basis Set: CC-PVTZ
  Basis Set:
  @DF-RHF Final Energy:  -384.08967495571414
    Total Energy =                       -384.0896749557141447
  Basis Set: CC-PVTZ
  Basis Set:
  Basis Set: CC-PVTZ
  Basis Set:
  @DF-RHF Final Energy:  -384.08963226123296
    Total Energy =                       -384.0896322612331915
  Basis Set: CC-PVTZ
  Basis Set:
  Basis Set: CC-PVTZ
  Basis Set:
  @DF-RHF Final Energy:  -384.08966229868855
    Total Energy =                       -384.0896622986889497
  Basis Set: CC-PVTZ
  Basis Set:
  Basis Set: CC-PVTZ
  Basis Set:
  @DF-RHF Final Energy:  -384.08967983293081
    Total Energy =                       -384.0896798329305284
  Basis Set: CC-PVTZ
  Basis Set:
  Basis Set: CC-PVTZ
  Basis Set:
  @DF-RHF Final Energy:  -384.08968287025016
    Total Energy =                       -384.0896828702502717
  Basis Set: CC-PVTZ
  Basis Set:
  Charge       = 0
  Multiplicity = 1
  Basis Set: CC-PVTZ
  Basis Set:

    Orbital Energies (a.u.)
    -----------------------

    Doubly Occupied:

       1A    -20.604005     2A    -20.540611     3A    -11.373554
       4A    -11.238899     5A    -11.221310     6A    -11.218748
       7A    -11.218047     8A    -11.211961     9A     -1.477592
      10A     -1.369099    11A     -1.096736    12A     -1.039864
      13A     -0.963634    14A     -0.872071    15A     -0.815774
      16A     -0.779592    17A     -0.703798    18A     -0.693674
      19A     -0.667345    20A     -0.627528    21A     -0.610621
      22A     -0.597780    23A     -0.582699    24A     -0.555066
      25A     -0.536467    26A     -0.513087    27A     -0.503426
      28A     -0.484527    29A     -0.470663    30A     -0.463844
      31A     -0.457281    32A     -0.445526

  @DF-RHF Final Energy:  -384.08968301594479

   => Energetics <=

    Nuclear Repulsion Energy =            380.5574444063317401
    One-Electron Energy =               -1277.3845956338436736
    Two-Electron Energy =                 512.7374682115670339
    DFT Exchange-Correlation Energy =       0.0000000000000000
    Empirical Dispersion Energy =           0.0000000000000000
    PCM Polarization Energy =               0.0000000000000000
    EFP Energy =                            0.0000000000000000
    Total Energy =                       -384.0896830159448427
    Molecular point group: c1
  Basis Set: CC-PVTZ
  Basis Set:

  -Total Gradient:
     Atom            X                  Y                   Z
    ------   -----------------  -----------------  -----------------
       1        0.000017884281    -0.000010437108     0.000002142193
       2        0.000010417922     0.000041876351    -0.000028097364
       3       -0.000025964066    -0.000018285642     0.000029221980
       4       -0.000015387224    -0.000004441296    -0.000030601215
       5        0.000016412358    -0.000027674982     0.000005427892
       6       -0.000061199125     0.000153254614    -0.000086635936
       7        0.000002146569    -0.000001978929     0.000008867009
       8        0.000005089712     0.000011302340     0.000000137544
       9        0.000109132774    -0.000183499071     0.000106047763
      10       -0.000001095328    -0.000000624584    -0.000003969097
      11       -0.000004173658    -0.000002253803    -0.000003366431
      12       -0.000206670230    -0.000014488015     0.000189587979
      13       -0.000004204373     0.000000709193     0.000002188828
      14        0.000005509632     0.000001199548    -0.000003361818
      15        0.000000792995    -0.000014707328     0.000008239992
      16        0.000156773713     0.000075626767    -0.000207462061
      17       -0.000003519266     0.000002081376     0.000007050569
      18       -0.000000861122    -0.000000582853     0.000001724126
      19       -0.000000902519    -0.000000438112    -0.000000118518
      20       -0.000000183046    -0.000006638466     0.000002976562

  **** Optimization is complete! (in 8 steps) ****
    Final optimized geometry and variables:
    Molecular point group: c1

    Geometry (in Angstrom), charge = 0, multiplicity = 1:

    H            3.576036831637    -0.819787287452    -0.160996247229
    O            2.686745130659    -1.016826397887     0.092161045144
    C            1.941177838732     0.065340394601    -0.113768364351
    C            0.504021341120    -0.167348125725     0.266995309173
    O            2.394696430203     1.068134117804    -0.545767271893
    C           -0.386020863045     1.051100141094     0.058634708847
    H            0.162159566942    -1.022841082388    -0.304612955467
    H            0.497187472499    -0.483645253790     1.305179199182
    C           -1.845489931359     0.807078126566     0.446284105581
    H           -0.328853011713     1.364840290732    -0.977449803274
    H            0.008850191977     1.873179214066     0.643466501184
    C           -2.599662493803    -0.191806437298    -0.458723398087
    H           -2.356372098462     1.762747368891     0.430151208005
    H           -1.886279543020     0.468170261762     1.477847751828
    C           -3.093532776385    -1.438123449903     0.271171568710
    H           -3.448698294988     0.305154344752    -0.914318329307
    H           -1.963480154250    -0.493890795799    -1.284622625279
    H           -3.615412424450    -2.107380270631    -0.403387055722
    H           -3.777441736342    -1.174565340446     1.070868569900
    H           -2.270312134279    -1.989397982424     0.713652476039

  Mulliken Charges: (a.u.)
   Center  Symbol    Alpha    Beta     Spin     Total
       1     H     0.38234  0.38234  0.00000  0.23532
       2     O     4.16048  4.16048  0.00000 -0.32096
       3     C     2.80325  2.80325  0.00000  0.39351
       4     C     3.11297  3.11297  0.00000 -0.22595
       5     O     4.19095  4.19095  0.00000 -0.38190
       6     C     3.09046  3.09046  0.00000 -0.18092
       7     H     0.43721  0.43721  0.00000  0.12557
       8     H     0.43702  0.43702  0.00000  0.12595
       9     C     3.10490  3.10490  0.00000 -0.20979
      10     H     0.44487  0.44487  0.00000  0.11025
      11     H     0.44098  0.44098  0.00000  0.11804
      12     C     3.10053  3.10053  0.00000 -0.20106
      13     H     0.44038  0.44038  0.00000  0.11925
      14     H     0.45473  0.45473  0.00000  0.09055
      15     C     3.14629  3.14629  0.00000 -0.29258
      16     H     0.44333  0.44333  0.00000  0.11333
      17     H     0.45216  0.45216  0.00000  0.09567
      18     H     0.44826  0.44826  0.00000  0.10349
      19     H     0.45340  0.45340  0.00000  0.09320
      20     H     0.45548  0.45548  0.00000  0.08903

   Total alpha = 32.00000, Total beta = 32.00000, Total charge = -0.00000

*** Psi4 exiting successfully. Buy a developer a beer!
