                              Psi4 1.0.54 Driver

  ==> Input File <==

--------------------------------------------------------------------------
set {
	reference rhf
	basis cc-pvtz
}

set_num_threads( 4 )
memory 2 gb

molecule MOL {
0 1

H	 3.292904	 -0.434182	 0.037559
C	 2.235200	 -0.252117	 0.028647
C	 1.495681	 -0.542549	 -1.108056
C	 1.619082	 0.269603	 1.148345
H	 1.981654	 -0.947808	 -1.974306
C	 0.138586	 -0.310490	 -1.123661
H	 2.193627	 0.493242	 2.026046
C	 0.256065	 0.502115	 1.131155
H	 -0.449931	 -0.528392	 -1.992466
C	 -0.486398	 0.214248	 0.000000
H	 -0.229905	 0.907988	 1.999069
C	 -1.946525	 0.470130	 0.000000
O	 -2.779618	 -0.371226	 0.000000
H	 -2.227127	 1.528393	 0.000000

	symmetry c1
}
set optking {
	frozen_dihedral = ("
		8 10 12 14
	")
}

ee,wfn = optimize('scf', return_wfn=True)
oeprop( wfn, 'DIPOLE', 'QUADRUPOLE', 'MULLIKEN_CHARGES')
f=open( 'psi4out.xyz', 'w' )
f.write( "14  " )
f.write( str(ee) + "\n" )
f.write( MOL.save_string_xyz() )
f.close()
--------------------------------------------------------------------------

    Molecular point group: c1
  Charge       = 0
  Multiplicity = 1
  Basis Set: CC-PVTZ
  Basis Set:
  @DF-RHF Final Energy:  -343.53833220106708
    Total Energy =                       -343.5383322010672487
    Molecular point group: c1
  Basis Set: CC-PVTZ
  Basis Set:
  Basis Set: CC-PVTZ
  Basis Set:
  @DF-RHF Final Energy:  -343.53700451233914
    Total Energy =                       -343.5370045123387399
  Basis Set: CC-PVTZ
  Basis Set:
  Basis Set: CC-PVTZ
  Basis Set:
  @DF-RHF Final Energy:  -343.53862052350621
    Total Energy =                       -343.5386205235060970
  Basis Set: CC-PVTZ
  Basis Set:
  Basis Set: CC-PVTZ
  Basis Set:
  @DF-RHF Final Energy:  -343.53895002271895
    Total Energy =                       -343.5389500227188364
  Basis Set: CC-PVTZ
  Basis Set:
  Basis Set: CC-PVTZ
  Basis Set:
  @DF-RHF Final Energy:  -343.53895564534128
    Total Energy =                       -343.5389556453408204
  Basis Set: CC-PVTZ
  Basis Set:
  Charge       = 0
  Multiplicity = 1
  Basis Set: CC-PVTZ
  Basis Set:

    Orbital Energies (a.u.)
    -----------------------

    Doubly Occupied:

       1A    -20.562377     2A    -11.332023     3A    -11.250238
       4A    -11.246840     5A    -11.244905     6A    -11.243106
       7A    -11.242053     8A    -11.241067     9A     -1.416870
      10A     -1.174759    11A     -1.049058    12A     -1.033469
      13A     -0.890364    14A     -0.845196    15A     -0.797921
      16A     -0.725493    17A     -0.680992    18A     -0.657171
      19A     -0.642905    20A     -0.620742    21A     -0.604237
      22A     -0.542731    23A     -0.531523    24A     -0.516328
      25A     -0.506295    26A     -0.426336    27A     -0.352168
      28A     -0.351399

  @DF-RHF Final Energy:  -343.53895619813636

   => Energetics <=

    Nuclear Repulsion Energy =            323.4575950818511956
    One-Electron Energy =               -1106.5359676267048599
    Two-Electron Energy =                 439.5394163467174167
    DFT Exchange-Correlation Energy =       0.0000000000000000
    Empirical Dispersion Energy =           0.0000000000000000
    PCM Polarization Energy =               0.0000000000000000
    EFP Energy =                            0.0000000000000000
    Total Energy =                       -343.5389561981362476
    Molecular point group: c1
  Basis Set: CC-PVTZ
  Basis Set:

  -Total Gradient:
     Atom            X                  Y                   Z
    ------   -----------------  -----------------  -----------------
       1       -0.000003862756    -0.000014381514    -0.000009229429
       2        0.000004595375     0.000050579701     0.000125435221
       3       -0.000115992619     0.000016845143    -0.000079297203
       4        0.000116788301    -0.000032007799    -0.000058698579
       5        0.000010854535    -0.000003227155     0.000003774101
       6        0.000106759895    -0.000086563023    -0.000042062903
       7       -0.000009295960     0.000004396312     0.000005594153
       8       -0.000737770956    -0.004347227553     0.001413930057
       9        0.000002275213     0.000014049525     0.000008448809
      10        0.000888681963     0.006439664438    -0.003852916455
      11        0.000007152444     0.000010279284    -0.000001068642
      12       -0.000298812235    -0.002177716291     0.008076894409
      13        0.000017198232    -0.000021392806    -0.000007541249
      14        0.000011428567     0.000146701738    -0.005583262292

  **** Optimization is complete! (in 6 steps) ****
    Final optimized geometry and variables:
    Molecular point group: c1

    Geometry (in Angstrom), charge = 0, multiplicity = 1:

    H            3.292562268021    -0.437025602929     0.027174544092
    C            2.236730191825    -0.245613711626     0.021331508734
    C            1.489032864140    -0.528926195928    -1.106545566051
    C            1.623112250047     0.278222733374     1.143303568030
    H            1.962974164071    -0.942355080615    -1.975870071405
    C            0.127888018890    -0.294495490714    -1.112275823097
    H            2.198785654043     0.487028063411     2.024316938125
    C            0.265011677472     0.532105175466     1.132449853439
    H           -0.459117121679    -0.538103396645    -1.976703563455
    C           -0.483612092388     0.253585923807     0.002264068547
    H           -0.208848354815     0.943469323576     2.004501455668
    C           -1.965306023118     0.465987998304     0.010236499785
    O           -2.753095863387    -0.410114413359    -0.076916512758
    H           -2.300210217117     1.508342385877     0.036588870269

  Mulliken Charges: (a.u.)
   Center  Symbol    Alpha    Beta     Spin     Total
       1     H     0.42073  0.42073  0.00000  0.15854
       2     C     3.08149  3.08149  0.00000 -0.16297
       3     C     3.06355  3.06355  0.00000 -0.12710
       4     C     3.06595  3.06595  0.00000 -0.13190
       5     H     0.42104  0.42104  0.00000  0.15791
       6     C     3.09386  3.09386  0.00000 -0.18772
       7     H     0.42093  0.42093  0.00000  0.15815
       8     C     3.09542  3.09542  0.00000 -0.19083
       9     H     0.41869  0.41869  0.00000  0.16261
      10     C     2.94776  2.94776  0.00000  0.10449
      11     H     0.42448  0.42448  0.00000  0.15104
      12     C     2.93231  2.93231  0.00000  0.13539
      13     O     4.15726  4.15726  0.00000 -0.31451
      14     H     0.45654  0.45654  0.00000  0.08691

   Total alpha = 28.00000, Total beta = 28.00000, Total charge = -0.00000

*** Psi4 exiting successfully. Buy a developer a beer!
