  ==> Input File <==

--------------------------------------------------------------------------
set {
	reference rhf
	basis 6-31G*
}

set_num_threads( 4 )
memory 2 gb

molecule MOL {
0 1

O	 1.620931	 1.101778	 -1.874695
C	 0.683649	 1.048354	 -1.124129
C	 -0.471681	 2.019659	 -1.278618
N	 0.623947	 0.147590	 -0.102813
H	 -0.610022	 2.618153	 -0.384890
H	 -0.237589	 2.670069	 -2.107602
H	 -1.402653	 1.502618	 -1.484873
C	 1.665360	 -0.855771	 0.000151
C	 -0.563584	 -0.109682	 0.681933
H	 2.465253	 -0.618490	 -0.692587
H	 1.257730	 -1.821716	 -0.242189
H	 2.081488	 -0.891645	 1.004627
H	 -0.270422	 -0.390944	 1.686416
H	 -1.187079	 0.766933	 0.757657
H	 -1.157331	 -0.921702	 0.266120

	symmetry c1
}
set optking {
	frozen_dihedral = ("
		2 4 8 10
	")
}

ee = optimize('scf')
oeprop('DIPOLE', 'QUADRUPOLE', 'MULLIKEN_CHARGES')
f=open( 'psi4out.xyz', 'w' )
f.write( "15  " )
f.write( str(ee) + "\n" )
f.write( MOL.save_string_xyz() )
f.close()
--------------------------------------------------------------------------

    Molecular point group: c1
  Charge       = 0
  Multiplicity = 1
  Basis Set: 6-31G*
  Basis Set:
  @DF-RHF Final Energy:  -286.02934842174068
    Total Energy =                       -286.0293484217406217
    Molecular point group: c1
  Basis Set: 6-31G*
  Basis Set:
  Basis Set: 6-31G*
  Basis Set:
  @DF-RHF Final Energy:  -286.02968711184934
    Total Energy =                       -286.0296871118495119
  Basis Set: 6-31G*
  Basis Set:
  Basis Set: 6-31G*
  Basis Set:
  @DF-RHF Final Energy:  -286.02972566959698
    Total Energy =                       -286.0297256695970418
  Basis Set: 6-31G*
  Basis Set:
  Basis Set: 6-31G*
  Basis Set:
  @DF-RHF Final Energy:  -286.02975268023636
    Total Energy =                       -286.0297526802362427
  Basis Set: 6-31G*
  Basis Set:
  Basis Set: 6-31G*
  Basis Set:
  @DF-RHF Final Energy:  -286.02976001515515
    Total Energy =                       -286.0297600151551478
  Basis Set: 6-31G*
  Basis Set:
  Basis Set: 6-31G*
  Basis Set:
  @DF-RHF Final Energy:  -286.02976319786796
    Total Energy =                       -286.0297631978678510
  Basis Set: 6-31G*
  Basis Set:
  Charge       = 0
  Multiplicity = 1
  Basis Set: 6-31G*
  Basis Set:

    Orbital Energies (a.u.)
    -----------------------

    Doubly Occupied:

       1A    -20.512976     2A    -15.584271     3A    -11.341756
       4A    -11.266613     5A    -11.247784     6A    -11.228166
       7A     -1.383244     8A     -1.243918     9A     -1.014217
      10A     -0.972890    11A     -0.919855    12A     -0.738133
      13A     -0.681097    14A     -0.659438    15A     -0.651260
      16A     -0.589322    17A     -0.575624    18A     -0.567024
      19A     -0.561792    20A     -0.547213    21A     -0.529721
      22A     -0.504026    23A     -0.409252    24A     -0.365678

  @DF-RHF Final Energy:  -286.02976414510067

   => Energetics <=

    Nuclear Repulsion Energy =            252.2996927308401212
    One-Electron Energy =                -888.4683734707759868
    Two-Electron Energy =                 350.1389165948353366
    DFT Exchange-Correlation Energy =       0.0000000000000000
    Empirical Dispersion Energy =           0.0000000000000000
    PCM Polarization Energy =               0.0000000000000000
    EFP Energy =                            0.0000000000000000
    Total Energy =                       -286.0297641451005575
    Molecular point group: c1
  Basis Set: 6-31G*
  Basis Set:

  -Total Gradient:
     Atom            X                  Y                   Z
    ------   -----------------  -----------------  -----------------
       1        0.000017934563     0.000001598580    -0.000014158412
       2        0.000072013283     0.000104062778     0.000085671598
       3        0.000008931275    -0.000007276969     0.000020017213
       4       -0.000141679923    -0.000194292908    -0.000160144619
       5       -0.000007440018    -0.000003130622     0.000006353589
       6        0.000004370234    -0.000005558875     0.000009153736
       7       -0.000011149455    -0.000005370882     0.000000763960
       8        0.000149295567     0.000170681317     0.000284661170
       9       -0.000013938248    -0.000005645540    -0.000024493903
      10       -0.000100528749    -0.000132793716    -0.000184170700
      11        0.000039088312     0.000011236317     0.000001865942
      12       -0.000009497143     0.000037906645    -0.000007656869
      13        0.000000699706    -0.000022966907    -0.000019563481
      14        0.000009055402     0.000028370983     0.000017484607
      15       -0.000017154806     0.000023179799    -0.000015783827

  **** Optimization is complete! (in 7 steps) ****
    Final optimized geometry and variables:
    Molecular point group: c1

    Geometry (in Angstrom), charge = 0, multiplicity = 1:

    O            1.044412295175     0.580712378485    -1.245963437171
    C            0.095229948209     0.501904379269    -0.512235887409
    C           -1.066350087645     1.466084001614    -0.666285426075
    N            0.021604762852    -0.423993194367     0.483663461556
    H           -1.196396863688     2.073872279134     0.222665082356
    H           -0.841788400205     2.109756014903    -1.503067965200
    H           -1.998197781499     0.945052616832    -0.857012291023
    C            1.070183791668    -1.416791257843     0.606883646669
    C           -1.148593380956    -0.657502602517     1.300381132872
    H            1.885053871487    -1.158096004396    -0.046171233137
    H            0.700631633339    -2.403659181018     0.338602168685
    H            1.426581172652    -1.453729296767     1.631408235962
    H           -0.833906351790    -0.929145792695     2.301368797178
    H           -1.762217873076     0.225609031114     1.380044939779
    H           -1.758953907142    -1.469115440061     0.909293035132

  Mulliken Charges: (a.u.)
   Center  Symbol    Alpha    Beta     Spin     Total
       1     O     4.30566  4.30566  0.00000 -0.61131
       2     C     2.62279  2.62279  0.00000  0.75442
       3     C     3.29887  3.29887  0.00000 -0.59773
       4     N     3.82452  3.82452  0.00000 -0.64903
       5     H     0.40659  0.40659  0.00000  0.18683
       6     H     0.39035  0.39035  0.00000  0.21930
       7     H     0.40804  0.40804  0.00000  0.18391
       8     C     3.14670  3.14670  0.00000 -0.29340
       9     C     3.14123  3.14123  0.00000 -0.28247
      10     H     0.38231  0.38231  0.00000  0.23538
      11     H     0.42033  0.42033  0.00000  0.15934
      12     H     0.41853  0.41853  0.00000  0.16294
      13     H     0.41083  0.41083  0.00000  0.17833
      14     H     0.40721  0.40721  0.00000  0.18559
      15     H     0.41606  0.41606  0.00000  0.16789

   Total alpha = 24.00000, Total beta = 24.00000, Total charge =  0.00000
