  ==> Input File <==

--------------------------------------------------------------------------
set {
	reference rhf
	basis 6-31G*
}

set_num_threads( 1 )
memory 2 gb

molecule MOL {
0 1

H	 2.054974	 -0.996389	 0.872606
C	 1.961204	 -0.220919	 0.102765
C	 0.692068	 0.589600	 0.160137
O	 2.825289	 -0.067956	 -0.698540
C	 -0.558097	 -0.297372	 0.091132
H	 0.711480	 1.309159	 -0.650010
H	 0.692054	 1.140326	 1.100100
C	 -1.850991	 0.512573	 -0.019058
H	 -0.476753	 -0.965681	 -0.762987
H	 -0.604799	 -0.930658	 0.975228
C	 -3.096943	 -0.368295	 -0.099594
H	 -1.800724	 1.150330	 -0.898172
H	 -1.931651	 1.177355	 0.838044
H	 -3.060452	 -1.020287	 -0.967456
H	 -3.996858	 0.233488	 -0.175704
H	 -3.191959	 -0.995686	 0.782074

	symmetry c1
}
set optking {
	frozen_dihedral = ("
		9 5 8 12,
		4 2 3 6
	")
}

ee = energy('scf')
oeprop('DIPOLE', 'QUADRUPOLE', 'MULLIKEN_CHARGES')
f=open( 'psi4out.xyz', 'w' )
f.write( "16  " )
f.write( str(ee) + "\n" )
f.write( MOL.save_string_xyz() )
f.close()
--------------------------------------------------------------------------

    Molecular point group: c1

    Geometry (in Angstrom), charge = 0, multiplicity = 1:

       Center              X                  Y                   Z               Mass
    ------------   -----------------  -----------------  -----------------  -----------------
           H          2.063552129150    -1.015010929379     0.956558597133     1.007825032070
           C          1.969782129150    -0.239540929379     0.186717597133    12.000000000000
           C          0.700646129150     0.570978070621     0.244089597133    12.000000000000
           O          2.833867129150    -0.086577929379    -0.614587402867    15.994914619560
           C         -0.549518870850    -0.315993929379     0.175084597133    12.000000000000
           H          0.720058129150     1.290537070621    -0.566057402867     1.007825032070
           H          0.700632129150     1.121704070621     1.184052597133     1.007825032070
           C         -1.842412870850     0.493951070621     0.064894597133    12.000000000000
           H         -0.468174870850    -0.984302929379    -0.679034402867     1.007825032070
           H         -0.596220870850    -0.949279929379     1.059180597133     1.007825032070
           C         -3.088364870850    -0.386916929379    -0.015641402867    12.000000000000
           H         -1.792145870850     1.131708070621    -0.814219402867     1.007825032070
           H         -1.923072870850     1.158733070621     0.921996597133     1.007825032070
           H         -3.051873870850    -1.038908929379    -0.883503402867     1.007825032070
           H         -3.988279870850     0.214866070621    -0.091751402867     1.007825032070
           H         -3.183380870850    -1.014307929379     0.866026597133     1.007825032070

  Charge       = 0
  Multiplicity = 1
  Basis Set: 6-31G*
  Basis Set:

    Orbital Energies (a.u.)
    -----------------------

    Doubly Occupied:

       1A    -20.562426     2A    -11.326563     3A    -11.236680
       4A    -11.235179     5A    -11.229351     6A    -11.218403
       7A     -1.402238     8A     -1.096493     9A     -1.018877
      10A     -0.905967    11A     -0.811992    12A     -0.793393
      13A     -0.678460    14A     -0.646696    15A     -0.630657
      16A     -0.602680    17A     -0.583363    18A     -0.548550
      19A     -0.526813    20A     -0.510984    21A     -0.487434
      22A     -0.482467    23A     -0.477529    24A     -0.408924

  @DF-RHF Final Energy:  -270.01963779479524

   => Energetics <=

    Nuclear Repulsion Energy =            228.9068051555652517
    One-Electron Energy =                -819.0086426768990577
    Two-Electron Energy =                 320.0821997265378513
    DFT Exchange-Correlation Energy =       0.0000000000000000
    Empirical Dispersion Energy =           0.0000000000000000
    PCM Polarization Energy =               0.0000000000000000
    EFP Energy =                            0.0000000000000000
    Total Energy =                       -270.0196377947959263

  Mulliken Charges: (a.u.)
   Center  Symbol    Alpha    Beta     Spin     Total
       1     H     0.43215  0.43215  0.00000  0.13571
       2     C     2.82969  2.82969  0.00000  0.34062
       3     C     3.20823  3.20823  0.00000 -0.41645
       4     O     4.23729  4.23729  0.00000 -0.47458
       5     C     3.16428  3.16428  0.00000 -0.32857
       6     H     0.39954  0.39954  0.00000  0.20092
       7     H     0.40943  0.40943  0.00000  0.18113
       8     C     3.15154  3.15154  0.00000 -0.30309
       9     H     0.41353  0.41353  0.00000  0.17293
      10     H     0.41886  0.41886  0.00000  0.16228
      11     C     3.24051  3.24051  0.00000 -0.48102
      12     H     0.41804  0.41804  0.00000  0.16392
      13     H     0.42069  0.42069  0.00000  0.15861
      14     H     0.41925  0.41925  0.00000  0.16150
      15     H     0.41635  0.41635  0.00000  0.16730
      16     H     0.42061  0.42061  0.00000  0.15878

   Total alpha = 24.00000, Total beta = 24.00000, Total charge = -0.00000
