  ==> Input File <==

--------------------------------------------------------------------------
set {
	reference rhf
	basis 6-31G*
}

set_num_threads( 4 )
memory 2 gb

molecule MOL {
0 1

H	 3.215708	 0.030091	 0.403230
N	 2.434251	 -0.367735	 -0.081097
C	 1.267428	 0.496480	 0.024474
H	 2.252231	 -1.256981	 0.344373
C	 -0.016086	 -0.325158	 -0.029487
H	 1.288818	 1.183521	 -0.816092
H	 1.267576	 1.109062	 0.929528
C	 -1.282277	 0.529072	 0.046735
H	 -0.012495	 -0.908639	 -0.945788
H	 -0.015903	 -1.041248	 0.791956
C	 -2.563920	 -0.301775	 -0.006060
H	 -1.284084	 1.244622	 -0.773004
H	 -1.271387	 1.115393	 0.963286
H	 -2.621848	 -0.873522	 -0.927727
H	 -3.445135	 0.329952	 0.047812
H	 -2.609542	 -1.004582	 0.821105

	symmetry c1
}
set optking {
	frozen_dihedral = ("
		1 2 3 6
	")
}

ee = optimize('scf')
oeprop('DIPOLE', 'QUADRUPOLE', 'MULLIKEN_CHARGES')
f=open( 'psi4out.xyz', 'w' )
f.write( "16  " )
f.write( str(ee) + "\n" )
f.write( MOL.save_string_xyz() )
f.close()
--------------------------------------------------------------------------

    Molecular point group: c1
  Charge       = 0
  Multiplicity = 1
  Basis Set: 6-31G*
  Basis Set:
  @DF-RHF Final Energy:  -212.31444533412798
    Total Energy =                       -212.3144453341278108
    Molecular point group: c1
  Basis Set: 6-31G*
  Basis Set:
  Basis Set: 6-31G*
  Basis Set:
  @DF-RHF Final Energy:  -212.31463096708461
    Total Energy =                       -212.3146309670846108
  Basis Set: 6-31G*
  Basis Set:
  Basis Set: 6-31G*
  Basis Set:
  @DF-RHF Final Energy:  -212.31467326113898
    Total Energy =                       -212.3146732611390348
  Basis Set: 6-31G*
  Basis Set:
  Basis Set: 6-31G*
  Basis Set:
  @DF-RHF Final Energy:  -212.31467452421091
    Total Energy =                       -212.3146745242110569
  Basis Set: 6-31G*
  Basis Set:
  Basis Set: 6-31G*
  Basis Set:
  @DF-RHF Final Energy:  -212.31467616193243
    Total Energy =                       -212.3146761619323684
  Basis Set: 6-31G*
  Basis Set:
  Charge       = 0
  Multiplicity = 1
  Basis Set: 6-31G*
  Basis Set:

    Orbital Energies (a.u.)
    -----------------------

    Doubly Occupied:

       1A    -15.531715     2A    -11.239660     3A    -11.217831
       4A    -11.215038     5A    -11.210115     6A     -1.176124
       7A     -1.062048     8A     -0.960296     9A     -0.845653
      10A     -0.796590    11A     -0.652344    12A     -0.648305
      13A     -0.600839    14A     -0.576783    15A     -0.571690
      16A     -0.521184    17A     -0.508910    18A     -0.472479
      19A     -0.468679    20A     -0.460535    21A     -0.381801

  @DF-RHF Final Energy:  -212.31467628071192

   => Energetics <=

    Nuclear Repulsion Energy =            186.3656468304657210
    One-Electron Energy =                -655.1234106816991698
    Two-Electron Energy =                 256.4430875705216408
    DFT Exchange-Correlation Energy =       0.0000000000000000
    Empirical Dispersion Energy =           0.0000000000000000
    PCM Polarization Energy =               0.0000000000000000
    EFP Energy =                            0.0000000000000000
    Total Energy =                       -212.3146762807118080
    Molecular point group: c1
  Basis Set: 6-31G*
  Basis Set:

  -Total Gradient:
     Atom            X                  Y                   Z
    ------   -----------------  -----------------  -----------------
       1       -0.000914666824    -0.001844295096     0.003120013084
       2        0.000706908214     0.001790297358    -0.004302258485
       3        0.002054238332     0.002235040263     0.003010809321
       4        0.000005690332    -0.000011784140     0.000001558721
       5       -0.000005754248    -0.000005337531    -0.000010728255
       6       -0.001847804954    -0.002172994448    -0.001833854426
       7       -0.000001082068     0.000004058564     0.000001796939
       8        0.000000204728     0.000000967454     0.000010991969
       9        0.000003683086     0.000003413125     0.000008220025
      10        0.000000481660     0.000001657204    -0.000002271205
      11       -0.000002200630    -0.000000881800    -0.000004595013
      12       -0.000001302036     0.000003702954    -0.000001249909
      13        0.000003991753    -0.000002430684     0.000000215829
      14        0.000000580103    -0.000003468212     0.000002191882
      15       -0.000001265080    -0.000000060254    -0.000003025166
      16       -0.000001702367     0.000002115242     0.000002184691

  **** Optimization is complete! (in 6 steps) ****
    Final optimized geometry and variables:
    Molecular point group: c1

    Geometry (in Angstrom), charge = 0, multiplicity = 1:

    H            3.237597433220     0.033271728275     0.354588134060
    N            2.443109437611    -0.357850169014    -0.113743275316
    C            1.271577479970     0.499952449355     0.046716298336
    H            2.280944528063    -1.243311030242     0.327846637708
    C           -0.013892563966    -0.321392150523    -0.010452337299
    H            1.253641963466     1.209875761995    -0.774972522164
    H            1.290991231619     1.072140989076     0.974762634727
    C           -1.279480954799     0.535551161393     0.037787525059
    H           -0.005226050615    -0.913900695755    -0.922333396576
    H           -0.026025009652    -1.027531019601     0.819609341176
    C           -2.561583592010    -0.294712875347    -0.012871481779
    H           -1.271285265739     1.236108676430    -0.794096748127
    H           -1.275662147753     1.137077844570     0.944374645116
    H           -2.610901027516    -0.883450662400    -0.924334517722
    H           -3.441916091939     0.339603003876     0.019491737598
    H           -2.617719144242    -0.981496104699     0.826993131840

  Mulliken Charges: (a.u.)
   Center  Symbol    Alpha    Beta     Spin     Total
       1     H     0.33356  0.33356  0.00000  0.33288
       2     N     3.92406  3.92406  0.00000 -0.84812
       3     C     3.05132  3.05132  0.00000 -0.10263
       4     H     0.33536  0.33536  0.00000  0.32927
       5     C     3.16296  3.16296  0.00000 -0.32591
       6     H     0.41989  0.41989  0.00000  0.16021
       7     H     0.43291  0.43291  0.00000  0.13418
       8     C     3.15445  3.15445  0.00000 -0.30889
       9     H     0.41408  0.41408  0.00000  0.17183
      10     H     0.42746  0.42746  0.00000  0.14508
      11     C     3.23915  3.23915  0.00000 -0.47830
      12     H     0.42071  0.42071  0.00000  0.15858
      13     H     0.42295  0.42295  0.00000  0.15410
      14     H     0.42042  0.42042  0.00000  0.15915
      15     H     0.41883  0.41883  0.00000  0.16235
      16     H     0.42189  0.42189  0.00000  0.15622

   Total alpha = 21.00000, Total beta = 21.00000, Total charge =  0.00000
