                              Psi4 1.0.54 Driver

  ==> Input File <==

--------------------------------------------------------------------------
set {
	reference rhf
	basis cc-pvtz
}

set_num_threads( 4 )
memory 2 gb

molecule MOL {
0 1

H	 -4.170722	 0.928921	 -0.964119
O	 -3.458596	 0.315260	 -0.960865
C	 -3.176635	 -0.080824	 0.355601
C	 -1.763371	 0.265266	 0.799691
H	 -3.321825	 -1.153438	 0.379502
H	 -3.895468	 0.357385	 1.043382
C	 -0.673390	 -0.426948	 -0.013392
H	 -1.631049	 1.344913	 0.747560
H	 -1.664587	 -0.001624	 1.849167
C	 0.737842	 -0.043159	 0.423759
H	 -0.806103	 -0.190518	 -1.063345
H	 -0.797221	 -1.503753	 0.074146
C	 1.824000	 -0.743224	 -0.390623
H	 0.850588	 1.033777	 0.343840
H	 0.868587	 -0.286314	 1.476203
C	 3.255957	 -0.453067	 0.062319
H	 1.718250	 -0.470599	 -1.438164
H	 1.658105	 -1.815850	 -0.339904
C	 3.707029	 0.992337	 -0.133857
H	 3.928201	 -1.104096	 -0.488158
H	 3.362667	 -0.724561	 1.109374
H	 3.605811	 1.294044	 -1.171549
H	 4.748333	 1.111029	 0.143343
H	 3.129882	 1.683078	 0.468956

	symmetry c1
}
set optking {
	frozen_dihedral = ("
		1 2 3 5
	")
}

ee,wfn = optimize('scf', return_wfn=True)
oeprop( wfn, 'DIPOLE', 'QUADRUPOLE', 'MULLIKEN_CHARGES')
f=open( 'psi4out.xyz', 'w' )
f.write( "24  " )
f.write( str(ee) + "\n" )
f.write( MOL.save_string_xyz() )
f.close()
--------------------------------------------------------------------------

    Molecular point group: c1
  Charge       = 0
  Multiplicity = 1
  Basis Set: CC-PVTZ
  Basis Set:
  @DF-RHF Final Energy:  -349.37849334555102
    Total Energy =                       -349.3784933455509076
    Molecular point group: c1
  Basis Set: CC-PVTZ
  Basis Set:
  Basis Set: CC-PVTZ
  Basis Set:
  @DF-RHF Final Energy:  -349.37888343639031
    Total Energy =                       -349.3788834363903106
  Basis Set: CC-PVTZ
  Basis Set:
  Basis Set: CC-PVTZ
  Basis Set:
  @DF-RHF Final Energy:  -349.37898156251208
    Total Energy =                       -349.3789815625121378
  Basis Set: CC-PVTZ
  Basis Set:
  Basis Set: CC-PVTZ
  Basis Set:
  @DF-RHF Final Energy:  -349.37898466531976
    Total Energy =                       -349.3789846653198197
  Basis Set: CC-PVTZ
  Basis Set:
  Basis Set: CC-PVTZ
  Basis Set:
  @DF-RHF Final Energy:  -349.37898616801436
    Total Energy =                       -349.3789861680144213
  Basis Set: CC-PVTZ
  Basis Set:
  Charge       = 0
  Multiplicity = 1
  Basis Set: CC-PVTZ
  Basis Set:

    Orbital Energies (a.u.)
    -----------------------

    Doubly Occupied:

       1A    -20.544913     2A    -11.266143     3A    -11.210129
       4A    -11.209790     5A    -11.206917     6A    -11.206273
       7A    -11.204662     8A    -11.203032     9A     -1.362435
      10A     -1.086746    11A     -1.047251    12A     -0.985090
      13A     -0.913412    14A     -0.845778    15A     -0.793424
      16A     -0.773745    17A     -0.700692    18A     -0.651338
      19A     -0.626471    20A     -0.613179    21A     -0.584834
      22A     -0.580579    23A     -0.558268    24A     -0.536376
      25A     -0.522400    26A     -0.504439    27A     -0.493361
      28A     -0.480798    29A     -0.467285    30A     -0.454660
      31A     -0.451445    32A     -0.439686    33A     -0.424292

  @DF-RHF Final Energy:  -349.37898624235748

   => Energetics <=

    Nuclear Repulsion Energy =            384.8726709280597902
    One-Electron Energy =               -1236.6036275633100558
    Two-Electron Energy =                 502.3519703928927811
    DFT Exchange-Correlation Energy =       0.0000000000000000
    Empirical Dispersion Energy =           0.0000000000000000
    PCM Polarization Energy =               0.0000000000000000
    EFP Energy =                            0.0000000000000000
    Total Energy =                       -349.3789862423575414
    Molecular point group: c1
  Basis Set: CC-PVTZ
  Basis Set:

  -Total Gradient:
     Atom            X                  Y                   Z
    ------   -----------------  -----------------  -----------------
       1       -0.000039060638    -0.000034319811    -0.000004117680
       2        0.000038873876     0.000041252079     0.000007244960
       3        0.000047247046    -0.000024811680    -0.000003993547
       4       -0.000007814252     0.000001677815     0.000010832988
       5       -0.000043833815     0.000012316964     0.000003435895
       6        0.000007279358    -0.000001064928     0.000000668901
       7       -0.000006269755    -0.000001217208    -0.000006852517
       8       -0.000001658529     0.000002098607     0.000000365434
       9       -0.000003343790     0.000004696135    -0.000004729572
      10       -0.000001058294    -0.000002616181     0.000000381234
      11        0.000002360986     0.000001496198    -0.000001574034
      12        0.000001827238     0.000001216916    -0.000002117552
      13        0.000003072903     0.000003884408    -0.000001696454
      14       -0.000005298816    -0.000008315801    -0.000003441086
      15        0.000000418065     0.000003080046     0.000003080080
      16       -0.000001969479     0.000000387420     0.000007130562
      17       -0.000001107774     0.000003185439     0.000001014043
      18        0.000001780990    -0.000000855275    -0.000003174407
      19        0.000003284131    -0.000000195243    -0.000002108750
      20        0.000000327127    -0.000001292588     0.000002039808
      21       -0.000000829742     0.000001945356     0.000001373502
      22       -0.000001244768     0.000001584327    -0.000000846558
      23        0.000000274022    -0.000001138075    -0.000002185524
      24        0.000006743911    -0.000002994921    -0.000000729726

  **** Optimization is complete! (in 6 steps) ****
    Final optimized geometry and variables:
    Molecular point group: c1

    Geometry (in Angstrom), charge = 0, multiplicity = 1:

    H           -4.114307903646     0.943224113195    -0.969074579111
    O           -3.413603846061     0.321470384747    -0.938778884314
    C           -3.169749929110    -0.082922829873     0.387520669412
    C           -1.756683697569     0.268308347612     0.820415651984
    H           -3.319827963982    -1.156427609305     0.448213981490
    H           -3.883428368130     0.379257579243     1.062188517535
    C           -0.676787172094    -0.422597098230    -0.007086229474
    H           -1.631968838179     1.346063582034     0.760143080156
    H           -1.645579091716    -0.003594989816     1.867790119310
    C            0.738941007817    -0.042460934222     0.418419420294
    H           -0.820714725497    -0.176884669343    -1.053196943345
    H           -0.800370651450    -1.500133489162     0.075834941000
    C            1.816863700937    -0.739178944350    -0.409694146252
    H            0.851080395489     1.034637081257     0.342222497916
    H            0.879826286400    -0.290751782530     1.468501835924
    C            3.253439196569    -0.451726186493     0.030388291555
    H            1.700837153040    -0.461663200730    -1.454828630300
    H            1.651190302679    -1.812067062970    -0.362328925676
    C            3.703299220832     0.994379155827    -0.163655445444
    H            3.920124746191    -1.100478888657    -0.529600837539
    H            3.370426887741    -0.728007203620     1.075146430308
    H            3.590264743734     1.301390444666    -1.198548450208
    H            4.747837785117     1.111124984021     0.102217454612
    H            3.133348248980     1.682356657116     0.449004165024

  Mulliken Charges: (a.u.)
   Center  Symbol    Alpha    Beta     Spin     Total
       1     H     0.39234  0.39234  0.00000  0.21532
       2     O     4.20502  4.20502  0.00000 -0.41004
       3     C     2.97802  2.97802  0.00000  0.04396
       4     C     3.08321  3.08321  0.00000 -0.16642
       5     H     0.46708  0.46708  0.00000  0.06584
       6     H     0.46422  0.46422  0.00000  0.07156
       7     C     3.09186  3.09186  0.00000 -0.18372
       8     H     0.45844  0.45844  0.00000  0.08312
       9     H     0.45692  0.45692  0.00000  0.08617
      10     C     3.09141  3.09141  0.00000 -0.18283
      11     H     0.44385  0.44385  0.00000  0.11231
      12     H     0.45684  0.45684  0.00000  0.08633
      13     C     3.09425  3.09425  0.00000 -0.18850
      14     H     0.45267  0.45267  0.00000  0.09467
      15     H     0.45695  0.45695  0.00000  0.08610
      16     C     3.09016  3.09016  0.00000 -0.18033
      17     H     0.45348  0.45348  0.00000  0.09303
      18     H     0.45036  0.45036  0.00000  0.09928
      19     C     3.15236  3.15236  0.00000 -0.30472
      20     H     0.44901  0.44901  0.00000  0.10197
      21     H     0.45559  0.45559  0.00000  0.08882
      22     H     0.45479  0.45479  0.00000  0.09041
      23     H     0.44711  0.44711  0.00000  0.10577
      24     H     0.45406  0.45406  0.00000  0.09189

   Total alpha = 33.00000, Total beta = 33.00000, Total charge = -0.00000

*** Psi4 exiting successfully. Buy a developer a beer!
