  ==> Input File <==

--------------------------------------------------------------------------
set {
	reference rhf
	basis 6-31G*
}

set_num_threads( 1 )
memory 2 gb

molecule MOL {
0 1

H	 -1.037422	 -0.616869	 0.175291
C	 -0.790252	 0.431209	 0.000000
N	 0.538815	 0.649616	 0.000000
O	 -1.634743	 1.260470	 -0.168432
C	 1.521968	 -0.411503	 0.000000
H	 0.852804	 1.592852	 0.000000
H	 2.150599	 -0.357004	 -0.881901
H	 0.999455	 -1.354525	 0.000000
H	 2.150599	 -0.357004	 0.881901

	symmetry c1
}
set optking {
	frozen_dihedral = ("
		6 3 5 7
	")
}

ee = energy('scf')
oeprop('DIPOLE', 'QUADRUPOLE', 'MULLIKEN_CHARGES')
f=open( 'psi4out.xyz', 'w' )
f.write( "9  " )
f.write( str(ee) + "\n" )
f.write( MOL.save_string_xyz() )
f.close()
--------------------------------------------------------------------------

    Molecular point group: c1

    Geometry (in Angstrom), charge = 0, multiplicity = 1:

       Center              X                  Y                   Z               Mass
    ------------   -----------------  -----------------  -----------------  -----------------
           H         -0.958389541382    -1.097805514240     0.217931851494     1.007825032070
           C         -0.711219541382    -0.049727514240     0.042640851494    12.000000000000
           N          0.617847458618     0.168679485760     0.042640851494    14.003074004780
           O         -1.555710541382     0.779533485760    -0.125791148506    15.994914619560
           C          1.601000458618    -0.892439514240     0.042640851494    12.000000000000
           H          0.931836458618     1.111915485760     0.042640851494     1.007825032070
           H          2.229631458618    -0.837940514240    -0.839260148506     1.007825032070
           H          1.078487458618    -1.835461514240     0.042640851494     1.007825032070
           H          2.229631458618    -0.837940514240     0.924541851494     1.007825032070

  Charge       = 0
  Multiplicity = 1
  Basis Set: 6-31G*
  Basis Set:

    Orbital Energies (a.u.)
    -----------------------

    Doubly Occupied:

       1A    -20.525079     2A    -15.589896     3A    -11.344584
       4A    -11.276464     5A     -1.387622     6A     -1.240944
       7A     -0.965704     8A     -0.849478     9A     -0.690222
      10A     -0.674822    11A     -0.634556    12A     -0.592146
      13A     -0.575413    14A     -0.541429    15A     -0.423287
      16A     -0.389280

  @DF-RHF Final Energy:  -207.95786593690536

   => Energetics <=

    Nuclear Repulsion Energy =            120.4148781979369147
    One-Electron Energy =                -521.3436104762038212
    Two-Electron Energy =                 192.9708663413615000
    DFT Exchange-Correlation Energy =       0.0000000000000000
    Empirical Dispersion Energy =           0.0000000000000000
    PCM Polarization Energy =               0.0000000000000000
    EFP Energy =                            0.0000000000000000
    Total Energy =                       -207.9578659369054208

  Mulliken Charges: (a.u.)
   Center  Symbol    Alpha    Beta     Spin     Total
       1     H     0.43183  0.43183  0.00000  0.13635
       2     C     2.73953  2.73953  0.00000  0.52094
       3     N     3.87170  3.87170  0.00000 -0.74339
       4     O     4.28363  4.28363  0.00000 -0.56725
       5     C     3.14073  3.14073  0.00000 -0.28146
       6     H     0.30401  0.30401  0.00000  0.39198
       7     H     0.40882  0.40882  0.00000  0.18237
       8     H     0.40886  0.40886  0.00000  0.18228
       9     H     0.41090  0.41090  0.00000  0.17820

   Total alpha = 16.00000, Total beta = 16.00000, Total charge =  0.00000
