  ==> Input File <==

--------------------------------------------------------------------------
set {
	reference rhf
	basis 6-31G*
}

set_num_threads( 4 )
memory 2 gb

molecule MOL {
0 1

H	 -3.892951	 0.981613	 -0.358725
C	 -3.196921	 0.361773	 0.172313
C	 -2.076860	 -0.007332	 -0.404944
H	 -3.439953	 0.057760	 1.173024
O	 -1.180634	 -0.819263	 0.215062
H	 -1.811520	 0.292194	 -1.403480
C	 0.051604	 -1.018856	 -0.387932
C	 1.043764	 0.054862	 -0.001873
H	 -0.017620	 -1.041351	 -1.469781
H	 0.437898	 -1.966374	 -0.042284
F	 1.190314	 0.902570	 -1.009703
F	 0.634143	 0.746813	 1.048481
F	 2.228203	 -0.445197	 0.283497

	symmetry c1
}
set optking {
	frozen_dihedral = ("
		11 8 7 9
	")
}

ee = optimize('scf')
oeprop('DIPOLE', 'QUADRUPOLE', 'MULLIKEN_CHARGES')
f=open( 'psi4out.xyz', 'w' )
f.write( "13  " )
f.write( str(ee) + "\n" )
f.write( MOL.save_string_xyz() )
f.close()
--------------------------------------------------------------------------

    Molecular point group: c1
  Charge       = 0
  Multiplicity = 1
  Basis Set: 6-31G*
  Basis Set:
  @DF-RHF Final Energy:  -527.52946901680230
    Total Energy =                       -527.5294690168020679
    Molecular point group: c1
  Basis Set: 6-31G*
  Basis Set:
  Basis Set: 6-31G*
  Basis Set:
  @DF-RHF Final Energy:  -527.53048400251896
    Total Energy =                       -527.5304840025188469
  Basis Set: 6-31G*
  Basis Set:
  Basis Set: 6-31G*
  Basis Set:
  @DF-RHF Final Energy:  -527.53074178490056
    Total Energy =                       -527.5307417849008971
  Basis Set: 6-31G*
  Basis Set:
  Basis Set: 6-31G*
  Basis Set:
  @DF-RHF Final Energy:  -527.53077075477847
    Total Energy =                       -527.5307707547781320
  Basis Set: 6-31G*
  Basis Set:
  Basis Set: 6-31G*
  Basis Set:
  @DF-RHF Final Energy:  -527.53077700321023
    Total Energy =                       -527.5307770032104600
  Basis Set: 6-31G*
  Basis Set:
  Basis Set: 6-31G*
  Basis Set:
  @DF-RHF Final Energy:  -527.53077993024590
    Total Energy =                       -527.5307799302460126
  Basis Set: 6-31G*
  Basis Set:
  Basis Set: 6-31G*
  Basis Set:
  @DF-RHF Final Energy:  -527.53078142941456
    Total Energy =                       -527.5307814294151285
  Basis Set: 6-31G*
  Basis Set:
  Charge       = 0
  Multiplicity = 1
  Basis Set: 6-31G*
  Basis Set:

    Orbital Energies (a.u.)
    -----------------------

    Doubly Occupied:

       1A    -26.343018     2A    -26.341865     3A    -26.341106
       4A    -20.606670     5A    -11.504126     6A    -11.318555
       7A    -11.298988     8A    -11.217294     9A     -1.741552
      10A     -1.640049    11A     -1.636185    12A     -1.437125
      13A     -1.080259    14A     -1.015686    15A     -0.925172
      16A     -0.836060    17A     -0.829220    18A     -0.821033
      19A     -0.791867    20A     -0.720045    21A     -0.714064
      22A     -0.694361    23A     -0.674774    24A     -0.660994
      25A     -0.654426    26A     -0.642056    27A     -0.630106
      28A     -0.584471    29A     -0.562939    30A     -0.522828
      31A     -0.511709    32A     -0.352691

  @DF-RHF Final Energy:  -527.53078231755205

   => Energetics <=

    Nuclear Repulsion Energy =            413.8237227741254856
    One-Electron Energy =               -1551.4064132525534205
    Two-Electron Energy =                 610.0519081608761098
    DFT Exchange-Correlation Energy =       0.0000000000000000
    Empirical Dispersion Energy =           0.0000000000000000
    PCM Polarization Energy =               0.0000000000000000
    EFP Energy =                            0.0000000000000000
    Total Energy =                       -527.5307823175519388
    Molecular point group: c1
  Basis Set: 6-31G*
  Basis Set:

  -Total Gradient:
     Atom            X                  Y                   Z
    ------   -----------------  -----------------  -----------------
       1        0.000003266368     0.000001456557     0.000002029019
       2       -0.000010033650    -0.000013078370    -0.000008958062
       3        0.000083280457    -0.000004097339     0.000017968754
       4       -0.000002913208    -0.000003809334     0.000000456663
       5       -0.000013157809     0.000010885584     0.000034578705
       6       -0.000001921186     0.000015361361     0.000003867117
       7        0.005053604500    -0.004108729038    -0.000495014259
       8       -0.004390164223     0.003151405722     0.001648781311
       9       -0.003427374320     0.002840753292     0.000073606199
      10       -0.000002697203     0.000003360778    -0.000001926540
      11        0.002883286919    -0.001931622468    -0.001348043319
      12       -0.000035169701    -0.000002951068     0.000049918299
      13       -0.000140006941     0.000041064322     0.000022736122

  **** Optimization is complete! (in 8 steps) ****
    Final optimized geometry and variables:
    Molecular point group: c1

    Geometry (in Angstrom), charge = 0, multiplicity = 1:

    H           -3.802102921687     1.045214539448    -0.328143825064
    C           -3.147858200811     0.364699073794     0.181369421464
    C           -2.030601480887    -0.021888553081    -0.389940302650
    H           -3.430445182704     0.013415433590     1.155962430879
    O           -1.187745546986    -0.910863457462     0.197320716929
    H           -1.727503323025     0.324067144935    -1.363624484627
    C            0.071886368992    -1.066035273724    -0.363883451499
    C            1.024694212904     0.074096231574     0.000285294356
    H            0.005347425588    -1.108908471950    -1.444911332920
    H            0.479792460154    -1.987168246624     0.019946343948
    F            1.157069825620     0.932755778654    -1.002760918313
    F            0.635762574491     0.744539100883     1.059663246340
    F            2.234962194280    -0.409529791263     0.242386740411

  Mulliken Charges: (a.u.)
   Center  Symbol    Alpha    Beta     Spin     Total
       1     H     0.40679  0.40679  0.00000  0.18642
       2     C     3.23268  3.23268  0.00000 -0.46535
       3     C     2.90190  2.90190  0.00000  0.19621
       4     H     0.40144  0.40144  0.00000  0.19712
       5     O     4.29835  4.29835  0.00000 -0.59671
       6     H     0.40566  0.40566  0.00000  0.18868
       7     C     3.07649  3.07649  0.00000 -0.15299
       8     C     2.45053  2.45053  0.00000  1.09895
       9     H     0.40165  0.40165  0.00000  0.19669
      10     H     0.38567  0.38567  0.00000  0.22866
      11     F     4.68377  4.68377  0.00000 -0.36753
      12     F     4.67079  4.67079  0.00000 -0.34157
      13     F     4.68429  4.68429  0.00000 -0.36857

   Total alpha = 32.00000, Total beta = 32.00000, Total charge =  0.00000
