                              Psi4 1.0.54 Driver

  ==> Input File <==

--------------------------------------------------------------------------
set {
	reference rhf
	basis cc-pvtz
}

set_num_threads( 4 )
memory 2 gb

molecule MOL {
0 1

H	 -2.149496	 -2.244167	 0.000000
O	 -2.454378	 -1.354528	 0.000000
C	 -1.430628	 -0.482077	 0.000000
C	 -0.252377	 -0.878864	 -0.615594
C	 -1.517969	 0.765390	 0.580877
H	 -0.204556	 -1.852535	 -1.061359
C	 0.827856	 -0.026809	 -0.645709
H	 -2.423351	 1.085155	 1.060441
C	 -0.419014	 1.612975	 0.541788
H	 1.735071	 -0.341275	 -1.123631
C	 0.758401	 1.228982	 -0.067872
C	 -0.519183	 2.916377	 1.152048
H	 1.597510	 1.894104	 -0.089833
N	 -0.600954	 3.934878	 1.630226

	symmetry c1
}
set optking {
	frozen_dihedral = ("
		5 3 2 1
	")
}

ee,wfn = optimize('scf', return_wfn=True)
oeprop( wfn, 'DIPOLE', 'QUADRUPOLE', 'MULLIKEN_CHARGES')
f=open( 'psi4out.xyz', 'w' )
f.write( "14  " )
f.write( str(ee) + "\n" )
f.write( MOL.save_string_xyz() )
f.close()
--------------------------------------------------------------------------

    Molecular point group: c1
  Charge       = 0
  Multiplicity = 1
  Basis Set: CC-PVTZ
  Basis Set:
  @DF-RHF Final Energy:  -397.42951111159994
    Total Energy =                       -397.4295111115998225
    Molecular point group: c1
  Basis Set: CC-PVTZ
  Basis Set:
  Basis Set: CC-PVTZ
  Basis Set:
  @DF-RHF Final Energy:  -397.43135035426690
    Total Energy =                       -397.4313503542670105
  Basis Set: CC-PVTZ
  Basis Set:
  Basis Set: CC-PVTZ
  Basis Set:
  @DF-RHF Final Energy:  -397.43150093724455
    Total Energy =                       -397.4315009372440954
  Basis Set: CC-PVTZ
  Basis Set:
  Basis Set: CC-PVTZ
  Basis Set:
  @DF-RHF Final Energy:  -397.43152486288733
    Total Energy =                       -397.4315248628870449
  Basis Set: CC-PVTZ
  Basis Set:
  Basis Set: CC-PVTZ
  Basis Set:
  @DF-RHF Final Energy:  -397.43152945986884
    Total Energy =                       -397.4315294598684432
  Basis Set: CC-PVTZ
  Basis Set:
  Charge       = 0
  Multiplicity = 1
  Basis Set: CC-PVTZ
  Basis Set:

    Orbital Energies (a.u.)
    -----------------------

    Doubly Occupied:

       1A    -20.603306     2A    -15.563726     3A    -11.322847
       4A    -11.291434     5A    -11.267058     6A    -11.261845
       7A    -11.257324     8A    -11.257068     9A    -11.256726
      10A     -1.434876    11A     -1.236704    12A     -1.186883
      13A     -1.066365    14A     -1.043420    15A     -0.901249
      16A     -0.861897    17A     -0.797100    18A     -0.717220
      19A     -0.695145    20A     -0.679090    21A     -0.635234
      22A     -0.623958    23A     -0.586181    24A     -0.567375
      25A     -0.550960    26A     -0.545755    27A     -0.523626
      28A     -0.480574    29A     -0.477612    30A     -0.367244
      31A     -0.345254

  @DF-RHF Final Energy:  -397.43152982765730

   => Energetics <=

    Nuclear Repulsion Energy =            380.3619347488030371
    One-Electron Energy =               -1292.7768192859921328
    Two-Electron Energy =                 514.9833547095320228
    DFT Exchange-Correlation Energy =       0.0000000000000000
    Empirical Dispersion Energy =           0.0000000000000000
    PCM Polarization Energy =               0.0000000000000000
    EFP Energy =                            0.0000000000000000
    Total Energy =                       -397.4315298276570729
    Molecular point group: c1
  Basis Set: CC-PVTZ
  Basis Set:

  -Total Gradient:
     Atom            X                  Y                   Z
    ------   -----------------  -----------------  -----------------
       1        0.000057244997     0.000050555988     0.002306438132
       2        0.000180648967    -0.000357354650    -0.002224165702
       3       -0.000788209449     0.000903506144    -0.001496483010
       4        0.000004916582    -0.000018817271    -0.000021514065
       5        0.000576740123    -0.000583694041     0.001448379413
       6        0.000000950870    -0.000002014841     0.000003103506
       7       -0.000003135987    -0.000004788767    -0.000027615796
       8       -0.000002683586    -0.000008403768     0.000001264389
       9       -0.000027714600     0.000022578067    -0.000046052915
      10        0.000003202150     0.000007439101     0.000003674759
      11       -0.000012139156    -0.000005202712     0.000051165953
      12        0.000024202033     0.000007749035    -0.000013444316
      13        0.000004311693    -0.000004185894    -0.000000843605
      14       -0.000018334638    -0.000007366396     0.000016093257

  **** Optimization is complete! (in 6 steps) ****
    Final optimized geometry and variables:
    Molecular point group: c1

    Geometry (in Angstrom), charge = 0, multiplicity = 1:

    H           -1.575579144048    -2.996439237452    -0.234454055229
    O           -1.822332792328    -2.088993850747    -0.246454929186
    C           -0.737677183000    -1.286751220823    -0.287743031657
    C            0.441805939295    -1.669237336649    -0.900922600632
    C           -0.837845064427    -0.041592418121     0.302204463811
    H            0.513067442121    -2.635872574848    -1.363791696129
    C            1.520312853029    -0.805860841657    -0.925126093874
    H           -1.751901806902     0.245058276473     0.781217100895
    C            0.245927008783     0.816601625413     0.259334885149
    H            2.431222736468    -1.111271248625    -1.401802897577
    C            1.433664866057     0.443867340416    -0.349973491757
    C            0.138202310866     2.118654501364     0.871942521779
    H            2.264711092611     1.119277100509    -0.369696580335
    N            0.057067853609     3.136914004650     1.350718360383

  Mulliken Charges: (a.u.)
   Center  Symbol    Alpha    Beta     Spin     Total
       1     H     0.38407  0.38407  0.00000  0.23186
       2     O     4.17379  4.17379  0.00000 -0.34759
       3     C     2.84880  2.84880  0.00000  0.30240
       4     C     3.12558  3.12558  0.00000 -0.25116
       5     C     3.12159  3.12159  0.00000 -0.24318
       6     H     0.42469  0.42469  0.00000  0.15062
       7     C     3.05764  3.05764  0.00000 -0.11528
       8     H     0.40853  0.40853  0.00000  0.18293
       9     C     2.92267  2.92267  0.00000  0.15466
      10     H     0.41666  0.41666  0.00000  0.16668
      11     C     3.10324  3.10324  0.00000 -0.20648
      12     C     3.02413  3.02413  0.00000 -0.04826
      13     H     0.41430  0.41430  0.00000  0.17140
      14     N     3.57430  3.57430  0.00000 -0.14860

   Total alpha = 31.00000, Total beta = 31.00000, Total charge =  0.00000

*** Psi4 exiting successfully. Buy a developer a beer!
