  ==> Input File <==

--------------------------------------------------------------------------
set {
	reference rhf
	basis cc-pvtz
}

set_num_threads( 4 )
memory 2 gb

molecule MOL {
0 1

O	 -1.937843	 -2.246412	 -0.049564
C	 -0.871730	 -1.731924	 -0.026059
C	 0.446622	 -2.463905	 -0.022658
O	 -0.695554	 -0.422406	 0.000602
C	 0.298401	 -3.976541	 -0.053273
H	 0.992202	 -2.138272	 0.856122
H	 1.014924	 -2.105483	 -0.873835
H	 -0.254793	 -4.331160	 0.806051
H	 1.274598	 -4.445980	 -0.049353
H	 -0.231876	 -4.298093	 -0.939635
C	 -1.852370	 0.402254	 0.000718
C	 -3.063338	 -0.501097	 -0.000437
H	 -1.831732	 1.039442	 -0.872158
H	 -1.832493	 1.038301	 0.874430
H	 -3.071944	 -1.133732	 -0.879113
H	 -3.966302	 0.097976	 -0.000483
H	 -3.072764	 -1.134834	 0.877435

	symmetry c1
}
set optking {
	frozen_dihedral = ("
		2 4 11 13
	")
}

ee = optimize('scf')
oeprop('DIPOLE', 'QUADRUPOLE', 'MULLIKEN_CHARGES')
f=open( 'psi4out.xyz', 'w' )
f.write( "17  " )
f.write( str(ee) + "\n" )
f.write( MOL.save_string_xyz() )
f.close()
--------------------------------------------------------------------------

    Molecular point group: c1
  Charge       = 0
  Multiplicity = 1
  Basis Set: CC-PVTZ
  Basis Set:
  @DF-RHF Final Energy:  -344.96530718288273
    Total Energy =                       -344.9653071828824977
    Molecular point group: c1
  Basis Set: CC-PVTZ
  Basis Set:
  Basis Set: CC-PVTZ
  Basis Set:
  @DF-RHF Final Energy:  -345.01060587452235
    Total Energy =                       -345.0106058745222981
  Basis Set: CC-PVTZ
  Basis Set:
  Basis Set: CC-PVTZ
  Basis Set:
  @DF-RHF Final Energy:  -345.02161000442527
    Total Energy =                       -345.0216100044254972
  Basis Set: CC-PVTZ
  Basis Set:
  Basis Set: CC-PVTZ
  Basis Set:
  @DF-RHF Final Energy:  -345.02634236149675
    Total Energy =                       -345.0263423614967451
  Basis Set: CC-PVTZ
  Basis Set:
  @DF-RHF Final Energy:  -345.02266630821930
    Total Energy =                       -345.0226663082197547
  @DF-RHF Final Energy:  -345.02791561375727
    Total Energy =                       -345.0279156137572727
  Basis Set: CC-PVTZ
  Basis Set:
  @DF-RHF Final Energy:  -345.02803004843719
    Total Energy =                       -345.0280300484376994
  Basis Set: CC-PVTZ
  Basis Set:
  Basis Set: CC-PVTZ
  Basis Set:
  @DF-RHF Final Energy:  -345.02804191750073
    Total Energy =                       -345.0280419175006728
  Basis Set: CC-PVTZ
  Basis Set:
  Basis Set: CC-PVTZ
  Basis Set:
  @DF-RHF Final Energy:  -345.02804295493439
    Total Energy =                       -345.0280429549345627
  Basis Set: CC-PVTZ
  Basis Set:
  Charge       = 0
  Multiplicity = 1
  Basis Set: CC-PVTZ
  Basis Set:

    Orbital Energies (a.u.)
    -----------------------

    Doubly Occupied:

       1A    -20.589721     2A    -20.528092     3A    -11.364903
       4A    -11.289496     5A    -11.232717     6A    -11.213582
       7A    -11.211515     8A     -1.462164     9A     -1.364159
      10A     -1.068181    11A     -1.028551    12A     -0.920273
      13A     -0.859072    14A     -0.741973    15A     -0.689464
      16A     -0.686584    17A     -0.673408    18A     -0.628553
      19A     -0.601844    20A     -0.569277    21A     -0.546172
      22A     -0.530279    23A     -0.523326    24A     -0.517517
      25A     -0.494553    26A     -0.491524    27A     -0.443462
      28A     -0.430593

  @DF-RHF Final Energy:  -345.02804311200146

   => Energetics <=

    Nuclear Repulsion Energy =            318.7110814623597435
    One-Electron Energy =               -1102.0763389302096584
    Two-Electron Energy =                 438.3372143558488006
    DFT Exchange-Correlation Energy =       0.0000000000000000
    Empirical Dispersion Energy =           0.0000000000000000
    PCM Polarization Energy =               0.0000000000000000
    EFP Energy =                            0.0000000000000000
    Total Energy =                       -345.0280431120011144
    Molecular point group: c1
  Basis Set: CC-PVTZ
  Basis Set:

  -Total Gradient:
     Atom            X                  Y                   Z
    ------   -----------------  -----------------  -----------------
       1       -0.000016441035    -0.000007659749    -0.000004588100
       2        0.000009368758    -0.000021159797     0.000988826992
       3        0.000004674250    -0.000002215792     0.000035738172
       4        0.000137498334     0.000160944363    -0.001456530655
       5       -0.000011541337     0.000004096922    -0.000010203649
       6        0.000004021974     0.000002873526    -0.000010480386
       7       -0.000007119259     0.000002932381    -0.000013658695
       8       -0.000000880053    -0.000006054597     0.000003313343
       9        0.000000309271     0.000004939098     0.000002700248
      10       -0.000000429367     0.000001088384     0.000003330556
      11       -0.000669592570    -0.000783892425    -0.000069838131
      12        0.000007636746    -0.000012370167     0.000011123491
      13        0.000559484876     0.000657634132     0.000531154625
      14       -0.000003942840     0.000002900980    -0.000003433393
      15       -0.000005727982    -0.000001154833    -0.000001083384
      16        0.000002151683    -0.000005993098    -0.000003283406
      17       -0.000009471449     0.000003090665    -0.000003087627

  **** Optimization is complete! (in 10 steps) ****
    Final optimized geometry and variables:
    Molecular point group: c1

    Geometry (in Angstrom), charge = 0, multiplicity = 1:

    O           -0.745887187478    -0.923689556235    -0.100722838089
    C            0.245009291999    -0.281971411403    -0.026627943454
    C            1.636339731901    -0.868597280208     0.037865903251
    O            0.309285107038     1.035808318770     0.006176387459
    C            1.655388375229    -2.387702349641    -0.012505598116
    H            2.099262485124    -0.498502947751     0.945894590110
    H            2.204431907832    -0.439660531046    -0.779960759740
    H            1.102285748303    -2.812366214756     0.814513909933
    H            2.675747096081    -2.748362171850     0.037275671886
    H            1.208282797161    -2.753168695999    -0.927282159892
    C           -0.780826500819     1.959331131847     0.013292531536
    C           -2.203630692538     1.437247880982     0.081453810574
    H           -0.648658455110     2.563355772953    -0.874117102323
    H           -0.590089320011     2.595422264258     0.866705950995
    H           -2.469972721625     0.847073983210    -0.780613407416
    H           -2.848578416962     2.309747209443     0.118922046819
    H           -2.379425065398     0.844157915793     0.966147130180

  Mulliken Charges: (a.u.)
   Center  Symbol    Alpha    Beta     Spin     Total
       1     O     4.19805  4.19805  0.00000 -0.39609
       2     C     2.80699  2.80699  0.00000  0.38603
       3     C     3.08923  3.08923  0.00000 -0.17846
       4     O     4.15521  4.15521  0.00000 -0.31041
       5     C     3.14041  3.14041  0.00000 -0.28083
       6     H     0.44294  0.44294  0.00000  0.11412
       7     H     0.44231  0.44231  0.00000  0.11537
       8     H     0.44882  0.44882  0.00000  0.10235
       9     H     0.45098  0.45098  0.00000  0.09804
      10     H     0.44885  0.44885  0.00000  0.10229
      11     C     2.98403  2.98403  0.00000  0.03194
      12     C     3.14807  3.14807  0.00000 -0.29613
      13     H     0.45366  0.45366  0.00000  0.09268
      14     H     0.45299  0.45299  0.00000  0.09402
      15     H     0.44076  0.44076  0.00000  0.11848
      16     H     0.45267  0.45267  0.00000  0.09465
      17     H     0.44403  0.44403  0.00000  0.11194

   Total alpha = 28.00000, Total beta = 28.00000, Total charge =  0.00000
