  ==> Input File <==

--------------------------------------------------------------------------
set {
	reference rhf
	basis 6-31G*
}

set_num_threads( 1 )
memory 2 gb

molecule MOL {
0 1

H	 2.221251	 -0.470806	 1.350777
C	 1.951159	 -0.223429	 0.317018
C	 0.692068	 0.589600	 0.160137
O	 2.634043	 -0.592401	 -0.582792
C	 -0.558097	 -0.297372	 0.091132
H	 0.791645	 1.202255	 -0.728243
H	 0.616171	 1.253469	 1.020572
C	 -1.850991	 0.512573	 -0.019058
H	 -0.476753	 -0.965681	 -0.762987
H	 -0.604799	 -0.930658	 0.975228
C	 -3.096943	 -0.368295	 -0.099594
H	 -1.800724	 1.150330	 -0.898172
H	 -1.931651	 1.177355	 0.838044
H	 -3.060452	 -1.020287	 -0.967456
H	 -3.996858	 0.233488	 -0.175704
H	 -3.191959	 -0.995686	 0.782074

	symmetry c1
}
set optking {
	frozen_dihedral = ("
		9 5 8 12,
		6 3 5 9
	")
}

ee = energy('scf')
oeprop('DIPOLE', 'QUADRUPOLE', 'MULLIKEN_CHARGES')
f=open( 'psi4out.xyz', 'w' )
f.write( "16  " )
f.write( str(ee) + "\n" )
f.write( MOL.save_string_xyz() )
f.close()
--------------------------------------------------------------------------

    Molecular point group: c1

    Geometry (in Angstrom), charge = 0, multiplicity = 1:

       Center              X                  Y                   Z               Mass
    ------------   -----------------  -----------------  -----------------  -----------------
           H          2.264771608769    -0.397847824489     1.379598214440     1.007825032070
           C          1.994679608769    -0.150470824489     0.345839214440    12.000000000000
           C          0.735588608769     0.662558175511     0.188958214440    12.000000000000
           O          2.677563608769    -0.519442824489    -0.553970785560    15.994914619560
           C         -0.514576391231    -0.224413824489     0.119953214440    12.000000000000
           H          0.835165608769     1.275213175511    -0.699421785560     1.007825032070
           H          0.659691608769     1.326427175511     1.049393214440     1.007825032070
           C         -1.807470391231     0.585531175511     0.009763214440    12.000000000000
           H         -0.433232391231    -0.892722824489    -0.734165785560     1.007825032070
           H         -0.561278391231    -0.857699824489     1.004049214440     1.007825032070
           C         -3.053422391231    -0.295336824489    -0.070772785560    12.000000000000
           H         -1.757203391231     1.223288175511    -0.869350785560     1.007825032070
           H         -1.888130391231     1.250313175511     0.866865214440     1.007825032070
           H         -3.016931391231    -0.947328824489    -0.938634785560     1.007825032070
           H         -3.953337391231     0.306446175511    -0.146882785560     1.007825032070
           H         -3.148438391231    -0.922727824489     0.810895214440     1.007825032070

  Charge       = 0
  Multiplicity = 1
  Basis Set: 6-31G*
  Basis Set:

    Orbital Energies (a.u.)
    -----------------------

    Doubly Occupied:

       1A    -20.562663     2A    -11.326471     3A    -11.236120
       4A    -11.234948     5A    -11.228292     6A    -11.217553
       7A     -1.402493     8A     -1.095038     9A     -1.018037
      10A     -0.907134    11A     -0.813013    12A     -0.788006
      13A     -0.681104    14A     -0.645975    15A     -0.628723
      16A     -0.603203    17A     -0.577506    18A     -0.552738
      19A     -0.524825    20A     -0.511880    21A     -0.486690
      22A     -0.479273    23A     -0.477746    24A     -0.408237

  @DF-RHF Final Energy:  -270.01895874024757

   => Energetics <=

    Nuclear Repulsion Energy =            229.6608027866187172
    One-Electron Energy =                -820.5442091075580038
    Two-Electron Energy =                 320.8644475806914897
    DFT Exchange-Correlation Energy =       0.0000000000000000
    Empirical Dispersion Energy =           0.0000000000000000
    PCM Polarization Energy =               0.0000000000000000
    EFP Energy =                            0.0000000000000000
    Total Energy =                       -270.0189587402477400

  Mulliken Charges: (a.u.)
   Center  Symbol    Alpha    Beta     Spin     Total
       1     H     0.43103  0.43103  0.00000  0.13793
       2     C     2.83674  2.83674  0.00000  0.32652
       3     C     3.20191  3.20191  0.00000 -0.40383
       4     O     4.23593  4.23593  0.00000 -0.47186
       5     C     3.16187  3.16187  0.00000 -0.32374
       6     H     0.40004  0.40004  0.00000  0.19991
       7     H     0.41613  0.41613  0.00000  0.16774
       8     C     3.15199  3.15199  0.00000 -0.30399
       9     H     0.40899  0.40899  0.00000  0.18201
      10     H     0.41887  0.41887  0.00000  0.16225
      11     C     3.24064  3.24064  0.00000 -0.48129
      12     H     0.41855  0.41855  0.00000  0.16289
      13     H     0.42131  0.42131  0.00000  0.15738
      14     H     0.41881  0.41881  0.00000  0.16239
      15     H     0.41663  0.41663  0.00000  0.16675
      16     H     0.42053  0.42053  0.00000  0.15894

   Total alpha = 24.00000, Total beta = 24.00000, Total charge = -0.00000
