                              Psi4 1.0.54 Driver

  ==> Input File <==

--------------------------------------------------------------------------
set {
	reference rhf
	basis cc-pvtz
}

set_num_threads( 4 )
memory 2 gb

molecule MOL {
0 1

H	 -3.324853	 0.023774	 -0.702549
O	 -2.535415	 -0.495381	 -0.733919
C	 -1.605397	 0.107680	 0.001145
C	 -0.310616	 -0.658853	 0.000791
O	 -1.812810	 1.124813	 0.567177
C	 0.926581	 0.227233	 0.000178
H	 -0.327628	 -1.313681	 -0.864448
H	 -0.327041	 -1.313334	 0.866298
C	 2.220156	 -0.582071	 -0.000088
H	 0.899945	 0.878221	 -0.866390
H	 0.900542	 0.878581	 0.866486
C	 3.466689	 0.296012	 -0.000457
H	 2.239073	 -1.234095	 -0.869382
H	 2.239505	 -1.233985	 0.869270
H	 3.493549	 0.935857	 -0.875887
H	 4.368821	 -0.304526	 -0.001199
H	 3.494559	 0.935166	 0.875458

	symmetry c1
}
set optking {
	frozen_dihedral = ("
		2 3 4 7
	")
}

ee,wfn = optimize('scf', return_wfn=True)
oeprop( wfn, 'DIPOLE', 'QUADRUPOLE', 'MULLIKEN_CHARGES')
f=open( 'psi4out.xyz', 'w' )
f.write( "17  " )
f.write( str(ee) + "\n" )
f.write( MOL.save_string_xyz() )
f.close()
--------------------------------------------------------------------------

    Molecular point group: c1
  Charge       = 0
  Multiplicity = 1
  Basis Set: CC-PVTZ
  Basis Set:
  @DF-RHF Final Energy:  -345.04758426111027
    Total Energy =                       -345.0475842611106145
    Molecular point group: c1
  Basis Set: CC-PVTZ
  Basis Set:
  Basis Set: CC-PVTZ
  Basis Set:
  @DF-RHF Final Energy:  -345.04775426626446
    Total Energy =                       -345.0477542662645760
  Basis Set: CC-PVTZ
  Basis Set:
  Basis Set: CC-PVTZ
  Basis Set:
  @DF-RHF Final Energy:  -345.04783203814793
    Total Energy =                       -345.0478320381479307
  Basis Set: CC-PVTZ
  Basis Set:
  Basis Set: CC-PVTZ
  Basis Set:
  @DF-RHF Final Energy:  -345.04791438138591
    Total Energy =                       -345.0479143813859082
  Basis Set: CC-PVTZ
  Basis Set:
  Basis Set: CC-PVTZ
  Basis Set:
  @DF-RHF Final Energy:  -345.04793042894204
    Total Energy =                       -345.0479304289417541
  Basis Set: CC-PVTZ
  Basis Set:
  Charge       = 0
  Multiplicity = 1
  Basis Set: CC-PVTZ
  Basis Set:

    Orbital Energies (a.u.)
    -----------------------

    Doubly Occupied:

       1A    -20.605722     2A    -20.538896     3A    -11.373753
       4A    -11.238779     5A    -11.223828     6A    -11.221710
       7A    -11.211457     8A     -1.478189     9A     -1.368669
      10A     -1.093437    11A     -1.019729    12A     -0.914381
      13A     -0.825650    14A     -0.795079    15A     -0.705433
      16A     -0.687928    17A     -0.665086    18A     -0.634374
      19A     -0.593645    20A     -0.584440    21A     -0.578069
      22A     -0.538716    23A     -0.511461    24A     -0.487878
      25A     -0.481522    26A     -0.477280    27A     -0.473733
      28A     -0.444006

  @DF-RHF Final Energy:  -345.04793076269522

   => Energetics <=

    Nuclear Repulsion Energy =            304.7475467521113046
    One-Electron Energy =               -1074.0452486074359513
    Two-Electron Energy =                 424.2497710926290324
    DFT Exchange-Correlation Energy =       0.0000000000000000
    Empirical Dispersion Energy =           0.0000000000000000
    PCM Polarization Energy =               0.0000000000000000
    EFP Energy =                            0.0000000000000000
    Total Energy =                       -345.0479307626956711
    Molecular point group: c1
  Basis Set: CC-PVTZ
  Basis Set:

  -Total Gradient:
     Atom            X                  Y                   Z
    ------   -----------------  -----------------  -----------------
       1       -0.000046898143     0.000008685769     0.000015311472
       2        0.000290619323     0.000508917021    -0.000828746404
       3       -0.000414559365    -0.000884519889     0.001254746661
       4        0.000719576685     0.001291180274    -0.001126186186
       5       -0.000026623105    -0.000001077284    -0.000019711851
       6       -0.000023890440    -0.000016603136     0.000028947026
       7       -0.000497541376    -0.000886807991     0.000665941587
       8        0.000008712697    -0.000020309004     0.000001500184
       9       -0.000001854073    -0.000009036772    -0.000004122714
      10       -0.000007782261    -0.000012255477     0.000004998471
      11        0.000008677911     0.000024393070     0.000012779057
      12       -0.000010893301     0.000002080650    -0.000000370708
      13       -0.000000314294    -0.000006077342    -0.000004187388
      14        0.000003625333     0.000001306687     0.000001298131
      15        0.000000553014     0.000002195228    -0.000004178966
      16       -0.000000513651    -0.000004693783    -0.000000705983
      17       -0.000000894959     0.000002621977     0.000002687610

  **** Optimization is complete! (in 6 steps) ****
    Final optimized geometry and variables:
    Molecular point group: c1

    Geometry (in Angstrom), charge = 0, multiplicity = 1:

    H           -3.366379094703    -0.006694186070    -0.551178013821
    O           -2.574154538177    -0.513264800170    -0.652360799176
    C           -1.608325259705     0.077229980361     0.043333213565
    C           -0.309807905683    -0.684272086511    -0.007734127828
    O           -1.788624580344     1.082674906652     0.640039063493
    C            0.916341474553     0.222569393810    -0.005939348723
    H           -0.323056170391    -1.346843324753    -0.862446265330
    H           -0.303599343018    -1.319699412887     0.874195506345
    C            2.222217107788    -0.565815069050     0.017951137779
    H            0.892619812868     0.858364969214    -0.886095526095
    H            0.865776013717     0.883384161821     0.850347224879
    C            3.454515649691     0.332066850955     0.009847263776
    H            2.258328033913    -1.234929377507    -0.837475398681
    H            2.243379373157    -1.198622839429     0.901122490080
    H            3.480392661970     0.952579875715    -0.879529068434
    H            4.365791116755    -0.254073464604     0.030900186626
    H            3.463495810544     0.990632705242     0.871569538959

  Mulliken Charges: (a.u.)
   Center  Symbol    Alpha    Beta     Spin     Total
       1     H     0.38106  0.38106  0.00000  0.23787
       2     O     4.15800  4.15800  0.00000 -0.31599
       3     C     2.80968  2.80968  0.00000  0.38065
       4     C     3.09874  3.09874  0.00000 -0.19748
       5     O     4.19515  4.19515  0.00000 -0.39030
       6     C     3.08841  3.08841  0.00000 -0.17682
       7     H     0.43627  0.43627  0.00000  0.12745
       8     H     0.44340  0.44340  0.00000  0.11320
       9     C     3.08643  3.08643  0.00000 -0.17285
      10     H     0.45081  0.45081  0.00000  0.09838
      11     H     0.43954  0.43954  0.00000  0.12092
      12     C     3.14911  3.14911  0.00000 -0.29823
      13     H     0.45446  0.45446  0.00000  0.09107
      14     H     0.45380  0.45380  0.00000  0.09241
      15     H     0.45418  0.45418  0.00000  0.09165
      16     H     0.44788  0.44788  0.00000  0.10424
      17     H     0.45309  0.45309  0.00000  0.09383

   Total alpha = 28.00000, Total beta = 28.00000, Total charge = -0.00000

*** Psi4 exiting successfully. Buy a developer a beer!
