                              Psi4 1.0.54 Driver

  ==> Input File <==

--------------------------------------------------------------------------
set {
	reference rhf
	basis cc-pvtz
}

set_num_threads( 4 )
memory 2 gb

molecule MOL {
0 1

O	 0.749630	 1.305591	 -0.000460
C	 0.576499	 0.134701	 -0.003900
C	 -0.765656	 -0.550508	 -0.002152
O	 1.564816	 -0.744612	 -0.000631
C	 -1.945526	 0.411052	 0.000603
H	 -0.794329	 -1.203792	 -0.868145
H	 -0.791555	 -1.205429	 0.862701
C	 -2.445012	 0.710901	 -1.408485
H	 -1.655547	 1.331015	 0.493526
H	 -2.747498	 -0.009209	 0.595245
H	 -1.667154	 1.162667	 -2.015241
H	 -3.283378	 1.396450	 -1.383429
H	 -2.772429	 -0.192760	 -1.911995
C	 2.884339	 -0.237801	 0.002883
H	 3.064150	 0.362814	 -0.876312
H	 3.533055	 -1.098529	 0.004958
H	 3.059365	 0.363432	 0.882614

	symmetry c1
}
set optking {
	frozen_dihedral = ("
		9 5 3 6
	")
}

ee,wfn = optimize('scf', return_wfn=True)
oeprop( wfn, 'DIPOLE', 'QUADRUPOLE', 'MULLIKEN_CHARGES')
f=open( 'psi4out.xyz', 'w' )
f.write( "17  " )
f.write( str(ee) + "\n" )
f.write( MOL.save_string_xyz() )
f.close()
--------------------------------------------------------------------------

    Molecular point group: c1
  Charge       = 0
  Multiplicity = 1
  Basis Set: CC-PVTZ
  Basis Set:
  @DF-RHF Final Energy:  -345.03264097675913
    Total Energy =                       -345.0326409767589553
    Molecular point group: c1
  Basis Set: CC-PVTZ
  Basis Set:
  Basis Set: CC-PVTZ
  Basis Set:
  @DF-RHF Final Energy:  -345.03283856539582
    Total Energy =                       -345.0328385653956502
  Basis Set: CC-PVTZ
  Basis Set:
  Basis Set: CC-PVTZ
  Basis Set:
  @DF-RHF Final Energy:  -345.03115000430887
    Total Energy =                       -345.0311500043087563
  Basis Set: CC-PVTZ
  Basis Set:
  Basis Set: CC-PVTZ
  Basis Set:
  @DF-RHF Final Energy:  -345.03303757215747
    Total Energy =                       -345.0330375721568998
  Basis Set: CC-PVTZ
  Basis Set:
  Basis Set: CC-PVTZ
  Basis Set:
  @DF-RHF Final Energy:  -345.03305361622455
    Total Energy =                       -345.0330536162248336
  Basis Set: CC-PVTZ
  Basis Set:
  Basis Set: CC-PVTZ
  Basis Set:
  @DF-RHF Final Energy:  -345.03305654200477
    Total Energy =                       -345.0330565420049425
  Basis Set: CC-PVTZ
  Basis Set:
  Charge       = 0
  Multiplicity = 1
  Basis Set: CC-PVTZ
  Basis Set:

    Orbital Energies (a.u.)
    -----------------------

    Doubly Occupied:

       1A    -20.597170     2A    -20.535357     3A    -11.365665
       4A    -11.279137     5A    -11.234461     6A    -11.219115
       7A    -11.208148     8A     -1.473350     9A     -1.366868
      10A     -1.079591    11A     -1.001287    12A     -0.938754
      13A     -0.829135    14A     -0.768385    15A     -0.704149
      16A     -0.685342    17A     -0.676192    18A     -0.621672
      19A     -0.613518    20A     -0.569609    21A     -0.568188
      22A     -0.535396    23A     -0.525486    24A     -0.488241
      25A     -0.483178    26A     -0.481717    27A     -0.461249
      28A     -0.442022

  @DF-RHF Final Energy:  -345.03305734223989

   => Energetics <=

    Nuclear Repulsion Energy =            316.8388886911602640
    One-Electron Energy =               -1098.2391347800805761
    Two-Electron Energy =                 436.3671887466807107
    DFT Exchange-Correlation Energy =       0.0000000000000000
    Empirical Dispersion Energy =           0.0000000000000000
    PCM Polarization Energy =               0.0000000000000000
    EFP Energy =                            0.0000000000000000
    Total Energy =                       -345.0330573422396014
    Molecular point group: c1
  Basis Set: CC-PVTZ
  Basis Set:

  -Total Gradient:
     Atom            X                  Y                   Z
    ------   -----------------  -----------------  -----------------
       1        0.000020588182    -0.000039245152     0.000009039606
       2        0.000033659636     0.000057166031     0.000065014431
       3       -0.002160533757    -0.002686744218     0.001521966785
       4        0.000026804536    -0.000017794377    -0.000038390994
       5       -0.000729347425    -0.001026432585     0.003350431960
       6        0.001874652531     0.002372132250    -0.001832316484
       7       -0.000010681675     0.000010147400     0.000034167651
       8       -0.000030555867    -0.000025769898    -0.000024836697
       9        0.001007218882     0.001319318918    -0.003088973823
      10        0.000013224667     0.000012514268    -0.000000530596
      11        0.000005444356     0.000005025067    -0.000008204632
      12       -0.000008040911     0.000004004707     0.000007458667
      13        0.000006495734     0.000002178153    -0.000001705415
      14       -0.000047143247    -0.000003496094     0.000001198351
      15        0.000001152941     0.000008298666     0.000003782673
      16       -0.000006116913    -0.000001239641     0.000001936421
      17        0.000003178334     0.000009936506    -0.000000037905

  **** Optimization is complete! (in 7 steps) ****
    Final optimized geometry and variables:
    Molecular point group: c1

    Geometry (in Angstrom), charge = 0, multiplicity = 1:

    O            0.633356469129     1.149067513023     0.171902270020
    C            0.456707346489    -0.021263711580     0.194587999025
    C           -0.885041018519    -0.712478472896     0.260934807675
    O            1.443361695055    -0.901579564249     0.160597116865
    C           -2.074574433843     0.248033115066     0.285034267761
    H           -0.921025331806    -1.364044223111    -0.605720862976
    H           -0.863450398975    -1.356155652412     1.132038211387
    C           -2.583014100922     0.597832681569    -1.111577596286
    H           -1.776570152902     1.163801170208     0.776845840435
    H           -2.877707628943    -0.194689991921     0.862117214725
    H           -1.800523762653     1.057555193931    -1.704369760976
    H           -3.409740946213     1.296398005144    -1.058497150970
    H           -2.928987670038    -0.286032329579    -1.637788230120
    C            2.761983774867    -0.397107476209     0.095595358525
    H            2.900904725183     0.192705468499    -0.798285762280
    H            3.409528891188    -1.258607137207     0.077426492940
    H            2.979284752747     0.214510198691     0.958667683697

  Mulliken Charges: (a.u.)
   Center  Symbol    Alpha    Beta     Spin     Total
       1     O     4.19816  4.19816  0.00000 -0.39632
       2     C     2.80435  2.80435  0.00000  0.39130
       3     C     3.10367  3.10367  0.00000 -0.20735
       4     O     4.14685  4.14685  0.00000 -0.29370
       5     C     3.08764  3.08764  0.00000 -0.17528
       6     H     0.44126  0.44126  0.00000  0.11748
       7     H     0.43227  0.43227  0.00000  0.13546
       8     C     3.14934  3.14934  0.00000 -0.29867
       9     H     0.44266  0.44266  0.00000  0.11468
      10     H     0.44764  0.44764  0.00000  0.10473
      11     H     0.44913  0.44913  0.00000  0.10175
      12     H     0.44832  0.44832  0.00000  0.10335
      13     H     0.45808  0.45808  0.00000  0.08384
      14     C     3.03660  3.03660  0.00000 -0.07320
      15     H     0.45442  0.45442  0.00000  0.09116
      16     H     0.44537  0.44537  0.00000  0.10926
      17     H     0.45425  0.45425  0.00000  0.09150

   Total alpha = 28.00000, Total beta = 28.00000, Total charge = -0.00000

*** Psi4 exiting successfully. Buy a developer a beer!
