  ==> Input File <==

--------------------------------------------------------------------------
set {
	reference rhf
	basis cc-pvtz
}

set_num_threads( 4 )
memory 2 gb

molecule MOL {
0 1

H	 1.185669	 -0.328527	 1.572103
O	 1.353565	 -0.397380	 0.649323
C	 0.706474	 0.636793	 -0.025501
C	 -0.793473	 0.591216	 0.050087
H	 1.013588	 0.565864	 -1.062299
H	 1.047084	 1.606496	 0.332773
C	 -1.534243	 -0.493009	 -0.013340
H	 -1.266611	 1.552628	 0.164437
H	 -1.101195	 -1.466332	 -0.144046
H	 -2.604242	 -0.437780	 0.050785

	symmetry c1
}
set optking {
	frozen_dihedral = ("
		5 3 4 7
	")
}

ee = optimize('scf')
oeprop('DIPOLE', 'QUADRUPOLE', 'MULLIKEN_CHARGES')
f=open( 'psi4out.xyz', 'w' )
f.write( "10  " )
f.write( str(ee) + "\n" )
f.write( MOL.save_string_xyz() )
f.close()
--------------------------------------------------------------------------

    Molecular point group: c1
  Charge       = 0
  Multiplicity = 1
  Basis Set: CC-PVTZ
  Basis Set:
  @DF-RHF Final Energy:  -191.99532182592162
    Total Energy =                       -191.9953218259215930
    Molecular point group: c1
  Basis Set: CC-PVTZ
  Basis Set:
  Basis Set: CC-PVTZ
  Basis Set:
  @DF-RHF Final Energy:  -191.99603281454574
    Total Energy =                       -191.9960328145457424
  Basis Set: CC-PVTZ
  Basis Set:
  Basis Set: CC-PVTZ
  Basis Set:
  @DF-RHF Final Energy:  -191.99610101526861
    Total Energy =                       -191.9961010152684651
  Basis Set: CC-PVTZ
  Basis Set:
  Basis Set: CC-PVTZ
  Basis Set:
  @DF-RHF Final Energy:  -191.99610789292632
    Total Energy =                       -191.9961078929264602
  Basis Set: CC-PVTZ
  Basis Set:
  Charge       = 0
  Multiplicity = 1
  Basis Set: CC-PVTZ
  Basis Set:

    Orbital Energies (a.u.)
    -----------------------

    Doubly Occupied:

       1A    -20.550947     2A    -11.276164     3A    -11.229995
       4A    -11.220180     5A     -1.369957     6A     -1.062366
       7A     -0.928314     8A     -0.775831     9A     -0.684090
      10A     -0.665102    11A     -0.611954    12A     -0.578674
      13A     -0.551049    14A     -0.483415    15A     -0.452962
      16A     -0.371089

  @DF-RHF Final Energy:  -191.99610889482656

   => Energetics <=

    Nuclear Repulsion Energy =            119.1792459640950881
    One-Electron Energy =                -496.7265235844171798
    Two-Electron Energy =                 185.5511687254954722
    DFT Exchange-Correlation Energy =       0.0000000000000000
    Empirical Dispersion Energy =           0.0000000000000000
    PCM Polarization Energy =               0.0000000000000000
    EFP Energy =                            0.0000000000000000
    Total Energy =                       -191.9961088948266479
    Molecular point group: c1
  Basis Set: CC-PVTZ
  Basis Set:

  -Total Gradient:
     Atom            X                  Y                   Z
    ------   -----------------  -----------------  -----------------
       1       -0.000016817657     0.000028943963    -0.000014442742
       2        0.000082208170    -0.000043849237     0.000022084366
       3       -0.000315568766     0.004896902440    -0.002281412701
       4        0.000322090743    -0.001282436021     0.005514635128
       5        0.000175545281    -0.003822793520     0.000379497111
       6       -0.000022320677    -0.000049254019    -0.000008521142
       7       -0.000221630677     0.000250635687    -0.003572946884
       8       -0.000001534026    -0.000010558544     0.000000674778
       9       -0.000001934581     0.000025501789    -0.000007393266
      10       -0.000000037807     0.000006907462    -0.000032174648

  **** Optimization is complete! (in 5 steps) ****
    Final optimized geometry and variables:
    Molecular point group: c1

    Geometry (in Angstrom), charge = 0, multiplicity = 1:

    H            1.049770564314    -0.520537063965     1.316157549924
    O            1.337584424308    -0.476751301256     0.421821938307
    C            0.699278514126     0.588758724352    -0.225119155341
    C           -0.807552862772     0.536552817760    -0.134804994490
    H            1.001910302828     0.506108027465    -1.261248615938
    H            1.057772064885     1.540958151192     0.153564274490
    C           -1.519427448648    -0.568567156755    -0.180113802744
    H           -1.310966255330     1.487316046325    -0.089221971499
    H           -1.054181567906    -1.534835077498    -0.240541149356
    H           -2.591974135130    -0.541680979741    -0.143190973182

  Mulliken Charges: (a.u.)
   Center  Symbol    Alpha    Beta     Spin     Total
       1     H     0.39310  0.39310  0.00000  0.21379
       2     O     4.20024  4.20024  0.00000 -0.40048
       3     C     2.95397  2.95397  0.00000  0.09206
       4     C     3.09893  3.09893  0.00000 -0.19785
       5     H     0.45148  0.45148  0.00000  0.09705
       6     H     0.46411  0.46411  0.00000  0.07177
       7     C     3.16968  3.16968  0.00000 -0.33937
       8     H     0.42069  0.42069  0.00000  0.15863
       9     H     0.42087  0.42087  0.00000  0.15825
      10     H     0.42693  0.42693  0.00000  0.14614

   Total alpha = 16.00000, Total beta = 16.00000, Total charge = -0.00000
