  ==> Input File <==

--------------------------------------------------------------------------
set {
	reference rhf
	basis 6-31G*
}

set_num_threads( 4 )
memory 2 gb

molecule MOL {
0 1

H	 2.591676	 2.013956	 0.335017
O	 3.341076	 1.666752	 -0.126416
C	 3.569581	 0.339145	 0.272707
C	 2.539767	 -0.640285	 -0.279495
H	 4.553106	 0.084646	 -0.100901
H	 3.608576	 0.269204	 1.359154
C	 1.115811	 -0.397273	 0.226630
H	 2.556196	 -0.582511	 -1.364741
H	 2.852081	 -1.648031	 -0.010655
C	 0.165100	 -1.550654	 -0.106057
H	 0.735030	 0.523324	 -0.206812
H	 1.135475	 -0.250856	 1.306684
C	 -1.254208	 -1.396819	 0.452728
H	 0.115139	 -1.673100	 -1.186500
H	 0.590385	 -2.473099	 0.283723
C	 -2.063460	 -0.245935	 -0.151470
H	 -1.792035	 -2.326754	 0.280161
H	 -1.203566	 -1.273759	 1.533528
C	 -3.504968	 -0.198148	 0.359614
H	 -2.070979	 -0.343059	 -1.236192
H	 -1.582232	 0.704558	 0.065985
C	 -4.313115	 0.953607	 -0.237062
H	 -3.998725	 -1.140574	 0.132621
H	 -3.499473	 -0.110893	 1.444161
H	 -4.364879	 0.876746	 -1.319484
H	 -5.330109	 0.959310	 0.142840
H	 -3.865058	 1.913593	 0.003843

	symmetry c1
}
set optking {
	frozen_dihedral = ("
		10 7 4 8
	")
}

ee = optimize('scf')
oeprop('DIPOLE', 'QUADRUPOLE', 'MULLIKEN_CHARGES')
f=open( 'psi4out.xyz', 'w' )
f.write( "27  " )
f.write( str(ee) + "\n" )
f.write( MOL.save_string_xyz() )
f.close()
--------------------------------------------------------------------------

    Molecular point group: c1
  Charge       = 0
  Multiplicity = 1
  Basis Set: 6-31G*
  Basis Set:
  @DF-RHF Final Energy:  -388.28139463598126
    Total Energy =                       -388.2813946359808597
    Molecular point group: c1
  Basis Set: 6-31G*
  Basis Set:
  Basis Set: 6-31G*
  Basis Set:
  @DF-RHF Final Energy:  -388.28141328658148
    Total Energy =                       -388.2814132865820511
  Basis Set: 6-31G*
  Basis Set:
  Basis Set: 6-31G*
  Basis Set:
  @DF-RHF Final Energy:  -388.28144247049710
    Total Energy =                       -388.2814424704969269
  Basis Set: 6-31G*
  Basis Set:
  Basis Set: 6-31G*
  Basis Set:
  @DF-RHF Final Energy:  -388.28145977539009
    Total Energy =                       -388.2814597753896351
  Basis Set: 6-31G*
  Basis Set:
  Basis Set: 6-31G*
  Basis Set:
  @DF-RHF Final Energy:  -388.28146474844596
    Total Energy =                       -388.2814647484453872
  Basis Set: 6-31G*
  Basis Set:
  Charge       = 0
  Multiplicity = 1
  Basis Set: 6-31G*
  Basis Set:

    Orbital Energies (a.u.)
    -----------------------

    Doubly Occupied:

       1A    -20.552239     2A    -11.266832     3A    -11.220029
       4A    -11.217659     5A    -11.216209     6A    -11.215913
       7A    -11.215305     8A    -11.214417     9A    -11.209424
      10A     -1.359015    11A     -1.095319    12A     -1.061581
      13A     -1.011614    14A     -0.948546    15A     -0.888126
      16A     -0.820260    17A     -0.801432    18A     -0.778594
      19A     -0.694128    20A     -0.650750    21A     -0.637261
      22A     -0.615707    23A     -0.601564    24A     -0.583420
      25A     -0.579205    26A     -0.552829    27A     -0.541848
      28A     -0.530413    29A     -0.505336    30A     -0.494866
      31A     -0.485956    32A     -0.474825    33A     -0.469215
      34A     -0.461335    35A     -0.451038    36A     -0.441936
      37A     -0.422917

  @DF-RHF Final Energy:  -388.28146555574739

   => Energetics <=

    Nuclear Repulsion Energy =            459.5399088132934935
    One-Electron Energy =               -1437.0686257892969024
    Two-Electron Energy =                 589.2472514202560205
    DFT Exchange-Correlation Energy =       0.0000000000000000
    Empirical Dispersion Energy =           0.0000000000000000
    PCM Polarization Energy =               0.0000000000000000
    EFP Energy =                            0.0000000000000000
    Total Energy =                       -388.2814655557473316
    Molecular point group: c1
  Basis Set: 6-31G*
  Basis Set:

  -Total Gradient:
     Atom            X                  Y                   Z
    ------   -----------------  -----------------  -----------------
       1        0.000006465269    -0.000018403866     0.000002961573
       2        0.000026342924    -0.000018323887    -0.000024794871
       3       -0.000022179353     0.000009463993     0.000033341859
       4       -0.000286352508    -0.002297285682     0.000246849788
       5       -0.000009323655     0.000005815985     0.000001805609
       6       -0.000002911316     0.000005412928     0.000006230724
       7       -0.000337766746     0.001185218480    -0.001422690242
       8        0.000319105018     0.001697552589     0.000124894197
       9        0.000003000702     0.000000182908    -0.000019725520
      10        0.000315478710    -0.000569967370     0.001068556292
      11       -0.000010566061    -0.000000144527    -0.000014123630
      12       -0.000001282268     0.000012754727    -0.000011100604
      13        0.000001311730     0.000004735561     0.000010699563
      14        0.000000850325    -0.000007085101     0.000006781622
      15        0.000008558301    -0.000000032062     0.000005430453
      16        0.000004142428     0.000012796608     0.000016017115
      17        0.000002319185     0.000004281742    -0.000025117582
      18       -0.000015237228    -0.000021048753     0.000002346549
      19        0.000004447601     0.000009021854     0.000008461539
      20       -0.000013675717    -0.000011217838     0.000001921344
      21        0.000007579788    -0.000002269188    -0.000017354906
      22       -0.000000670632    -0.000001056316    -0.000000552879
      23        0.000000854042    -0.000001840044     0.000000734962
      24       -0.000000506984     0.000001403880    -0.000001351009
      25        0.000000210153     0.000000271470    -0.000000036238
      26       -0.000000206227    -0.000000362408    -0.000000583634
      27        0.000000012521     0.000000124310     0.000000397925

  **** Optimization is complete! (in 6 steps) ****
    Final optimized geometry and variables:
    Molecular point group: c1

    Geometry (in Angstrom), charge = 0, multiplicity = 1:

    H            2.552423893958     2.108128982118     0.323136420259
    O            3.307740773530     1.793716695893    -0.152370026050
    C            3.574108199288     0.463267807958     0.212101344138
    C            2.547503120679    -0.523075100054    -0.334268151619
    H            4.552375671043     0.237447265736    -0.192443367753
    H            3.642635385840     0.371452493970     1.295483659602
    C            1.129810865073    -0.292415070829     0.198090752399
    H            2.546826765198    -0.441729601649    -1.418038582851
    H            2.875689877369    -1.529986875023    -0.083571780557
    C            0.172950730931    -1.438037683897    -0.144027522580
    H            0.747123505029     0.642563673453    -0.200408793502
    H            1.164457773377    -0.180122967521     1.282429511516
    C           -1.247396953280    -1.277989606196     0.410404470349
    H            0.125557844446    -1.557375281791    -1.225169479740
    H            0.592509928486    -2.363455105921     0.244314542493
    C           -2.053599288699    -0.130257439596    -0.203730400989
    H           -1.786470135246    -2.208074063298     0.242706484923
    H           -1.199162467107    -1.148006568476     1.490552880280
    C           -3.493074166291    -0.070297094042     0.311820727398
    H           -2.065448916148    -0.240046457785    -1.287185557687
    H           -1.567552405115     0.820610856170     0.000695022903
    C           -4.299273243360     1.075995516907    -0.297850863902
    H           -3.990987772378    -1.013998674538     0.099635486947
    H           -3.483394036908     0.031925426621     1.395031235279
    H           -4.355403611582     0.984216780674    -1.378877524914
    H           -5.314792460968     1.090679330361     0.085715886825
    H           -3.846829288575     2.037582321774    -0.072055035049

  Mulliken Charges: (a.u.)
   Center  Symbol    Alpha    Beta     Spin     Total
       1     H     0.27982  0.27982  0.00000  0.44036
       2     O     4.37115  4.37115  0.00000 -0.74230
       3     C     2.99760  2.99760  0.00000  0.00480
       4     C     3.16075  3.16075  0.00000 -0.32150
       5     H     0.41466  0.41466  0.00000  0.17069
       6     H     0.43200  0.43200  0.00000  0.13600
       7     C     3.16530  3.16530  0.00000 -0.33059
       8     H     0.41465  0.41465  0.00000  0.17070
       9     H     0.42396  0.42396  0.00000  0.15209
      10     C     3.15209  3.15209  0.00000 -0.30419
      11     H     0.41978  0.41978  0.00000  0.16044
      12     H     0.42673  0.42673  0.00000  0.14655
      13     C     3.15368  3.15368  0.00000 -0.30737
      14     H     0.42183  0.42183  0.00000  0.15634
      15     H     0.42140  0.42140  0.00000  0.15720
      16     C     3.15230  3.15230  0.00000 -0.30461
      17     H     0.42118  0.42118  0.00000  0.15765
      18     H     0.42439  0.42439  0.00000  0.15123
      19     C     3.15124  3.15124  0.00000 -0.30249
      20     H     0.42358  0.42358  0.00000  0.15283
      21     H     0.42371  0.42371  0.00000  0.15258
      22     C     3.23917  3.23917  0.00000 -0.47835
      23     H     0.42287  0.42287  0.00000  0.15427
      24     H     0.42333  0.42333  0.00000  0.15333
      25     H     0.42144  0.42144  0.00000  0.15712
      26     H     0.41921  0.41921  0.00000  0.16157
      27     H     0.42217  0.42217  0.00000  0.15566

   Total alpha = 37.00000, Total beta = 37.00000, Total charge =  0.00000
