                              Psi4 1.0.54 Driver

  ==> Input File <==

--------------------------------------------------------------------------
set {
	reference rhf
	basis cc-pvtz
}

set_num_threads( 4 )
memory 2 gb

molecule MOL {
0 1

H	 -3.543356	 0.176331	 2.684285
O	 -2.831915	 -0.374341	 2.414457
C	 -1.954341	 0.341595	 1.586378
C	 -0.823152	 -0.578038	 1.173088
H	 -2.476078	 0.706818	 0.704236
H	 -1.555184	 1.206487	 2.112179
C	 0.196029	 0.106276	 0.266738
H	 -1.248134	 -1.441179	 0.670497
H	 -0.336099	 -0.948226	 2.069557
C	 1.330220	 -0.826136	 -0.155230
H	 -0.311447	 0.492150	 -0.612059
H	 0.617073	 0.967901	 0.780455
C	 2.719700	 -0.407669	 0.328325
H	 1.339388	 -0.911200	 -1.239363
H	 1.119001	 -1.821953	 0.224128
C	 3.241564	 0.893452	 -0.276737
H	 3.418299	 -1.204729	 0.093035
H	 2.711776	 -0.323368	 1.411960
H	 3.254204	 0.841071	 -1.360784
H	 2.634460	 1.745075	 0.005842
H	 4.254264	 1.092401	 0.054971

	symmetry c1
}
set optking {
	frozen_dihedral = ("
		4 7 10 14
	")
}

ee,wfn = optimize('scf', return_wfn=True)
oeprop( wfn, 'DIPOLE', 'QUADRUPOLE', 'MULLIKEN_CHARGES')
f=open( 'psi4out.xyz', 'w' )
f.write( "21  " )
f.write( str(ee) + "\n" )
f.write( MOL.save_string_xyz() )
f.close()
--------------------------------------------------------------------------

    Molecular point group: c1
  Charge       = 0
  Multiplicity = 1
  Basis Set: CC-PVTZ
  Basis Set:
  @DF-RHF Final Energy:  -310.32753149663461
    Total Energy =                       -310.3275314966346627
    Molecular point group: c1
  Basis Set: CC-PVTZ
  Basis Set:
  Basis Set: CC-PVTZ
  Basis Set:
  @DF-RHF Final Energy:  -310.32775618347512
    Total Energy =                       -310.3277561834752305
  Basis Set: CC-PVTZ
  Basis Set:
  Basis Set: CC-PVTZ
  Basis Set:
  @DF-RHF Final Energy:  -310.32794510524178
    Total Energy =                       -310.3279451052418949
  Basis Set: CC-PVTZ
  Basis Set:
  Basis Set: CC-PVTZ
  Basis Set:
  @DF-RHF Final Energy:  -310.32795194948238
    Total Energy =                       -310.3279519494824399
  Basis Set: CC-PVTZ
  Basis Set:
  Basis Set: CC-PVTZ
  Basis Set:
  @DF-RHF Final Energy:  -310.32796078471603
    Total Energy =                       -310.3279607847162538
  Basis Set: CC-PVTZ
  Basis Set:
  Basis Set: CC-PVTZ
  Basis Set:
  @DF-RHF Final Energy:  -310.32796283001710
    Total Energy =                       -310.3279628300168724
  Basis Set: CC-PVTZ
  Basis Set:
  Charge       = 0
  Multiplicity = 1
  Basis Set: CC-PVTZ
  Basis Set:

    Orbital Energies (a.u.)
    -----------------------

    Doubly Occupied:

       1A    -20.545476     2A    -11.264846     3A    -11.213272
       4A    -11.213183     5A    -11.210960     6A    -11.209453
       7A    -11.206009     8A     -1.363301     9A     -1.085822
      10A     -1.034215    11A     -0.953897    12A     -0.876138
      13A     -0.811193    14A     -0.777743    15A     -0.695704
      16A     -0.660266    17A     -0.626238    18A     -0.608506
      19A     -0.580063    20A     -0.575187    21A     -0.541696
      22A     -0.523185    23A     -0.503373    24A     -0.491405
      25A     -0.482492    26A     -0.456414    27A     -0.453028
      28A     -0.444780    29A     -0.437676

  @DF-RHF Final Energy:  -310.32796288338608

   => Energetics <=

    Nuclear Repulsion Energy =            313.6509296413029801
    One-Electron Energy =               -1042.2667556338992654
    Two-Electron Energy =                 418.2878631092104911
    DFT Exchange-Correlation Energy =       0.0000000000000000
    Empirical Dispersion Energy =           0.0000000000000000
    PCM Polarization Energy =               0.0000000000000000
    EFP Energy =                            0.0000000000000000
    Total Energy =                       -310.3279628833857373
    Molecular point group: c1
  Basis Set: CC-PVTZ
  Basis Set:

  -Total Gradient:
     Atom            X                  Y                   Z
    ------   -----------------  -----------------  -----------------
       1        0.000001037667     0.000001028158    -0.000000245722
       2        0.000000054198    -0.000002493157     0.000003826517
       3        0.000000657321     0.000003314347     0.000001359328
       4        0.000042298947     0.000024030561     0.000071819365
       5        0.000003339089    -0.000002458618     0.000000174967
       6       -0.000001547642     0.000002756110     0.000001489094
       7       -0.000051508608    -0.000014822902    -0.000113805550
       8       -0.000000827153     0.000003292175    -0.000001369216
       9        0.000000655614    -0.000003160949    -0.000000294260
      10       -0.000077223290    -0.000113150795     0.000048179446
      11       -0.000002574372     0.000002292440    -0.000000790853
      12       -0.000002073303     0.000000067565    -0.000000481433
      13        0.000003505153    -0.000007895408    -0.000008312494
      14        0.000078920695     0.000104535469    -0.000001173301
      15        0.000002924407    -0.000002926501    -0.000001685828
      16        0.000001591942     0.000004125484    -0.000002356398
      17        0.000003726165    -0.000004021368     0.000003221847
      18       -0.000002627572     0.000002144125     0.000000523444
      19        0.000001351203    -0.000000216738    -0.000003857434
      20       -0.000002936364     0.000005462642     0.000001941117
      21        0.000001255906    -0.000001902641     0.000001837364

  **** Optimization is complete! (in 7 steps) ****
    Final optimized geometry and variables:
    Molecular point group: c1

    Geometry (in Angstrom), charge = 0, multiplicity = 1:

    H           -3.761808043224     0.193171115816     1.903164924258
    O           -3.051802826717    -0.345157804586     1.606187631686
    C           -2.169239591162     0.410157614046     0.819392762399
    C           -1.041606865666    -0.490714325298     0.359007824616
    H           -2.687269977924     0.824730268752    -0.042972706745
    H           -1.767333012962     1.243846198850     1.391550408095
    C           -0.018576574341     0.234626253661    -0.511741577998
    H           -1.468531913067    -1.325972157048    -0.186947830152
    H           -0.553743842950    -0.908050779412     1.234556821749
    C            1.142985240710    -0.675776272182    -0.964761293437
    H           -0.522551476562     0.653393649021    -1.376987190502
    H            0.373766635319     1.081954707638     0.042071400554
    C            2.521469770362    -0.247668859906    -0.457167848679
    H            1.172671631002    -0.725805072742    -2.048800416874
    H            0.951601205017    -1.688341135450    -0.625924336800
    C            3.044799059861     1.038571023800    -1.090871357440
    H            3.230293542114    -1.046181215619    -0.654069515290
    H            2.485888399650    -0.133090618893     0.623270582225
    H            3.141067026118     0.927516965429    -2.166071986743
    H            2.385334378156     1.878705713307    -0.905578954402
    H            4.021188909391     1.296763277471    -0.696934042156

  Mulliken Charges: (a.u.)
   Center  Symbol    Alpha    Beta     Spin     Total
       1     H     0.39742  0.39742  0.00000  0.20516
       2     O     4.19463  4.19463  0.00000 -0.38926
       3     C     2.96385  2.96385  0.00000  0.07229
       4     C     3.08377  3.08377  0.00000 -0.16755
       5     H     0.47501  0.47501  0.00000  0.04999
       6     H     0.47500  0.47500  0.00000  0.04999
       7     C     3.10954  3.10954  0.00000 -0.21909
       8     H     0.45005  0.45005  0.00000  0.09991
       9     H     0.45083  0.45083  0.00000  0.09834
      10     C     3.10033  3.10033  0.00000 -0.20067
      11     H     0.44864  0.44864  0.00000  0.10273
      12     H     0.45444  0.45444  0.00000  0.09113
      13     C     3.08896  3.08896  0.00000 -0.17793
      14     H     0.44883  0.44883  0.00000  0.10234
      15     H     0.44795  0.44795  0.00000  0.10411
      16     C     3.14986  3.14986  0.00000 -0.29972
      17     H     0.44895  0.44895  0.00000  0.10211
      18     H     0.45453  0.45453  0.00000  0.09094
      19     H     0.45483  0.45483  0.00000  0.09035
      20     H     0.45485  0.45485  0.00000  0.09031
      21     H     0.44774  0.44774  0.00000  0.10452

   Total alpha = 29.00000, Total beta = 29.00000, Total charge = -0.00000

*** Psi4 exiting successfully. Buy a developer a beer!
