  ==> Input File <==

--------------------------------------------------------------------------
set {
	reference rhf
	basis cc-pvtz
}

set_num_threads( 4 )
memory 2 gb

molecule MOL {
0 1

H	 -1.522468	 0.687575	 -2.228673
C	 -1.138848	 0.367045	 -1.283140
C	 -1.926483	 0.430001	 -0.089481
C	 0.104147	 -0.109592	 -1.179149
H	 -2.930203	 0.808452	 -0.139262
C	 -1.422559	 0.022809	 1.079635
H	 0.754434	 -0.187504	 -2.027793
N	 0.640204	 -0.530428	 -0.000115
H	 -1.982174	 0.055401	 1.991627
C	 -0.066978	 -0.496438	 1.189241
C	 2.006991	 -1.033007	 -0.000020
O	 0.420849	 -0.871627	 2.220503
H	 2.182444	 -1.636914	 -0.880881
H	 2.678769	 -0.195442	 -0.002236
H	 2.183828	 -1.633244	 0.883082

	symmetry c1
}
set optking {
	frozen_dihedral = ("
		10 8 11 13
	")
}

ee = optimize('scf')
oeprop('DIPOLE', 'QUADRUPOLE', 'MULLIKEN_CHARGES')
f=open( 'psi4out.xyz', 'w' )
f.write( "15  " )
f.write( str(ee) + "\n" )
f.write( MOL.save_string_xyz() )
f.close()
--------------------------------------------------------------------------

    Molecular point group: c1
  Charge       = 0
  Multiplicity = 1
  Basis Set: CC-PVTZ
  Basis Set:
  @DF-RHF Final Energy:  -360.72231165319187
    Total Energy =                       -360.7223116531917526
    Molecular point group: c1
  Basis Set: CC-PVTZ
  Basis Set:
  Basis Set: CC-PVTZ
  Basis Set:
  @DF-RHF Final Energy:  -360.72268489592483
    Total Energy =                       -360.7226848959248855
  Basis Set: CC-PVTZ
  Basis Set:
  Basis Set: CC-PVTZ
  Basis Set:
  @DF-RHF Final Energy:  -360.72269983957938
    Total Energy =                       -360.7226998395794340
  Basis Set: CC-PVTZ
  Basis Set:
  Basis Set: CC-PVTZ
  Basis Set:
  @DF-RHF Final Energy:  -360.72273900550169
    Total Energy =                       -360.7227390055018077
  Basis Set: CC-PVTZ
  Basis Set:
  Basis Set: CC-PVTZ
  Basis Set:
  @DF-RHF Final Energy:  -360.72274105595409
    Total Energy =                       -360.7227410559543159
  Basis Set: CC-PVTZ
  Basis Set:
  Charge       = 0
  Multiplicity = 1
  Basis Set: CC-PVTZ
  Basis Set:

    Orbital Energies (a.u.)
    -----------------------

    Doubly Occupied:

       1A    -20.501825     2A    -15.616773     3A    -11.339161
       4A    -11.293459     5A    -11.264016     6A    -11.258176
       7A    -11.230402     8A    -11.228228     9A     -1.390691
      10A     -1.285783    11A     -1.118793    12A     -1.028929
      13A     -0.972379    14A     -0.875871    15A     -0.838666
      16A     -0.719200    17A     -0.702821    18A     -0.663520
      19A     -0.652983    20A     -0.625415    21A     -0.611905
      22A     -0.574167    23A     -0.557015    24A     -0.550454
      25A     -0.529711    26A     -0.483234    27A     -0.420406
      28A     -0.410627    29A     -0.310785

  @DF-RHF Final Energy:  -360.72274117179893

   => Energetics <=

    Nuclear Repulsion Energy =            358.5287259029232700
    One-Electron Energy =               -1200.3921359424221009
    Two-Electron Energy =                 481.1406688676999011
    DFT Exchange-Correlation Energy =       0.0000000000000000
    Empirical Dispersion Energy =           0.0000000000000000
    PCM Polarization Energy =               0.0000000000000000
    EFP Energy =                            0.0000000000000000
    Total Energy =                       -360.7227411717989298
    Molecular point group: c1
  Basis Set: CC-PVTZ
  Basis Set:

  -Total Gradient:
     Atom            X                  Y                   Z
    ------   -----------------  -----------------  -----------------
       1       -0.000002758316    -0.000008266916    -0.000002252597
       2        0.000005739961    -0.000025010419    -0.000005035778
       3        0.000004012699     0.000017903729     0.000013647716
       4        0.000010949332     0.000049658489    -0.000001394609
       5       -0.000000122188    -0.000003748942    -0.000002454552
       6       -0.000002679194     0.000008403658     0.000000143710
       7       -0.000002493513    -0.000010869370    -0.000003237772
       8        0.000191058652     0.000557795144     0.000220623068
       9        0.000000142676    -0.000006589577     0.000000460215
      10       -0.000166815775    -0.000500998142    -0.000105025978
      11        0.000155681190     0.000417699906    -0.000440463233
      12       -0.000005419403     0.000005611746     0.000014681941
      13       -0.000187242776    -0.000499854864     0.000317347765
      14        0.000010999068    -0.000005695958    -0.000002037204
      15       -0.000011052412     0.000003961513    -0.000005002689

  **** Optimization is complete! (in 6 steps) ****
    Final optimized geometry and variables:
    Molecular point group: c1

    Geometry (in Angstrom), charge = 0, multiplicity = 1:

    H           -1.415985065935     0.999683495044    -2.496390404172
    C           -1.030673777367     0.675680748073    -1.552726440695
    C           -1.817568280885     0.730322456392    -0.358364710178
    C            0.212300446106     0.196744052055    -1.454021257322
    H           -2.822483562605     1.105926934132    -0.405785501978
    C           -1.312127630794     0.318069635888     0.808528258618
    H            0.859666908074     0.121734631699    -2.304837837866
    N            0.747957379523    -0.233032163543    -0.278511475320
    H           -1.870603495963     0.345500639492     1.721481233338
    C            0.047521589807    -0.190145480254     0.914316098498
    C            2.117439156935    -0.726884283056    -0.266247285594
    O            0.549064535686    -0.549682979645     1.944465907720
    H            2.286967316665    -1.340330066055    -1.139860311702
    H            2.823664850480     0.094050898908    -0.260427548418
    H            2.263505993417    -1.316789628166     0.619836496950

  Mulliken Charges: (a.u.)
   Center  Symbol    Alpha    Beta     Spin     Total
       1     H     0.41396  0.41396  0.00000  0.17208
       2     C     3.10315  3.10315  0.00000 -0.20631
       3     C     3.06164  3.06164  0.00000 -0.12327
       4     C     3.03311  3.03311  0.00000 -0.06621
       5     H     0.41838  0.41838  0.00000  0.16325
       6     C     3.11706  3.11706  0.00000 -0.23412
       7     H     0.42123  0.42123  0.00000  0.15753
       8     N     3.51186  3.51186  0.00000 -0.02372
       9     H     0.40895  0.40895  0.00000  0.18210
      10     C     2.84525  2.84525  0.00000  0.30950
      11     C     3.10436  3.10436  0.00000 -0.20873
      12     O     4.23639  4.23639  0.00000 -0.47278
      13     H     0.45381  0.45381  0.00000  0.09239
      14     H     0.44702  0.44702  0.00000  0.10596
      15     H     0.42384  0.42384  0.00000  0.15232

   Total alpha = 29.00000, Total beta = 29.00000, Total charge =  0.00000
