  ==> Input File <==

--------------------------------------------------------------------------
set {
	reference rhf
	basis 6-31G*
}

set_num_threads( 4 )
memory 2 gb

molecule MOL {
0 1

H	 2.866480	 -0.465706	 0.876907
C	 2.405773	 -0.024801	 0.000000
N	 0.988830	 -0.304158	 0.000000
H	 2.866480	 -0.465706	 -0.876907
H	 2.629928	 1.045948	 0.000000
C	 0.357196	 0.038987	 -1.260658
C	 0.299567	 0.331292	 1.107740
H	 0.446919	 1.108179	 -1.478091
H	 0.848322	 -0.503091	 -2.062651
C	 -1.113994	 -0.340155	 -1.217762
H	 0.748494	 0.003253	 2.039996
H	 0.385091	 1.421784	 1.062892
C	 -1.170095	 -0.055602	 1.087829
H	 -1.620785	 -0.010861	 -2.115396
H	 -1.209962	 -1.421808	 -1.141697
O	 -1.758493	 0.276017	 -0.138454
H	 -1.717351	 0.478938	 1.853202
H	 -1.268703	 -1.123867	 1.272370

	symmetry c1
}
set optking {
	frozen_dihedral = ("
		6 3 2 5
	")
}

ee = optimize('scf')
oeprop('DIPOLE', 'QUADRUPOLE', 'MULLIKEN_CHARGES')
f=open( 'psi4out.xyz', 'w' )
f.write( "18  " )
f.write( str(ee) + "\n" )
f.write( MOL.save_string_xyz() )
f.close()
--------------------------------------------------------------------------

    Molecular point group: c1
  Charge       = 0
  Multiplicity = 1
  Basis Set: 6-31G*
  Basis Set:
  @DF-RHF Final Energy:  -325.02843672992276
    Total Energy =                       -325.0284367299226460
    Molecular point group: c1
  Basis Set: 6-31G*
  Basis Set:
  Basis Set: 6-31G*
  Basis Set:
  @DF-RHF Final Energy:  -325.02846856848231
    Total Energy =                       -325.0284685684824808
  Basis Set: 6-31G*
  Basis Set:
  Charge       = 0
  Multiplicity = 1
  Basis Set: 6-31G*
  Basis Set:

    Orbital Energies (a.u.)
    -----------------------

    Doubly Occupied:

       1A    -20.554069     2A    -15.548899     3A    -11.266285
       4A    -11.266221     5A    -11.244153     6A    -11.244125
       7A    -11.241114     8A     -1.383440     9A     -1.232110
      10A     -1.038676    11A     -0.981304    12A     -0.883115
      13A     -0.868944    14A     -0.774334    15A     -0.683559
      16A     -0.645745    17A     -0.643510    18A     -0.634433
      19A     -0.628628    20A     -0.571625    21A     -0.557449
      22A     -0.540312    23A     -0.527590    24A     -0.501990
      25A     -0.484753    26A     -0.452475    27A     -0.408003
      28A     -0.352102

  @DF-RHF Final Energy:  -325.02847158952000

   => Energetics <=

    Nuclear Repulsion Energy =            341.4617644323502645
    One-Electron Energy =               -1118.6625450903438832
    Two-Electron Energy =                 452.1723090684738509
    DFT Exchange-Correlation Energy =       0.0000000000000000
    Empirical Dispersion Energy =           0.0000000000000000
    PCM Polarization Energy =               0.0000000000000000
    EFP Energy =                            0.0000000000000000
    Total Energy =                       -325.0284715895197678
    Molecular point group: c1
  Basis Set: 6-31G*
  Basis Set:

  -Total Gradient:
     Atom            X                  Y                   Z
    ------   -----------------  -----------------  -----------------
       1       -0.000049271297     0.000007398473     0.000015078572
       2        0.000159993443    -0.000377651315    -0.002408879771
       3       -0.000354414888     0.001470867127     0.001045065576
       4       -0.000030651281    -0.000031677099     0.000016147100
       5       -0.000014428000    -0.000005924749     0.001716394654
       6        0.000187225702    -0.001032993722    -0.000550440487
       7       -0.000031443667     0.000093344145     0.000041206165
       8        0.000023753219     0.000003681685     0.000019316357
       9        0.000005991514    -0.000020257047     0.000042727477
      10        0.000075326119    -0.000075762563     0.000139376706
      11        0.000020950615    -0.000022573276    -0.000021706854
      12       -0.000008755403    -0.000016537355     0.000010183699
      13        0.000032029322    -0.000008672460    -0.000059007390
      14        0.000032163261     0.000015870514     0.000016087591
      15       -0.000027929406    -0.000022459938    -0.000006828012
      16       -0.000028965120     0.000016888509    -0.000009626922
      17        0.000007481236     0.000005008835    -0.000005689207
      18        0.000000944634     0.000001450235     0.000000594747

  **** Optimization is complete! (in 3 steps) ****
    Final optimized geometry and variables:
    Molecular point group: c1

    Geometry (in Angstrom), charge = 0, multiplicity = 1:

    H            2.855644962407    -0.454630676592     0.950678344550
    C            2.406375238429    -0.023125403039     0.062446324203
    N            0.987523935083    -0.292494122765     0.056748578078
    H            2.872458799945    -0.479491893817    -0.802877612260
    H            2.638412210297     1.045863693322     0.058968671067
    C            0.353948837591     0.045978285506    -1.203812535253
    C            0.299829167514     0.333981423152     1.169232968689
    H            0.439815070757     1.114432505853    -1.426622106484
    H            0.844340260952    -0.499039692386    -2.003930721324
    C           -1.116110523961    -0.337087794483    -1.155741701575
    H            0.752417527386     0.000947284346     2.098082373287
    H            0.383766234521     1.424822133933     1.130993169879
    C           -1.169183238985    -0.055180185399     1.150612185158
    H           -1.626850508474    -0.010553140937    -2.052165038631
    H           -1.208431643743    -1.418886287564    -1.077698495706
    O           -1.758979318858     0.277865127909    -0.074658431776
    H           -1.716600092392     0.476545934112     1.917867779594
    H           -1.265817113247    -1.124012599740     1.332374069577

  Mulliken Charges: (a.u.)
   Center  Symbol    Alpha    Beta     Spin     Total
       1     H     0.41570  0.41570  0.00000  0.16860
       2     C     3.13968  3.13968  0.00000 -0.27937
       3     N     3.78880  3.78880  0.00000 -0.57760
       4     H     0.41632  0.41632  0.00000  0.16736
       5     H     0.43230  0.43230  0.00000  0.13540
       6     C     3.06727  3.06727  0.00000 -0.13454
       7     C     3.06745  3.06745  0.00000 -0.13490
       8     H     0.42848  0.42848  0.00000  0.14304
       9     H     0.41691  0.41691  0.00000  0.16618
      10     C     2.99781  2.99781  0.00000  0.00438
      11     H     0.41687  0.41687  0.00000  0.16625
      12     H     0.42826  0.42826  0.00000  0.14348
      13     C     2.99763  2.99763  0.00000  0.00473
      14     H     0.41326  0.41326  0.00000  0.17347
      15     H     0.42399  0.42399  0.00000  0.15202
      16     O     4.31203  4.31203  0.00000 -0.62406
      17     H     0.41324  0.41324  0.00000  0.17351
      18     H     0.42398  0.42398  0.00000  0.15205

   Total alpha = 28.00000, Total beta = 28.00000, Total charge = -0.00000
