  ==> Input File <==

--------------------------------------------------------------------------
set {
	reference rhf
	basis cc-pvtz
}

set_num_threads( 4 )
memory 2 gb

molecule MOL {
0 1

H	 2.440790	 2.784524	 -1.128671
O	 1.503684	 2.739661	 -1.185646
C	 1.029541	 1.626696	 -0.592381
C	 1.862589	 0.697113	 0.011430
C	 -0.335786	 1.427039	 -0.598764
H	 2.925947	 0.854225	 0.015481
C	 1.329439	 -0.428275	 0.606583
H	 -0.981815	 2.143128	 -1.064280
C	 -0.861704	 0.296439	 0.000000
H	 1.983677	 -1.140605	 1.070677
C	 -0.035294	 -0.635443	 0.604538
C	 -2.330689	 0.069587	 0.000000
H	 -0.452774	 -1.509603	 1.066536
O	 -2.848621	 -0.993976	 0.000000
H	 -2.934306	 0.982410	 0.000000

	symmetry c1
}
set optking {
	frozen_dihedral = ("
		11 9 12 14
	")
}

ee = optimize('scf')
oeprop('DIPOLE', 'QUADRUPOLE', 'MULLIKEN_CHARGES')
f=open( 'psi4out.xyz', 'w' )
f.write( "15  " )
f.write( str(ee) + "\n" )
f.write( MOL.save_string_xyz() )
f.close()
--------------------------------------------------------------------------

    Molecular point group: c1
  Charge       = 0
  Multiplicity = 1
  Basis Set: CC-PVTZ
  Basis Set:
  @DF-RHF Final Energy:  -418.43608985681277
    Total Energy =                       -418.4360898568124867
    Molecular point group: c1
  Basis Set: CC-PVTZ
  Basis Set:
  Basis Set: CC-PVTZ
  Basis Set:
  @DF-RHF Final Energy:  -418.43508058532757
    Total Energy =                       -418.4350805853268866
  Basis Set: CC-PVTZ
  Basis Set:
  Basis Set: CC-PVTZ
  Basis Set:
  @DF-RHF Final Energy:  -418.43635092135321
    Total Energy =                       -418.4363509213533234
  Basis Set: CC-PVTZ
  Basis Set:
  Basis Set: CC-PVTZ
  Basis Set:
  @DF-RHF Final Energy:  -418.43660532265989
    Total Energy =                       -418.4366053226603981
  Basis Set: CC-PVTZ
  Basis Set:
  Basis Set: CC-PVTZ
  Basis Set:
  @DF-RHF Final Energy:  -418.43661002687173
    Total Energy =                       -418.4366100268719038
  Basis Set: CC-PVTZ
  Basis Set:
  Charge       = 0
  Multiplicity = 1
  Basis Set: CC-PVTZ
  Basis Set:

    Orbital Energies (a.u.)
    -----------------------

    Doubly Occupied:

       1A    -20.598310     2A    -20.556773     3A    -11.328855
       4A    -11.313341     5A    -11.252252     6A    -11.248961
       7A    -11.244984     8A    -11.243364     9A    -11.236518
      10A     -1.429755    11A     -1.412128    12A     -1.173811
      13A     -1.053778    14A     -1.028207    15A     -0.903979
      16A     -0.849095    17A     -0.818289    18A     -0.742106
      19A     -0.704788    20A     -0.678789    21A     -0.666930
      22A     -0.634765    23A     -0.615010    24A     -0.610412
      25A     -0.584627    26A     -0.551221    27A     -0.541732
      28A     -0.518891    29A     -0.493125    30A     -0.427181
      31A     -0.360007    32A     -0.329282

  @DF-RHF Final Energy:  -418.43661138781044

   => Energetics <=

    Nuclear Repulsion Energy =            403.1618776994830569
    One-Electron Energy =               -1368.8944483034233599
    Two-Electron Energy =                 547.2959592161297451
    DFT Exchange-Correlation Energy =       0.0000000000000000
    Empirical Dispersion Energy =           0.0000000000000000
    PCM Polarization Energy =               0.0000000000000000
    EFP Energy =                            0.0000000000000000
    Total Energy =                       -418.4366113878105580
    Molecular point group: c1
  Basis Set: CC-PVTZ
  Basis Set:

  -Total Gradient:
     Atom            X                  Y                   Z
    ------   -----------------  -----------------  -----------------
       1        0.000001515862     0.000001476993    -0.000003384639
       2        0.000005873079    -0.000024869179     0.000009826755
       3       -0.000094135543     0.000056412106    -0.000012008291
       4        0.000008255886    -0.000079864508     0.000051924455
       5        0.000021755693     0.000035723751    -0.000040032215
       6       -0.000002170021    -0.000002029416     0.000007636565
       7        0.000076296182     0.000051045973    -0.000071645230
       8        0.000010683387    -0.000001730509     0.000010567936
       9        0.000351991540    -0.003252483906    -0.007286828876
      10       -0.000001921395    -0.000004212825     0.000007784163
      11       -0.000306801099     0.002174358807     0.003452026691
      12       -0.000109186071     0.001143026978     0.008860757210
      13       -0.000006308634    -0.000007382092     0.000016716999
      14       -0.000003977992    -0.000093707800    -0.004997251228
      15        0.000048129125     0.000004235620    -0.000006090295

  **** Optimization is complete! (in 6 steps) ****
    Final optimized geometry and variables:
    Molecular point group: c1

    Geometry (in Angstrom), charge = 0, multiplicity = 1:

    H            2.515179402291     2.230320679942    -0.991245911439
    O            1.577612144512     2.178935826054    -1.038557492295
    C            1.120492488039     1.059983086825    -0.442704378469
    C            1.955318297695     0.138136216916     0.157531995086
    C           -0.248728154470     0.853684129680    -0.433941792445
    H            3.017820613907     0.300658945795     0.164688446380
    C            1.422665409040    -0.991040491695     0.757775549557
    H           -0.888505205524     1.588634639246    -0.884076005820
    C           -0.766780388618    -0.289869965814     0.138766885588
    H            2.081378337545    -1.693228150437     1.231367798572
    C            0.064843096133    -1.215420297895     0.752700012966
    C           -2.243142933310    -0.480491533219     0.150772764214
    H           -0.356625710299    -2.089833689175     1.205624254446
    O           -2.779516459871    -1.534033215549     0.176039597877
    H           -2.828609909194     0.442416189685     0.092322850488

  Mulliken Charges: (a.u.)
   Center  Symbol    Alpha    Beta     Spin     Total
       1     H     0.38626  0.38626  0.00000  0.22749
       2     O     4.17200  4.17200  0.00000 -0.34400
       3     C     2.84156  2.84156  0.00000  0.31688
       4     C     3.13164  3.13164  0.00000 -0.26327
       5     C     3.13028  3.13028  0.00000 -0.26057
       6     H     0.43161  0.43161  0.00000  0.13677
       7     C     3.05901  3.05901  0.00000 -0.11801
       8     H     0.41892  0.41892  0.00000  0.16215
       9     C     2.95049  2.95049  0.00000  0.09902
      10     H     0.41884  0.41884  0.00000  0.16232
      11     C     3.10774  3.10774  0.00000 -0.21548
      12     C     2.91574  2.91574  0.00000  0.16853
      13     H     0.41176  0.41176  0.00000  0.17647
      14     O     4.16672  4.16672  0.00000 -0.33343
      15     H     0.45743  0.45743  0.00000  0.08513

   Total alpha = 32.00000, Total beta = 32.00000, Total charge = -0.00000
