  ==> Input File <==

--------------------------------------------------------------------------
set {
	reference rhf
	basis 6-31G*
}

set_num_threads( 4 )
memory 2 gb

molecule MOL {
0 1

H	 2.703300	 -0.948341	 -0.291872
N	 2.332695	 -0.069570	 0.000000
C	 0.936681	 -0.007078	 0.000000
H	 2.755792	 0.224299	 0.854053
C	 0.227108	 -0.002120	 -1.198267
C	 0.227108	 -0.002120	 1.198267
H	 0.761569	 -0.014657	 -2.132680
C	 -1.156334	 0.010459	 -1.192360
H	 0.761569	 -0.014657	 2.132680
C	 -1.156334	 0.010459	 1.192360
H	 -1.684791	 0.014915	 -2.129421
C	 -1.862085	 0.017996	 0.000000
H	 -1.684791	 0.014915	 2.129421
H	 -2.936703	 0.028387	 0.000000

	symmetry c1
}
set optking {
	frozen_dihedral = ("
		1 2 3 5
	")
}

ee = optimize('scf')
oeprop('DIPOLE', 'QUADRUPOLE', 'MULLIKEN_CHARGES')
f=open( 'psi4out.xyz', 'w' )
f.write( "14  " )
f.write( str(ee) + "\n" )
f.write( MOL.save_string_xyz() )
f.close()
--------------------------------------------------------------------------

    Molecular point group: c1
  Charge       = 0
  Multiplicity = 1
  Basis Set: 6-31G*
  Basis Set:
  @DF-RHF Final Energy:  -285.72621135470405
    Total Energy =                       -285.7262113547039917
    Molecular point group: c1
  Basis Set: 6-31G*
  Basis Set:
  Basis Set: 6-31G*
  Basis Set:
  @DF-RHF Final Energy:  -285.72763510210928
    Total Energy =                       -285.7276351021092751
  Basis Set: 6-31G*
  Basis Set:
  Basis Set: 6-31G*
  Basis Set:
  @DF-RHF Final Energy:  -285.72783471568675
    Total Energy =                       -285.7278347156868108
  Basis Set: 6-31G*
  Basis Set:
  Basis Set: 6-31G*
  Basis Set:
  @DF-RHF Final Energy:  -285.72784668074121
    Total Energy =                       -285.7278466807415498
  Basis Set: 6-31G*
  Basis Set:
  Charge       = 0
  Multiplicity = 1
  Basis Set: 6-31G*
  Basis Set:

    Orbital Energies (a.u.)
    -----------------------

    Doubly Occupied:

       1A    -15.555492     2A    -11.265605     3A    -11.229421
       4A    -11.228395     5A    -11.222250     6A    -11.219518
       7A    -11.218708     8A     -1.214896     9A     -1.126426
      10A     -1.010621    11A     -0.985068    12A     -0.827903
      13A     -0.807739    14A     -0.701738    15A     -0.672727
      16A     -0.648460    17A     -0.607645    18A     -0.590375
      19A     -0.580872    20A     -0.513825    21A     -0.501202
      22A     -0.487576    23A     -0.433201    24A     -0.331191
      25A     -0.303171

  @DF-RHF Final Energy:  -285.72784797539589

   => Energetics <=

    Nuclear Repulsion Energy =            272.7234805167192917
    One-Electron Energy =                -926.3346052408742253
    Two-Electron Energy =                 367.8832767487592150
    DFT Exchange-Correlation Energy =       0.0000000000000000
    Empirical Dispersion Energy =           0.0000000000000000
    PCM Polarization Energy =               0.0000000000000000
    EFP Energy =                            0.0000000000000000
    Total Energy =                       -285.7278479753957185
    Molecular point group: c1
  Basis Set: 6-31G*
  Basis Set:

  -Total Gradient:
     Atom            X                  Y                   Z
    ------   -----------------  -----------------  -----------------
       1        0.000140706307    -0.001261900920     0.002953336841
       2       -0.000188354593     0.002716083799    -0.003758839150
       3       -0.000025008963    -0.003871553156     0.000421719441
       4        0.000050825417     0.000000566993     0.000086855045
       5        0.000159136880     0.002441590621     0.000165372004
       6       -0.000157530836    -0.000018150373     0.000125323136
       7       -0.000003205815     0.000000562046    -0.000028563523
       8       -0.000158880663    -0.000053144276     0.000128871869
       9        0.000002363020     0.000021889819    -0.000004340714
      10        0.000189669643    -0.000038878949     0.000089925195
      11        0.000025274984     0.000013847815     0.000003069504
      12       -0.000012104056     0.000048707318    -0.000201484209
      13       -0.000019948231    -0.000000486168    -0.000011807335
      14       -0.000002943096     0.000000865431     0.000030561897

  **** Optimization is complete! (in 5 steps) ****
    Final optimized geometry and variables:
    Molecular point group: c1

    Geometry (in Angstrom), charge = 0, multiplicity = 1:

    H            2.727450805843    -0.863912947224    -0.374593394923
    N            2.347121868651    -0.004535819798    -0.028732464425
    C            0.931651988889    -0.024902508896     0.004548830490
    H            2.734717000511     0.153125378264     0.879674629601
    C            0.229193694240    -0.007429510677    -1.196599015416
    C            0.221588911468     0.005385693821     1.197704622999
    H            0.777372341790     0.004478360646    -2.121693606239
    C           -1.153246551774     0.004797330572    -1.198685046234
    H            0.752242373699     0.000355909149     2.134710805188
    C           -1.164484602744     0.041974840624     1.190220343921
    H           -1.680872249429     0.010651234321    -2.136107327836
    C           -1.860548567411     0.033476531646    -0.005344455153
    H           -1.697644720492     0.068629928985     2.124150731138
    H           -2.935349960130     0.055032132451    -0.009826065356

  Mulliken Charges: (a.u.)
   Center  Symbol    Alpha    Beta     Spin     Total
       1     H     0.32204  0.32204  0.00000  0.35592
       2     N     3.93849  3.93849  0.00000 -0.87698
       3     C     2.87843  2.87843  0.00000  0.24315
       4     H     0.32467  0.32467  0.00000  0.35066
       5     C     3.11069  3.11069  0.00000 -0.22139
       6     C     3.12323  3.12323  0.00000 -0.24646
       7     H     0.39749  0.39749  0.00000  0.20502
       8     C     3.09464  3.09464  0.00000 -0.18928
       9     H     0.40472  0.40472  0.00000  0.19056
      10     C     3.09394  3.09394  0.00000 -0.18787
      11     H     0.40018  0.40018  0.00000  0.19965
      12     C     3.10952  3.10952  0.00000 -0.21905
      13     H     0.40039  0.40039  0.00000  0.19921
      14     H     0.40157  0.40157  0.00000  0.19686

   Total alpha = 25.00000, Total beta = 25.00000, Total charge = -0.00000
