  ==> Input File <==

--------------------------------------------------------------------------
set {
	reference rhf
	basis 6-31G*
}

set_num_threads( 4 )
memory 2 gb

molecule MOL {
0 1

H	 1.633814	 4.839651	 -0.507754
C	 2.288303	 4.667559	 0.355756
C	 1.634374	 3.971949	 1.522424
O	 3.421859	 5.022414	 0.326081
C	 0.930920	 2.670571	 1.112761
H	 2.387537	 3.795960	 2.281688
H	 0.899200	 4.661858	 1.934978
C	 1.894540	 1.577042	 0.644862
H	 0.357894	 2.307721	 1.960857
H	 0.207248	 2.882896	 0.327285
C	 1.180775	 0.282413	 0.250794
H	 2.610311	 1.370301	 1.437816
H	 2.478010	 1.936359	 -0.200711
C	 2.148627	 -0.814315	 -0.201312
H	 0.591715	 -0.065974	 1.095405
H	 0.473669	 0.490319	 -0.551179
C	 3.580890	 -0.659131	 0.322722
H	 2.166869	 -0.852443	 -1.289387
H	 1.762857	 -1.776509	 0.128956
C	 4.324889	 0.564933	 -0.213704
H	 4.142010	 -1.551473	 0.056605
H	 3.564836	 -0.624694	 1.410140
H	 4.342616	 0.565491	 -1.300421
H	 3.866655	 1.493402	 0.110242
H	 5.353900	 0.572371	 0.132816

	symmetry c1
}
set optking {
	frozen_dihedral = ("
		8 11 14 18
	")
}

ee = optimize('scf')
oeprop('DIPOLE', 'QUADRUPOLE', 'MULLIKEN_CHARGES')
f=open( 'psi4out.xyz', 'w' )
f.write( "25  " )
f.write( str(ee) + "\n" )
f.write( MOL.save_string_xyz() )
f.close()
--------------------------------------------------------------------------

    Molecular point group: c1
  Charge       = 0
  Multiplicity = 1
  Basis Set: 6-31G*
  Basis Set:
  @DF-RHF Final Energy:  -387.08663717718588
    Total Energy =                       -387.0866371771858212
    Molecular point group: c1
  Basis Set: 6-31G*
  Basis Set:
  Basis Set: 6-31G*
  Basis Set:
  @DF-RHF Final Energy:  -387.10519993203354
    Total Energy =                       -387.1051999320329742
  Basis Set: 6-31G*
  Basis Set:
  Basis Set: 6-31G*
  Basis Set:
  @DF-RHF Final Energy:  -387.11012626925645
    Total Energy =                       -387.1101262692563978
  Basis Set: 6-31G*
  Basis Set:
  Basis Set: 6-31G*
  Basis Set:
  @DF-RHF Final Energy:  -387.11123661533486
    Total Energy =                       -387.1112366153349740
  Basis Set: 6-31G*
  Basis Set:
  @DF-RHF Final Energy:  -387.11175816100570
    Total Energy =                       -387.1117581610062643
  @DF-RHF Final Energy:  -387.11191843869182
    Total Energy =                       -387.1119184386923280
  @DF-RHF Final Energy:  -387.11200869791401
    Total Energy =                       -387.1120086979138932
  @DF-RHF Final Energy:  -387.11203907569154
    Total Energy =                       -387.1120390756915413
  @DF-RHF Final Energy:  -387.11206133956364
    Total Energy =                       -387.1120613395639793
  @DF-RHF Final Energy:  -387.11210543192965
    Total Energy =                       -387.1121054319297627
  @DF-RHF Final Energy:  -387.11212373056014
    Total Energy =                       -387.1121237305601426
  Basis Set: 6-31G*
  Basis Set:
  @DF-RHF Final Energy:  -387.11210861620947
    Total Energy =                       -387.1121086162090705
  Basis Set: 6-31G*
  Basis Set:
  Basis Set: 6-31G*
  Basis Set:
  @DF-RHF Final Energy:  -387.11212642751264
    Total Energy =                       -387.1121264275132035
  Basis Set: 6-31G*
  Basis Set:
  Basis Set: 6-31G*
  Basis Set:
  @DF-RHF Final Energy:  -387.11213100902273
    Total Energy =                       -387.1121310090228462
  Basis Set: 6-31G*
  Basis Set:
  Charge       = 0
  Multiplicity = 1
  Basis Set: 6-31G*
  Basis Set:

    Orbital Energies (a.u.)
    -----------------------

    Doubly Occupied:

       1A    -20.562211     2A    -11.326339     3A    -11.235411
       4A    -11.234780     5A    -11.223513     6A    -11.221212
       7A    -11.217980     8A    -11.217379     9A    -11.206842
      10A     -1.402142    11A     -1.102544    12A     -1.065514
      13A     -1.009907    14A     -0.946896    15A     -0.873811
      16A     -0.827146    17A     -0.788856    18A     -0.771434
      19A     -0.665550    20A     -0.660135    21A     -0.627510
      22A     -0.622821    23A     -0.608761    24A     -0.593647
      25A     -0.567454    26A     -0.555778    27A     -0.532197
      28A     -0.521713    29A     -0.515250    30A     -0.496130
      31A     -0.488953    32A     -0.485069    33A     -0.453589
      34A     -0.449529    35A     -0.442565    36A     -0.409702

  @DF-RHF Final Energy:  -387.11213067430879

   => Energetics <=

    Nuclear Repulsion Energy =            450.7601891510217911
    One-Electron Energy =               -1417.8840975763737333
    Two-Electron Energy =                 580.0117777510429278
    DFT Exchange-Correlation Energy =       0.0000000000000000
    Empirical Dispersion Energy =           0.0000000000000000
    PCM Polarization Energy =               0.0000000000000000
    EFP Energy =                            0.0000000000000000
    Total Energy =                       -387.1121306743090145
    Molecular point group: c1
  Basis Set: 6-31G*
  Basis Set:

  -Total Gradient:
     Atom            X                  Y                   Z
    ------   -----------------  -----------------  -----------------
       1        0.000002443529     0.000004819259    -0.000006984392
       2       -0.000003894751    -0.000022248046    -0.000000087783
       3        0.000009887875    -0.000041223691    -0.000010571417
       4        0.000004220812     0.000005050809    -0.000006413475
       5       -0.000006987141     0.000044511439    -0.000026536295
       6        0.000000794451     0.000003603352    -0.000003688066
       7       -0.000023853530    -0.000008705445     0.000024711648
       8        0.000157035171    -0.001378633892     0.004277140587
       9        0.000014764083     0.000022186604     0.000015369171
      10        0.000005135327    -0.000012678031    -0.000000232128
      11       -0.001474633378     0.001316342976    -0.006319782763
      12       -0.000022298078     0.000000985546    -0.000026819054
      13        0.000009504606     0.000000167180     0.000021242278
      14        0.005753826957     0.003978018391     0.001947253524
      15        0.000007518516    -0.000000137162    -0.000009216940
      16       -0.000026595698     0.000020482134     0.000038585735
      17        0.000041410789    -0.000026515211     0.000066314285
      18       -0.004628549393    -0.003808562495     0.000089005882
      19       -0.000010654649     0.000010656361    -0.000027940669
      20        0.000119651595    -0.000077820496    -0.000012221831
      21        0.000045896897    -0.000001408307    -0.000012546203
      22        0.000061875670    -0.000095959492    -0.000041495241
      23        0.000020781037    -0.000010110408     0.000026206739
      24       -0.000043618988     0.000055670532     0.000011608997
      25       -0.000013661711     0.000021508089    -0.000012902591

  **** Optimization is complete! (in 15 steps) ****
    Final optimized geometry and variables:
    Molecular point group: c1

    Geometry (in Angstrom), charge = 0, multiplicity = 1:

    H           -1.044603020567     3.043799069268    -0.853108234949
    C           -0.359167246554     2.890417772165    -0.010243920433
    C           -0.930356574510     2.101194789895     1.140148699446
    O            0.740899477141     3.338209912563    -0.046384073828
    C           -1.520142454574     0.755702121444     0.694513810058
    H           -0.152509440408     1.968470453983     1.883252218349
    H           -1.718073224401     2.707501251940     1.585543951655
    C           -0.466724751979    -0.232222236316     0.184108075029
    H           -2.050011434196     0.317115149205     1.535105526242
    H           -2.267908239286     0.927421901958    -0.077937830621
    C           -1.094231203142    -1.563849838934    -0.239066196292
    H            0.267625430490    -0.394959408754     0.966966760317
    H            0.068670690972     0.211709766290    -0.651549300238
    C           -0.152577523347    -2.709201246807    -0.689484837624
    H           -1.671718749857    -1.923434597397     0.610501811488
    H           -1.818553005406    -1.380487796731    -1.028343282249
    C            1.275644667594    -2.766794463879    -0.125243733025
    H           -0.125857742879    -2.756800527506    -1.775878589093
    H           -0.648947546183    -3.633407111767    -0.403157156621
    C            2.306239213078    -1.893754366037    -0.845486815456
    H            1.611907252223    -3.798205027009    -0.193094067346
    H            1.266314464864    -2.531265478528     0.936191511359
    H            2.348664078212    -2.144413086975    -1.901779704010
    H            2.087467933611    -0.836047980770    -0.766653288887
    H            3.297007035272    -2.053227587809    -0.430673886024

  Mulliken Charges: (a.u.)
   Center  Symbol    Alpha    Beta     Spin     Total
       1     H     0.43250  0.43250  0.00000  0.13501
       2     C     2.83103  2.83103  0.00000  0.33795
       3     C     3.20779  3.20779  0.00000 -0.41559
       4     O     4.23782  4.23782  0.00000 -0.47564
       5     C     3.16655  3.16655  0.00000 -0.33310
       6     H     0.39990  0.39990  0.00000  0.20019
       7     H     0.40670  0.40670  0.00000  0.18660
       8     C     3.15852  3.15852  0.00000 -0.31703
       9     H     0.41291  0.41291  0.00000  0.17417
      10     H     0.41962  0.41962  0.00000  0.16076
      11     C     3.15398  3.15398  0.00000 -0.30796
      12     H     0.41596  0.41596  0.00000  0.16807
      13     H     0.41765  0.41765  0.00000  0.16470
      14     C     3.15638  3.15638  0.00000 -0.31275
      15     H     0.42339  0.42339  0.00000  0.15321
      16     H     0.42062  0.42062  0.00000  0.15877
      17     C     3.15704  3.15704  0.00000 -0.31409
      18     H     0.42130  0.42130  0.00000  0.15740
      19     H     0.41995  0.41995  0.00000  0.16009
      20     C     3.24143  3.24143  0.00000 -0.48285
      21     H     0.41979  0.41979  0.00000  0.16042
      22     H     0.42212  0.42212  0.00000  0.15576
      23     H     0.42207  0.42207  0.00000  0.15585
      24     H     0.41557  0.41557  0.00000  0.16885
      25     H     0.41940  0.41940  0.00000  0.16121

   Total alpha = 36.00000, Total beta = 36.00000, Total charge =  0.00000
