  ==> Input File <==

--------------------------------------------------------------------------
set {
	reference rhf
	basis 6-31G*
}

set_num_threads( 4 )
memory 2 gb

molecule MOL {
0 1

H	 0.421258	 -0.334916	 -2.100556
O	 -0.043608	 0.475453	 -2.258847
C	 -0.049598	 1.234298	 -1.084930
C	 -0.793441	 0.596080	 0.058728
H	 -0.514199	 2.180304	 -1.338748
H	 0.967018	 1.462696	 -0.766573
C	 -1.530462	 -0.493172	 -0.025500
H	 -0.692814	 1.102648	 1.006222
H	 -1.092586	 -1.461565	 -0.186463
H	 -2.602122	 -0.450675	 0.050101

	symmetry c1
}
set optking {
	frozen_dihedral = ("
		3 4 7 9
	")
}

ee = optimize('scf')
oeprop('DIPOLE', 'QUADRUPOLE', 'MULLIKEN_CHARGES')
f=open( 'psi4out.xyz', 'w' )
f.write( "10  " )
f.write( str(ee) + "\n" )
f.write( MOL.save_string_xyz() )
f.close()
--------------------------------------------------------------------------

    Molecular point group: c1
  Charge       = 0
  Multiplicity = 1
  Basis Set: 6-31G*
  Basis Set:
  @DF-RHF Final Energy:  -191.80400219849511
    Total Energy =                       -191.8040021984951409
    Molecular point group: c1
  Basis Set: 6-31G*
  Basis Set:
  Basis Set: 6-31G*
  Basis Set:
  @DF-RHF Final Energy:  -191.83599746605444
    Total Energy =                       -191.8359974660544367
  Basis Set: 6-31G*
  Basis Set:
  Basis Set: 6-31G*
  Basis Set:
  @DF-RHF Final Energy:  -191.86711048226812
    Total Energy =                       -191.8671104822681173
  Basis Set: 6-31G*
  Basis Set:
  Basis Set: 6-31G*
  Basis Set:
  @DF-RHF Final Energy:  -191.87645280245727
    Total Energy =                       -191.8764528024573508
  Basis Set: 6-31G*
  Basis Set:
  @DF-RHF Final Energy:  -191.87688661286592
    Total Energy =                       -191.8768866128658885
  @DF-RHF Final Energy:  -191.87699889075179
    Total Energy =                       -191.8769988907518780
  @DF-RHF Final Energy:  -191.87706158772710
    Total Energy =                       -191.8770615877270984
  @DF-RHF Final Energy:  -191.87706212016224
    Total Energy =                       -191.8770621201621793
  @DF-RHF Final Energy:  -191.87559190584898
    Total Energy =                       -191.8755919058489496
  @DF-RHF Final Energy:  -191.87260241475735
    Total Energy =                       -191.8726024147573241
  @DF-RHF Final Energy:  -191.87692673173001
    Total Energy =                       -191.8769267317300660
  @DF-RHF Final Energy:  -191.87705641990982
    Total Energy =                       -191.8770564199097635
  Basis Set: 6-31G*
  Basis Set:
  @DF-RHF Final Energy:  -191.87706162237623
    Total Energy =                       -191.8770616223762318
  Basis Set: 6-31G*
  Basis Set:
  Basis Set: 6-31G*
  Basis Set:
  @DF-RHF Final Energy:  -191.87706289095510
    Total Energy =                       -191.8770628909550737
  Basis Set: 6-31G*
  Basis Set:
  Basis Set: 6-31G*
  Basis Set:
  @DF-RHF Final Energy:  -191.87706219370656
    Total Energy =                       -191.8770621937066210
  Basis Set: 6-31G*
  Basis Set:
  Charge       = 0
  Multiplicity = 1
  Basis Set: 6-31G*
  Basis Set:

    Orbital Energies (a.u.)
    -----------------------

    Doubly Occupied:

       1A    -20.559057     2A    -11.283011     3A    -11.238185
       4A    -11.225086     5A     -1.367481     6A     -1.058894
       7A     -0.932080     8A     -0.770196     9A     -0.689222
      10A     -0.648454    11A     -0.611955    12A     -0.570129
      13A     -0.542972    14A     -0.485076    15A     -0.444323
      16A     -0.353306

  @DF-RHF Final Energy:  -191.87706250980543

   => Energetics <=

    Nuclear Repulsion Energy =            117.8467270980361548
    One-Electron Energy =                -493.8887268825920955
    Two-Electron Energy =                 184.1649372747505709
    DFT Exchange-Correlation Energy =       0.0000000000000000
    Empirical Dispersion Energy =           0.0000000000000000
    PCM Polarization Energy =               0.0000000000000000
    EFP Energy =                            0.0000000000000000
    Total Energy =                       -191.8770625098053983
    Molecular point group: c1
  Basis Set: 6-31G*
  Basis Set:

  -Total Gradient:
     Atom            X                  Y                   Z
    ------   -----------------  -----------------  -----------------
       1        0.000002073409     0.000044949731     0.000120427624
       2       -0.000044063054     0.000011733416    -0.000096135322
       3       -0.019038027612     0.019754982589     0.000631263565
       4        0.035798280721    -0.039392601212     0.015348701955
       5        0.000023573156     0.000031066919     0.000071352190
       6        0.000014046712     0.000019261331     0.000013951701
       7       -0.024416248790     0.031375396041    -0.050930840907
       8        0.000201028490    -0.000154076266     0.000135618946
       9        0.007497132046    -0.011804819056     0.034836973679
      10       -0.000037795079     0.000114106506    -0.000131313426

  **** Optimization is complete! (in 16 steps) ****
    Final optimized geometry and variables:
    Molecular point group: c1

    Geometry (in Angstrom), charge = 0, multiplicity = 1:

    H            1.290011052479    -0.669639996341    -1.188404141130
    O            0.700335429982     0.053162938263    -1.351325255929
    C            0.512411608424     0.772496355692    -0.167325257930
    C           -0.213942215909     0.034725079524     0.932104452743
    H           -0.119952072855     1.613858770217    -0.417728933234
    H            1.455873041573     1.179587340715     0.194995795482
    C           -1.177958314898    -0.881860653388     0.828029695048
    H           -0.346726082825     0.721575072128     1.760927017310
    H           -1.068206866484    -1.889315780608     0.458915908945
    H           -1.853906638572    -0.911083431875     1.672504219353

  Mulliken Charges: (a.u.)
   Center  Symbol    Alpha    Beta     Spin     Total
       1     H     0.28065  0.28065  0.00000  0.43870
       2     O     4.36535  4.36535  0.00000 -0.73070
       3     C     2.99995  2.99995  0.00000  0.00009
       4     C     3.09563  3.09563  0.00000 -0.19125
       5     H     0.40291  0.40291  0.00000  0.19419
       6     H     0.42697  0.42697  0.00000  0.14605
       7     C     3.17921  3.17921  0.00000 -0.35841
       8     H     0.41990  0.41990  0.00000  0.16020
       9     H     0.40911  0.40911  0.00000  0.18179
      10     H     0.42033  0.42033  0.00000  0.15935

   Total alpha = 16.00000, Total beta = 16.00000, Total charge = -0.00000
