                              Psi4 1.0.54 Driver

  ==> Input File <==

--------------------------------------------------------------------------
set {
	reference rhf
	basis cc-pvtz
}

set_num_threads( 4 )
memory 2 gb

molecule MOL {
0 1

H	 -0.687468	 1.757276	 4.771161
C	 -0.294798	 1.470433	 3.814235
C	 -0.568374	 2.239534	 2.697418
C	 0.482818	 0.333506	 3.701568
H	 -1.172025	 3.121875	 2.785627
C	 -0.063439	 1.870301	 1.468108
H	 0.694399	 -0.262257	 4.568270
C	 0.989138	 -0.037524	 2.471335
H	 -0.265394	 2.454148	 0.593239
C	 0.717058	 0.730626	 1.350429
H	 1.591698	 -0.917425	 2.380636
C	 1.238974	 0.374429	 0.000004
O	 1.968286	 -0.725612	 -0.000027
O	 1.025133	 1.009093	 -0.978083
C	 3.373556	 -0.568203	 0.000011
H	 3.695416	 -0.031588	 -0.879663
H	 3.782700	 -1.565294	 -0.000152
H	 3.695405	 -0.031851	 0.879862

	symmetry c1
}
set optking {
	frozen_dihedral = ("
		10 12 13 15
	")
}

ee,wfn = optimize('scf', return_wfn=True)
oeprop( wfn, 'DIPOLE', 'QUADRUPOLE', 'MULLIKEN_CHARGES')
f=open( 'psi4out.xyz', 'w' )
f.write( "18  " )
f.write( str(ee) + "\n" )
f.write( MOL.save_string_xyz() )
f.close()
--------------------------------------------------------------------------

    Molecular point group: c1
  Charge       = 0
  Multiplicity = 1
  Basis Set: CC-PVTZ
  Basis Set:
  @DF-RHF Final Energy:  -457.49153842095683
    Total Energy =                       -457.4915384209568856
    Molecular point group: c1
  Basis Set: CC-PVTZ
  Basis Set:
  Basis Set: CC-PVTZ
  Basis Set:
  @DF-RHF Final Energy:  -457.49141714832871
    Total Energy =                       -457.4914171483287646
  Basis Set: CC-PVTZ
  Basis Set:
  Basis Set: CC-PVTZ
  Basis Set:
  @DF-RHF Final Energy:  -457.49237787693124
    Total Energy =                       -457.4923778769307319
  Basis Set: CC-PVTZ
  Basis Set:
  Basis Set: CC-PVTZ
  Basis Set:
  @DF-RHF Final Energy:  -457.49247349585818
    Total Energy =                       -457.4924734958578938
  Basis Set: CC-PVTZ
  Basis Set:
  Basis Set: CC-PVTZ
  Basis Set:
  @DF-RHF Final Energy:  -457.49267281533082
    Total Energy =                       -457.4926728153312752
  Basis Set: CC-PVTZ
  Basis Set:
  Basis Set: CC-PVTZ
  Basis Set:
  @DF-RHF Final Energy:  -457.49269583902270
    Total Energy =                       -457.4926958390228720
  Basis Set: CC-PVTZ
  Basis Set:
  Charge       = 0
  Multiplicity = 1
  Basis Set: CC-PVTZ
  Basis Set:

    Orbital Energies (a.u.)
    -----------------------

    Doubly Occupied:

       1A    -20.581217     2A    -20.545038     3A    -11.373832
       4A    -11.288122     5A    -11.248513     6A    -11.247924
       7A    -11.247214     8A    -11.244209     9A    -11.240221
      10A    -11.239329    11A     -1.465322    12A     -1.370844
      13A     -1.174335    14A     -1.050251    15A     -1.033158
      16A     -0.975036    17A     -0.873169    18A     -0.843216
      19A     -0.781951    20A     -0.742463    21A     -0.689104
      22A     -0.679728    23A     -0.665223    24A     -0.641252
      25A     -0.633278    26A     -0.611094    27A     -0.600996
      28A     -0.561374    29A     -0.531222    30A     -0.525725
      31A     -0.507741    32A     -0.500524    33A     -0.464487
      34A     -0.447469    35A     -0.354308    36A     -0.350369

  @DF-RHF Final Energy:  -457.49269642711101

   => Energetics <=

    Nuclear Repulsion Energy =            496.2899296969778788
    One-Electron Energy =               -1606.9067395546062471
    Two-Electron Energy =                 653.1241134305168998
    DFT Exchange-Correlation Energy =       0.0000000000000000
    Empirical Dispersion Energy =           0.0000000000000000
    PCM Polarization Energy =               0.0000000000000000
    EFP Energy =                            0.0000000000000000
    Total Energy =                       -457.4926964271114684
    Molecular point group: c1
  Basis Set: CC-PVTZ
  Basis Set:

  -Total Gradient:
     Atom            X                  Y                   Z
    ------   -----------------  -----------------  -----------------
       1       -0.000007582770    -0.000000786123     0.000000995845
       2        0.000001643409     0.000022085777    -0.000003214058
       3        0.000001017856    -0.000009604355     0.000024451485
       4        0.000018529101    -0.000017124301     0.000005012653
       5        0.000001376428     0.000005512886     0.000001723067
       6       -0.000016815067    -0.000019938302    -0.000020644852
       7       -0.000007109029    -0.000001859573     0.000003987955
       8       -0.000030294942    -0.000008357329     0.000037960156
       9        0.000004522817     0.000005126564    -0.000001483437
      10        0.002928255927     0.001786427297     0.000760279035
      11        0.000006664176     0.000003771119    -0.000006743967
      12       -0.004236115555    -0.002801359518     0.000632387579
      13        0.001419602757     0.001153304843    -0.005063348146
      14       -0.000007692301     0.000036618609    -0.000066363289
      15       -0.000008516608    -0.000141132081     0.003683720704
      16       -0.000013289323     0.000002882205     0.000005378249
      17       -0.000021950822    -0.000007703871     0.000007297725
      18       -0.000032246055    -0.000007863846    -0.000001396708

  **** Optimization is complete! (in 7 steps) ****
    Final optimized geometry and variables:
    Molecular point group: c1

    Geometry (in Angstrom), charge = 0, multiplicity = 1:

    H           -1.720375203445     1.127269780129     3.377401852117
    C           -1.307829364593     0.842526453459     2.428239957274
    C           -1.400175958986     1.705488668371     1.349072221976
    C           -0.689531356300    -0.384085962392     2.286437699699
    H           -1.882690057976     2.657041480052     1.460828327653
    C           -0.873442730584     1.339306531421     0.129581085079
    H           -0.623877716640    -1.054512904094     3.121318032751
    C           -0.156866914953    -0.750499492884     1.064619582781
    H           -0.940164778413     1.993431782503    -0.716004850599
    C           -0.243666933843     0.110601264523    -0.017054525727
    H            0.314894083578    -1.704485792317     0.948080850815
    C            0.323781109460    -0.244435171366    -1.349611024043
    O            1.021198046343    -1.394515052417    -1.379604634668
    O            0.198677119853     0.428402537937    -2.309397292601
    C            2.427624700418    -1.268908379895    -1.330110654862
    H            2.785843067689    -0.679260782064    -2.162943965898
    H            2.828905352721    -2.267217228917    -1.393325789370
    H            2.739551577440    -0.813505865030    -0.397338317737

  Mulliken Charges: (a.u.)
   Center  Symbol    Alpha    Beta     Spin     Total
       1     H     0.41963  0.41963  0.00000  0.16075
       2     C     3.06949  3.06949  0.00000 -0.13898
       3     C     3.07493  3.07493  0.00000 -0.14986
       4     C     3.07549  3.07549  0.00000 -0.15098
       5     H     0.41995  0.41995  0.00000  0.16011
       6     C     3.07798  3.07798  0.00000 -0.15595
       7     H     0.42094  0.42094  0.00000  0.15811
       8     C     3.09039  3.09039  0.00000 -0.18079
       9     H     0.40649  0.40649  0.00000  0.18701
      10     C     3.02856  3.02856  0.00000 -0.05711
      11     H     0.40746  0.40746  0.00000  0.18509
      12     C     2.76022  2.76022  0.00000  0.47956
      13     O     4.17274  4.17274  0.00000 -0.34548
      14     O     4.18360  4.18360  0.00000 -0.36720
      15     C     3.04375  3.04375  0.00000 -0.08751
      16     H     0.44552  0.44552  0.00000  0.10896
      17     H     0.44197  0.44197  0.00000  0.11606
      18     H     0.46089  0.46089  0.00000  0.07822

   Total alpha = 36.00000, Total beta = 36.00000, Total charge = -0.00000

*** Psi4 exiting successfully. Buy a developer a beer!
