                              Psi4 1.0.54 Driver

  ==> Input File <==

--------------------------------------------------------------------------
set {
	reference rhf
	basis cc-pvtz
}

set_num_threads( 4 )
memory 2 gb

molecule MOL {
0 1

O	 -2.440701	 -0.934798	 -0.415053
C	 -1.922978	 0.063265	 -0.045005
C	 -2.632749	 1.372204	 0.158357
O	 -0.637375	 0.157174	 0.243149
H	 -2.187724	 2.129143	 -0.474664
H	 -3.677681	 1.257276	 -0.079438
H	 -2.516788	 1.693160	 1.185542
C	 0.162530	 -1.009518	 0.097799
C	 1.587210	 -0.664190	 0.477086
H	 0.096803	 -1.356267	 -0.924704
H	 -0.233803	 -1.785900	 0.736810
C	 2.256770	 0.342732	 -0.454344
H	 2.154716	 -1.590834	 0.479041
H	 1.598751	 -0.289614	 1.496104
C	 1.763593	 0.231306	 -1.893086
H	 2.070314	 1.347883	 -0.085557
H	 3.330730	 0.198802	 -0.427192
H	 2.251326	 0.959009	 -2.531012
H	 0.693670	 0.400495	 -1.956587
H	 1.966124	 -0.753532	 -2.300630

	symmetry c1
}
set optking {
	frozen_dihedral = ("
		16 12 9 8
	")
}

ee,wfn = optimize('scf', return_wfn=True)
oeprop( wfn, 'DIPOLE', 'QUADRUPOLE', 'MULLIKEN_CHARGES')
f=open( 'psi4out.xyz', 'w' )
f.write( "20  " )
f.write( str(ee) + "\n" )
f.write( MOL.save_string_xyz() )
f.close()
--------------------------------------------------------------------------

    Molecular point group: c1
  Charge       = 0
  Multiplicity = 1
  Basis Set: CC-PVTZ
  Basis Set:
  @DF-RHF Final Energy:  -384.08058884875538
    Total Energy =                       -384.0805888487558377
    Molecular point group: c1
  Basis Set: CC-PVTZ
  Basis Set:
  Basis Set: CC-PVTZ
  Basis Set:
  @DF-RHF Final Energy:  -383.90694197235410
    Total Energy =                       -383.9069419723534793
  Basis Set: CC-PVTZ
  Basis Set:
  Basis Set: CC-PVTZ
  Basis Set:
  @DF-RHF Final Energy:  -384.02504047490822
    Total Energy =                       -384.0250404749085646
  Basis Set: CC-PVTZ
  Basis Set:
  Basis Set: CC-PVTZ
  Basis Set:
  @DF-RHF Final Energy:  -384.07765156505627
    Total Energy =                       -384.0776515650561578
  Basis Set: CC-PVTZ
  Basis Set:
  @DF-RHF Final Energy:  -384.06634769952217
    Total Energy =                       -384.0663476995222254
  @DF-RHF Final Energy:  -384.08218246714483
    Total Energy =                       -384.0821824671448894
  @DF-RHF Final Energy:  -384.08284407277665
    Total Energy =                       -384.0828440727764246
  @DF-RHF Final Energy:  -384.08276870189110
    Total Energy =                       -384.0827687018912684
  Basis Set: CC-PVTZ
  Basis Set:
  @DF-RHF Final Energy:  -384.08283600592313
    Total Energy =                       -384.0828360059233546
  Basis Set: CC-PVTZ
  Basis Set:
  Basis Set: CC-PVTZ
  Basis Set:
  @DF-RHF Final Energy:  -384.08311411038147
    Total Energy =                       -384.0831141103813025
  Basis Set: CC-PVTZ
  Basis Set:
  Basis Set: CC-PVTZ
  Basis Set:
  @DF-RHF Final Energy:  -384.08311921137931
    Total Energy =                       -384.0831192113793122
  Basis Set: CC-PVTZ
  Basis Set:
  Charge       = 0
  Multiplicity = 1
  Basis Set: CC-PVTZ
  Basis Set:

    Orbital Energies (a.u.)
    -----------------------

    Doubly Occupied:

       1A    -20.593862     2A    -20.532514     3A    -11.366402
       4A    -11.279199     5A    -11.231555     6A    -11.224097
       7A    -11.219983     8A    -11.211454     9A     -1.470519
      10A     -1.364725    11A     -1.085566    12A     -1.027164
      13A     -0.980185    14A     -0.894226    15A     -0.805789
      16A     -0.770202    17A     -0.692843    18A     -0.691173
      19A     -0.666245    20A     -0.626841    21A     -0.617282
      22A     -0.580066    23A     -0.572439    24A     -0.563019
      25A     -0.538548    26A     -0.530436    27A     -0.523293
      28A     -0.480223    29A     -0.472958    30A     -0.470231
      31A     -0.452996    32A     -0.441182

  @DF-RHF Final Energy:  -384.08312009577236

   => Energetics <=

    Nuclear Repulsion Energy =            393.9303541780522551
    One-Electron Energy =               -1304.0725105799981520
    Two-Electron Energy =                 526.0590363061735388
    DFT Exchange-Correlation Energy =       0.0000000000000000
    Empirical Dispersion Energy =           0.0000000000000000
    PCM Polarization Energy =               0.0000000000000000
    EFP Energy =                            0.0000000000000000
    Total Energy =                       -384.0831200957723013
    Molecular point group: c1
  Basis Set: CC-PVTZ
  Basis Set:

  -Total Gradient:
     Atom            X                  Y                   Z
    ------   -----------------  -----------------  -----------------
       1       -0.000030176077     0.000027650175    -0.000026655140
       2        0.000080102498    -0.000020460342     0.000114482250
       3       -0.000054003980    -0.000014553630    -0.000156704703
       4        0.000002424854    -0.000006552576    -0.000134183208
       5        0.000000303926     0.000018222508     0.000034809842
       6       -0.000002508283     0.000003433540     0.000011057059
       7        0.000018228297    -0.000008364181     0.000064309496
       8        0.001782704034    -0.002413137540    -0.002783565934
       9       -0.001317074278     0.003647989909     0.004709909618
      10       -0.000028761475     0.000001331865    -0.000069913670
      11        0.000038486531     0.000046809268    -0.000044545204
      12       -0.005409281038    -0.002641156000    -0.003547912931
      13       -0.000065377365     0.000016324216     0.000004839838
      14       -0.000008139869     0.000024571642     0.000027861880
      15       -0.000108762178    -0.000029615629    -0.000101108296
      16        0.005072401647     0.001357819058     0.001833609159
      17       -0.000031790549    -0.000025823496    -0.000002162786
      18        0.000024151389     0.000026283475     0.000021752642
      19        0.000035732388     0.000007224111     0.000016464271
      20        0.000001339524    -0.000017996378     0.000027655817

  **** Optimization is complete! (in 12 steps) ****
    Final optimized geometry and variables:
    Molecular point group: c1

    Geometry (in Angstrom), charge = 0, multiplicity = 1:

    O           -1.680936743041    -1.696886732485     0.330689197191
    C           -1.505903398897    -0.561488328207     0.616120120252
    C           -2.580147577470     0.378952815534     1.084540333275
    O           -0.327637922178     0.032614615009     0.561109093623
    H           -2.625278479026     1.238585883227     0.428633973609
    H           -3.528944967535    -0.132273461643     1.094864311158
    H           -2.339419438610     0.735941438207     2.077851588184
    C            0.789447606598    -0.744062627632     0.142837232464
    C            2.025370517188     0.129715690980     0.179478870740
    H            0.597206948704    -1.133884820612    -0.845351426180
    H            0.899916192986    -1.585672059655     0.811707931260
    C            2.036821197552     1.345518289022    -0.761701007529
    H            2.854337544576    -0.524080642149    -0.078573686928
    H            2.199771925943     0.459251912325     1.197276976931
    C            1.375640235694     1.149771479578    -2.121443846018
    H            1.614047231041     2.203607915016    -0.251307295463
    H            3.077398310450     1.611814813287    -0.923116616549
    H            1.521631099806     2.028440070736    -2.738497482964
    H            0.309244814215     0.984759445929    -2.033963607273
    H            1.802384458581     0.304070756452    -2.651134153744

  Mulliken Charges: (a.u.)
   Center  Symbol    Alpha    Beta     Spin     Total
       1     O     4.19714  4.19714  0.00000 -0.39428
       2     C     2.81060  2.81060  0.00000  0.37880
       3     C     3.13817  3.13817  0.00000 -0.27633
       4     O     4.15721  4.15721  0.00000 -0.31442
       5     H     0.44618  0.44618  0.00000  0.10764
       6     H     0.43798  0.43798  0.00000  0.12404
       7     H     0.44570  0.44570  0.00000  0.10860
       8     C     2.99737  2.99737  0.00000  0.00525
       9     C     3.09405  3.09405  0.00000 -0.18809
      10     H     0.44692  0.44692  0.00000  0.10616
      11     H     0.43821  0.43821  0.00000  0.12359
      12     C     3.08401  3.08401  0.00000 -0.16801
      13     H     0.45130  0.45130  0.00000  0.09740
      14     H     0.44767  0.44767  0.00000  0.10465
      15     C     3.15878  3.15878  0.00000 -0.31756
      16     H     0.44956  0.44956  0.00000  0.10088
      17     H     0.45071  0.45071  0.00000  0.09857
      18     H     0.44424  0.44424  0.00000  0.11152
      19     H     0.45117  0.45117  0.00000  0.09767
      20     H     0.45304  0.45304  0.00000  0.09392

   Total alpha = 32.00000, Total beta = 32.00000, Total charge = -0.00000

*** Psi4 exiting successfully. Buy a developer a beer!
