                              Psi4 1.0.54 Driver

  ==> Input File <==

--------------------------------------------------------------------------
set {
	reference rhf
	basis cc-pvtz
}

set_num_threads( 4 )
memory 2 gb

molecule MOL {
0 1

O	 -1.510770	 1.240811	 -0.054933
C	 -1.081510	 0.147522	 0.122720
C	 0.327029	 -0.064006	 0.641890
C	 -1.903028	 -1.084121	 -0.174656
C	 1.349460	 -0.017068	 -0.500215
H	 0.399029	 -1.014606	 1.159950
H	 0.538021	 0.726928	 1.350471
C	 1.479674	 1.374832	 -1.108000
H	 2.319804	 -0.343480	 -0.137275
H	 1.048622	 -0.725207	 -1.263342
H	 2.198652	 1.377726	 -1.918612
H	 1.809708	 2.097381	 -0.369249
H	 0.530271	 1.716709	 -1.505019
H	 -1.341891	 -1.779207	 -0.789259
H	 -2.820449	 -0.808163	 -0.671328
H	 -2.133314	 -1.593056	 0.755831

	symmetry c1
}
set optking {
	frozen_dihedral = ("
		9 5 3 2
	")
}

ee,wfn = optimize('scf', return_wfn=True)
oeprop( wfn, 'DIPOLE', 'QUADRUPOLE', 'MULLIKEN_CHARGES')
f=open( 'psi4out.xyz', 'w' )
f.write( "16  " )
f.write( str(ee) + "\n" )
f.write( MOL.save_string_xyz() )
f.close()
--------------------------------------------------------------------------

    Molecular point group: c1
  Charge       = 0
  Multiplicity = 1
  Basis Set: CC-PVTZ
  Basis Set:
  @DF-RHF Final Energy:  -270.12744088594894
    Total Energy =                       -270.1274408859489995
    Molecular point group: c1
  Basis Set: CC-PVTZ
  Basis Set:
  Basis Set: CC-PVTZ
  Basis Set:
  @DF-RHF Final Energy:  -270.12799026247939
    Total Energy =                       -270.1279902624793294
  Basis Set: CC-PVTZ
  Basis Set:
  Basis Set: CC-PVTZ
  Basis Set:
  @DF-RHF Final Energy:  -270.12775847037847
    Total Energy =                       -270.1277584703782964
  Basis Set: CC-PVTZ
  Basis Set:
  Basis Set: CC-PVTZ
  Basis Set:
  @DF-RHF Final Energy:  -270.12817302159897
    Total Energy =                       -270.1281730215989683
  Basis Set: CC-PVTZ
  Basis Set:
  Basis Set: CC-PVTZ
  Basis Set:
  @DF-RHF Final Energy:  -270.12824811380347
    Total Energy =                       -270.1282481138037497
  Basis Set: CC-PVTZ
  Basis Set:
  Basis Set: CC-PVTZ
  Basis Set:
  @DF-RHF Final Energy:  -270.12826648857725
    Total Energy =                       -270.1282664885774807
  Basis Set: CC-PVTZ
  Basis Set:
  Basis Set: CC-PVTZ
  Basis Set:
  @DF-RHF Final Energy:  -270.12826825263085
    Total Energy =                       -270.1282682526311305
  Basis Set: CC-PVTZ
  Basis Set:
  Charge       = 0
  Multiplicity = 1
  Basis Set: CC-PVTZ
  Basis Set:

    Orbital Energies (a.u.)
    -----------------------

    Doubly Occupied:

       1A    -20.537992     2A    -11.319933     3A    -11.232894
       4A    -11.228969     5A    -11.227052     6A    -11.211026
       7A     -1.397776     8A     -1.082917     9A     -1.011862
      10A     -0.948786    11A     -0.832961    12A     -0.732925
      13A     -0.658773    14A     -0.647404    15A     -0.621684
      16A     -0.595236    17A     -0.586169    18A     -0.562829
      19A     -0.537877    20A     -0.510325    21A     -0.500793
      22A     -0.487760    23A     -0.474222    24A     -0.400094

  @DF-RHF Final Energy:  -270.12826852773293

   => Energetics <=

    Nuclear Repulsion Energy =            241.8656880186385365
    One-Electron Energy =                -845.2913914895334528
    Two-Electron Energy =                 333.2974349431619316
    DFT Exchange-Correlation Energy =       0.0000000000000000
    Empirical Dispersion Energy =           0.0000000000000000
    PCM Polarization Energy =               0.0000000000000000
    EFP Energy =                            0.0000000000000000
    Total Energy =                       -270.1282685277329279
    Molecular point group: c1
  Basis Set: CC-PVTZ
  Basis Set:

  -Total Gradient:
     Atom            X                  Y                   Z
    ------   -----------------  -----------------  -----------------
       1        0.000001943438    -0.000009378322     0.000004369842
       2       -0.000044727222    -0.000342671274    -0.000053038047
       3        0.000026188055     0.000397378570     0.000010555841
       4       -0.000023569519     0.000019496964     0.000051830976
       5        0.000127028075     0.000427436395     0.000092121212
       6       -0.000000153822    -0.000000422275     0.000002953410
       7       -0.000002484184    -0.000002226688    -0.000006056523
       8       -0.000005248231     0.000001643083     0.000006402333
       9       -0.000111708030    -0.000463583274    -0.000086375809
      10       -0.000000610539    -0.000002064258     0.000004072817
      11        0.000007409300    -0.000000954363    -0.000007686472
      12        0.000002130448     0.000004510430     0.000006873390
      13        0.000002636488    -0.000006637444     0.000001635089
      14        0.000011749630    -0.000004779482    -0.000023158112
      15        0.000006621908     0.000005928188    -0.000003005301
      16        0.000002794206    -0.000023676252    -0.000001494647

  **** Optimization is complete! (in 8 steps) ****
    Final optimized geometry and variables:
    Molecular point group: c1

    Geometry (in Angstrom), charge = 0, multiplicity = 1:

    O           -1.386882629867     0.958193659205     0.351974551779
    C           -0.860715756308    -0.107105147513     0.365630390281
    C            0.572722453160    -0.277813719365     0.828051365341
    C           -1.597924436306    -1.352433761595    -0.071210883485
    C            1.575657721378    -0.302957036815    -0.337029867836
    H            0.655662846451    -1.204785116112     1.385992173670
    H            0.803830406605     0.542470888553     1.494922974266
    C            1.718751055253     1.032916453164    -1.059490494010
    H            2.538626793321    -0.603603946522     0.060388572926
    H            1.293300991041    -1.074080865835    -1.047367817600
    H            2.446574201484     0.956015579841    -1.858870789539
    H            2.051619425988     1.807698655256    -0.378114478003
    H            0.780571603430     1.359049978587    -1.490167101164
    H           -0.997642836599    -1.948407321372    -0.748054903089
    H           -2.529959739925    -1.082001245815    -0.543145188955
    H           -1.802411402073    -1.964726928284     0.801385323914

  Mulliken Charges: (a.u.)
   Center  Symbol    Alpha    Beta     Spin     Total
       1     O     4.17562  4.17562  0.00000 -0.35125
       2     C     2.85729  2.85729  0.00000  0.28543
       3     C     3.10527  3.10527  0.00000 -0.21054
       4     C     3.15462  3.15462  0.00000 -0.30925
       5     C     3.10025  3.10025  0.00000 -0.20051
       6     H     0.44299  0.44299  0.00000  0.11402
       7     H     0.43953  0.43953  0.00000  0.12094
       8     C     3.14117  3.14117  0.00000 -0.28234
       9     H     0.44482  0.44482  0.00000  0.11036
      10     H     0.45209  0.45209  0.00000  0.09582
      11     H     0.44965  0.44965  0.00000  0.10071
      12     H     0.45283  0.45283  0.00000  0.09433
      13     H     0.44808  0.44808  0.00000  0.10383
      14     H     0.45108  0.45108  0.00000  0.09784
      15     H     0.43623  0.43623  0.00000  0.12753
      16     H     0.44846  0.44846  0.00000  0.10307

   Total alpha = 24.00000, Total beta = 24.00000, Total charge = -0.00000

*** Psi4 exiting successfully. Buy a developer a beer!
