  ==> Input File <==

--------------------------------------------------------------------------
set {
	reference rhf
	basis 6-31G*
}

set_num_threads( 1 )
memory 2 gb

molecule MOL {
0 1

H	 2.176868	 -0.646004	 -0.217325
O	 1.337496	 -0.537251	 0.205931
C	 0.702312	 0.627605	 -0.264544
C	 -0.714990	 0.596302	 0.266387
H	 0.682322	 0.642550	 -1.350929
H	 1.215941	 1.520383	 0.085680
O	 -1.405996	 -0.526611	 -0.195820
H	 -1.257453	 1.468809	 -0.075599
H	 -0.688972	 0.618407	 1.353696
H	 -0.773282	 -1.221211	 -0.327036

	symmetry c1
}
set optking {
	frozen_dihedral = ("
		5 3 4 7
	")
}

ee = energy('scf')
oeprop('DIPOLE', 'QUADRUPOLE', 'MULLIKEN_CHARGES')
f=open( 'psi4out.xyz', 'w' )
f.write( "10  " )
f.write( str(ee) + "\n" )
f.write( MOL.save_string_xyz() )
f.close()
--------------------------------------------------------------------------

    Molecular point group: c1

    Geometry (in Angstrom), charge = 0, multiplicity = 1:

       Center              X                  Y                   Z               Mass
    ------------   -----------------  -----------------  -----------------  -----------------
           H          2.174961992211    -0.647165934559    -0.211653662323     1.007825032070
           O          1.335589992211    -0.538412934559     0.211602337677    15.994914619560
           C          0.700405992211     0.626443065441    -0.258872662323    12.000000000000
           C         -0.716896007789     0.595140065441     0.272058337677    12.000000000000
           H          0.680415992211     0.641388065441    -1.345257662323     1.007825032070
           H          1.214034992211     1.519221065441     0.091351337677     1.007825032070
           O         -1.407902007789    -0.527772934559    -0.190148662323    15.994914619560
           H         -1.259359007789     1.467647065441    -0.069927662323     1.007825032070
           H         -0.690878007789     0.617245065441     1.359367337677     1.007825032070
           H         -0.775188007789    -1.222372934559    -0.321364662323     1.007825032070

  Charge       = 0
  Multiplicity = 1
  Basis Set: 6-31G*
  Basis Set:

    Orbital Energies (a.u.)
    -----------------------

    Doubly Occupied:

       1A    -20.573923     2A    -20.546322     3A    -11.280979
       4A    -11.267607     5A     -1.386267     6A     -1.350351
       7A     -1.003467     8A     -0.846931     9A     -0.730348
      10A     -0.669301    11A     -0.661198    12A     -0.603678
      13A     -0.573555    14A     -0.540882    15A     -0.483556
      16A     -0.458502    17A     -0.432016

  @DF-RHF Final Energy:  -228.92378761555733

   => Energetics <=

    Nuclear Repulsion Energy =            134.7881562743975792
    One-Electron Energy =                -580.6061866490290413
    Two-Electron Energy =                 216.8942427590744728
    DFT Exchange-Correlation Energy =       0.0000000000000000
    Empirical Dispersion Energy =           0.0000000000000000
    PCM Polarization Energy =               0.0000000000000000
    EFP Energy =                            0.0000000000000000
    Total Energy =                       -228.9237876155569893

  Mulliken Charges: (a.u.)
   Center  Symbol    Alpha    Beta     Spin     Total
       1     H     0.27609  0.27609  0.00000  0.44782
       2     O     4.37505  4.37505  0.00000 -0.75011
       3     C     3.02601  3.02601  0.00000 -0.05202
       4     C     2.98468  2.98468  0.00000  0.03064
       5     H     0.42300  0.42300  0.00000  0.15400
       6     H     0.42437  0.42437  0.00000  0.15126
       7     O     4.37683  4.37683  0.00000 -0.75365
       8     H     0.41992  0.41992  0.00000  0.16016
       9     H     0.42217  0.42217  0.00000  0.15566
      10     H     0.27188  0.27188  0.00000  0.45625

   Total alpha = 17.00000, Total beta = 17.00000, Total charge =  0.00000
