  ==> Input File <==

--------------------------------------------------------------------------
set {
	reference rhf
	basis cc-pvtz
}

set_num_threads( 4 )
memory 2 gb

molecule MOL {
0 1

H	 3.459101	 0.139266	 -0.762951
C	 2.749156	 -0.051729	 0.031265
C	 1.322304	 0.099773	 -0.484271
H	 2.929445	 -1.053887	 0.403481
H	 2.954281	 0.646699	 0.834672
C	 0.308557	 -0.162619	 0.622645
H	 1.143368	 -0.594400	 -1.295960
H	 1.169532	 1.100095	 -0.870217
N	 -1.069352	 -0.004081	 0.085342
H	 0.371632	 -1.172932	 0.991288
H	 0.400391	 0.548875	 1.426218
O	 -1.554806	 1.075312	 0.147162
O	 -1.600214	 -0.973896	 -0.341959

	symmetry c1
}
set optking {
	frozen_dihedral = ("
		12 9 6 3
	")
}

ee = optimize('scf')
oeprop('DIPOLE', 'QUADRUPOLE', 'MULLIKEN_CHARGES')
f=open( 'psi4out.xyz', 'w' )
f.write( "13  " )
f.write( str(ee) + "\n" )
f.write( MOL.save_string_xyz() )
f.close()
--------------------------------------------------------------------------

    Molecular point group: c1
  Charge       = 0
  Multiplicity = 1
  Basis Set: CC-PVTZ
  Basis Set:
  @DF-RHF Final Energy:  -321.86132207466540
    Total Energy =                       -321.8613220746650541
    Molecular point group: c1
  Basis Set: CC-PVTZ
  Basis Set:
  Basis Set: CC-PVTZ
  Basis Set:
  @DF-RHF Final Energy:  -321.85701742978461
    Total Energy =                       -321.8570174297844915
  Basis Set: CC-PVTZ
  Basis Set:
  Basis Set: CC-PVTZ
  Basis Set:
  @DF-RHF Final Energy:  -321.86145036025397
    Total Energy =                       -321.8614503602539116
  Basis Set: CC-PVTZ
  Basis Set:
  Basis Set: CC-PVTZ
  Basis Set:
  @DF-RHF Final Energy:  -321.86153930707849
    Total Energy =                       -321.8615393070787150
  Basis Set: CC-PVTZ
  Basis Set:
  Charge       = 0
  Multiplicity = 1
  Basis Set: CC-PVTZ
  Basis Set:

    Orbital Energies (a.u.)
    -----------------------

    Doubly Occupied:

       1A    -20.590406     2A    -20.590241     3A    -15.836904
       4A    -11.297283     5A    -11.254338     6A    -11.237304
       7A     -1.635969     8A     -1.420239     9A     -1.134413
      10A     -1.027938    11A     -0.884059    12A     -0.834521
      13A     -0.761527    14A     -0.738527    15A     -0.727525
      16A     -0.673623    17A     -0.604169    18A     -0.588588
      19A     -0.551515    20A     -0.520550    21A     -0.515087
      22A     -0.486817    23A     -0.475206    24A     -0.452856

  @DF-RHF Final Energy:  -321.86154024375986

   => Energetics <=

    Nuclear Repulsion Energy =            248.0235261482160354
    One-Electron Energy =                -930.0909219581086518
    Two-Electron Energy =                 360.2058555661329251
    DFT Exchange-Correlation Energy =       0.0000000000000000
    Empirical Dispersion Energy =           0.0000000000000000
    PCM Polarization Energy =               0.0000000000000000
    EFP Energy =                            0.0000000000000000
    Total Energy =                       -321.8615402437596344
    Molecular point group: c1
  Basis Set: CC-PVTZ
  Basis Set:

  -Total Gradient:
     Atom            X                  Y                   Z
    ------   -----------------  -----------------  -----------------
       1       -0.000000458362    -0.000000861445    -0.000001307651
       2        0.000001585886    -0.000007264990     0.000001207560
       3       -0.000006680493     0.000027625445     0.000030968683
       4       -0.000001025529    -0.000000881521     0.000000263991
       5       -0.000001175600    -0.000000071509    -0.000001301176
       6        0.000030890966    -0.000059719316    -0.000022211423
       7       -0.000013315042    -0.000002399308     0.000032219155
       8        0.000005102352     0.000015714125    -0.000020113812
       9        0.000096216917     0.000005100157     0.000051997472
      10        0.000024262583    -0.000011634046     0.000023080115
      11        0.000011030958    -0.000002534347    -0.000027681211
      12       -0.000093139590    -0.000081328159    -0.000058624166
      13       -0.000053295050     0.000118254914    -0.000008497535

  **** Optimization is complete! (in 5 steps) ****
    Final optimized geometry and variables:
    Molecular point group: c1

    Geometry (in Angstrom), charge = 0, multiplicity = 1:

    H            3.456667748384     0.135149875499    -0.775522446605
    C            2.749433187102    -0.050750081261     0.022314066914
    C            1.320870021471     0.099158412179    -0.489001072172
    H            2.930185489494    -1.050980850614     0.399477823982
    H            2.958146591971     0.651945709605     0.821078310299
    C            0.310908057048    -0.159767240600     0.622128234140
    H            1.139057369320    -0.597771062071    -1.297646597242
    H            1.166900583144     1.098205771229    -0.877883777686
    N           -1.068988217975    -0.004320959525     0.088908497896
    H            0.376193521054    -1.168611386411     0.994519640584
    H            0.404824717591     0.554820807546     1.422698351312
    O           -1.555922362895     1.074656918145     0.147884269329
    O           -1.578490785620    -0.963558688886    -0.385608698223

  Mulliken Charges: (a.u.)
   Center  Symbol    Alpha    Beta     Spin     Total
       1     H     0.44167  0.44167  0.00000  0.11667
       2     C     3.15109  3.15109  0.00000 -0.30217
       3     C     3.09596  3.09596  0.00000 -0.19192
       4     H     0.45158  0.45158  0.00000  0.09683
       5     H     0.45157  0.45157  0.00000  0.09685
       6     C     3.03935  3.03935  0.00000 -0.07870
       7     H     0.43785  0.43785  0.00000  0.12431
       8     H     0.43813  0.43813  0.00000  0.12373
       9     N     3.27594  3.27594  0.00000  0.44812
      10     H     0.43465  0.43465  0.00000  0.13070
      11     H     0.43455  0.43455  0.00000  0.13089
      12     O     4.17370  4.17370  0.00000 -0.34740
      13     O     4.17395  4.17395  0.00000 -0.34791

   Total alpha = 24.00000, Total beta = 24.00000, Total charge = -0.00000
