                              Psi4 1.0.54 Driver

  ==> Input File <==

--------------------------------------------------------------------------
set {
	reference rhf
	basis cc-pvtz
}

set_num_threads( 4 )
memory 2 gb

molecule MOL {
0 1

H	 1.281711	 -1.250318	 -2.859786
C	 1.309372	 -0.626778	 -1.972533
C	 0.042760	 -0.824549	 -1.150897
H	 1.398321	 0.407423	 -2.281462
H	 2.202789	 -0.886524	 -1.418393
N	 0.000297	 0.000045	 0.046090
H	 -0.803207	 -0.567053	 -1.773112
H	 -0.076619	 -1.882536	 -0.901214
C	 -1.359159	 0.315706	 0.454404
C	 0.790456	 -0.557191	 1.132212
C	 -2.416729	 -0.286720	 -0.460525
H	 -1.478729	 1.390261	 0.442008
H	 -1.539692	 0.003361	 1.486761
C	 1.322549	 0.498815	 2.091465
H	 1.636203	 -1.079322	 0.706594
H	 0.219339	 -1.307657	 1.685870
H	 -2.285276	 0.073129	 -1.473515
H	 -2.371743	 -1.368476	 -0.483209
H	 -3.408658	 -0.007405	 -0.121593
H	 1.946581	 1.207210	 1.560740
H	 0.527065	 1.052674	 2.574397
H	 1.916312	 0.032461	 2.870420

	symmetry c1
}
set optking {
	frozen_dihedral = ("
		3 6 9 11
	")
}

ee,wfn = optimize('scf', return_wfn=True)
oeprop( wfn, 'DIPOLE', 'QUADRUPOLE', 'MULLIKEN_CHARGES')
f=open( 'psi4out.xyz', 'w' )
f.write( "22  " )
f.write( str(ee) + "\n" )
f.write( MOL.save_string_xyz() )
f.close()
--------------------------------------------------------------------------

    Molecular point group: c1
  Charge       = 0
  Multiplicity = 1
  Basis Set: CC-PVTZ
  Basis Set:
  @DF-RHF Final Energy:  -290.45556878036257
    Total Energy =                       -290.4555687803624551
    Molecular point group: c1
  Basis Set: CC-PVTZ
  Basis Set:
  Basis Set: CC-PVTZ
  Basis Set:
  @DF-RHF Final Energy:  -290.33869548214199
    Total Energy =                       -290.3386954821419863
  Basis Set: CC-PVTZ
  Basis Set:
  Basis Set: CC-PVTZ
  Basis Set:
  @DF-RHF Final Energy:  -290.43165583858882
    Total Energy =                       -290.4316558385889380
  Basis Set: CC-PVTZ
  Basis Set:
  Basis Set: CC-PVTZ
  Basis Set:
  @DF-RHF Final Energy:  -290.46231640674495
    Total Energy =                       -290.4623164067448897
  Basis Set: CC-PVTZ
  Basis Set:
  @DF-RHF Final Energy:  -290.34852366697180
    Total Energy =                       -290.3485236669719143
  @DF-RHF Final Energy:  -290.45263255921401
    Total Energy =                       -290.4526325592138960
  @DF-RHF Final Energy:  -290.46649755900262
    Total Energy =                       -290.4664975590025620
  @DF-RHF Final Energy:  -290.46674006230847
    Total Energy =                       -290.4667400623087019
  @DF-RHF Final Energy:  -290.46684968028183
    Total Energy =                       -290.4668496802818822
  Basis Set: CC-PVTZ
  Basis Set:
  @DF-RHF Final Energy:  -290.46688143832159
    Total Energy =                       -290.4668814383215931
  Basis Set: CC-PVTZ
  Basis Set:
  Basis Set: CC-PVTZ
  Basis Set:
  @DF-RHF Final Energy:  -290.46688498052475
    Total Energy =                       -290.4668849805246964
  Basis Set: CC-PVTZ
  Basis Set:
  Basis Set: CC-PVTZ
  Basis Set:
  @DF-RHF Final Energy:  -290.46688599794737
    Total Energy =                       -290.4668859979475428
  Basis Set: CC-PVTZ
  Basis Set:
  Charge       = 0
  Multiplicity = 1
  Basis Set: CC-PVTZ
  Basis Set:

    Orbital Energies (a.u.)
    -----------------------

    Doubly Occupied:

       1A    -15.527091     2A    -11.240109     3A    -11.237537
       4A    -11.236987     5A    -11.210669     6A    -11.202005
       7A    -11.201409     8A     -1.219327     9A     -1.025211
      10A     -1.023405    11A     -0.956954    12A     -0.858425
      13A     -0.843911    14A     -0.758590    15A     -0.655092
      16A     -0.643868    17A     -0.622567    18A     -0.594486
      19A     -0.588048    20A     -0.546568    21A     -0.536689
      22A     -0.518736    23A     -0.513464    24A     -0.502402
      25A     -0.493137    26A     -0.488586    27A     -0.467811
      28A     -0.459676    29A     -0.329179

  @DF-RHF Final Energy:  -290.46688616748708

   => Energetics <=

    Nuclear Repulsion Energy =            337.5953893859295363
    One-Electron Energy =               -1061.1206816583380714
    Two-Electron Energy =                 433.0584061049220281
    DFT Exchange-Correlation Energy =       0.0000000000000000
    Empirical Dispersion Energy =           0.0000000000000000
    PCM Polarization Energy =               0.0000000000000000
    EFP Energy =                            0.0000000000000000
    Total Energy =                       -290.4668861674864502
    Molecular point group: c1
  Basis Set: CC-PVTZ
  Basis Set:

  -Total Gradient:
     Atom            X                  Y                   Z
    ------   -----------------  -----------------  -----------------
       1       -0.000007967429     0.000002187946    -0.000001260953
       2       -0.000004808406     0.000022712897     0.000012889008
       3        0.000700852361     0.001255210221    -0.000820243950
       4        0.000012762763     0.000003744386    -0.000007839385
       5        0.000018246163    -0.000018006519     0.000002774239
       6       -0.001330885575    -0.002521682180     0.001588774116
       7       -0.000016916944     0.000040735074     0.000004698344
       8       -0.000010853678    -0.000016611172     0.000009398688
       9        0.001295824032     0.002374207347    -0.001538825970
      10       -0.000035321170     0.000056165323    -0.000045814077
      11       -0.000661574767    -0.001175028699     0.000764643276
      12       -0.000006490192     0.000019917818     0.000014977443
      13        0.000010131866    -0.000033532441    -0.000000703650
      14        0.000004415458    -0.000002019802     0.000027652867
      15        0.000012918682    -0.000024033493    -0.000000304245
      16        0.000013768843    -0.000002644487     0.000015009518
      17       -0.000002746164    -0.000000913384    -0.000040701925
      18        0.000018630976    -0.000002970156     0.000020142854
      19       -0.000003094555     0.000021408487     0.000010712630
      20        0.000004408780     0.000004419259    -0.000008410462
      21       -0.000009877640     0.000007761797    -0.000000798956
      22       -0.000001423403    -0.000011028221    -0.000006769412

  **** Optimization is complete! (in 13 steps) ****
    Final optimized geometry and variables:
    Molecular point group: c1

    Geometry (in Angstrom), charge = 0, multiplicity = 1:

    H           -0.636037544320    -0.612618732889    -3.271302913810
    C            0.036625519096    -0.443326679891    -2.436701487575
    C           -0.763572420043    -0.223858751969    -1.156726842473
    H            0.642148802717     0.428324303793    -2.653679530601
    H            0.696246431262    -1.299415482860    -2.371877948272
    N            0.078122089675     0.047853376650    -0.008507170296
    H           -1.413286862660     0.618484486835    -1.326492136370
    H           -1.416613487104    -1.085286000200    -0.988499177071
    C           -0.390749617755     0.962448698746     1.032245363022
    C            0.738933612699    -1.122480441562     0.529149921425
    C           -1.766319793921     1.595207806715     0.853199617920
    H            0.333976420883     1.760866950790     1.162374716429
    H           -0.416880519698     0.426578841803     1.978776063080
    C            2.078258980014    -0.812198274402     1.185772353533
    H            0.912686857035    -1.821379517430    -0.276878205540
    H            0.095392712941    -1.639184255283     1.248302500006
    H           -1.812405129280     2.258561272390    -0.001454767713
    H           -2.547722782488     0.851997990243     0.751695325318
    H           -1.985144433116     2.188674570743     1.733570852781
    H            2.747588017238    -0.343531955283     0.474192535844
    H            1.969649847928    -0.145123901120     2.032182968972
    H            2.540604575987    -1.725467324119     1.544670719466

  Mulliken Charges: (a.u.)
   Center  Symbol    Alpha    Beta     Spin     Total
       1     H     0.45401  0.45401  0.00000  0.09197
       2     C     3.13953  3.13953  0.00000 -0.27906
       3     C     3.04595  3.04595  0.00000 -0.09190
       4     H     0.45341  0.45341  0.00000  0.09317
       5     H     0.45577  0.45577  0.00000  0.08847
       6     N     3.62055  3.62055  0.00000 -0.24111
       7     H     0.44670  0.44670  0.00000  0.10660
       8     H     0.46598  0.46598  0.00000  0.06804
       9     C     3.02650  3.02650  0.00000 -0.05300
      10     C     3.04580  3.04580  0.00000 -0.09159
      11     C     3.16323  3.16323  0.00000 -0.32645
      12     H     0.45484  0.45484  0.00000  0.09032
      13     H     0.46733  0.46733  0.00000  0.06534
      14     C     3.14167  3.14167  0.00000 -0.28335
      15     H     0.44940  0.44940  0.00000  0.10121
      16     H     0.46426  0.46426  0.00000  0.07147
      17     H     0.45149  0.45149  0.00000  0.09702
      18     H     0.45007  0.45007  0.00000  0.09985
      19     H     0.44476  0.44476  0.00000  0.11047
      20     H     0.45227  0.45227  0.00000  0.09546
      21     H     0.45406  0.45406  0.00000  0.09189
      22     H     0.45241  0.45241  0.00000  0.09518

   Total alpha = 29.00000, Total beta = 29.00000, Total charge =  0.00000

*** Psi4 exiting successfully. Buy a developer a beer!
