  ==> Input File <==

--------------------------------------------------------------------------
set {
	reference rhf
	basis cc-pvtz
}

set_num_threads( 4 )
memory 2 gb

molecule MOL {
0 1

H	 -2.266619	 1.169943	 0.000098
O	 -1.438073	 1.611259	 0.000041
C	 -0.408657	 0.734701	 0.000005
C	 -0.072078	 0.166700	 -1.214696
C	 0.287810	 0.410043	 1.158298
H	 -0.633537	 0.443024	 -2.085523
C	 0.967698	 -0.735737	 -1.288464
C	 1.327784	 -0.499484	 1.054653
C	 -0.080713	 1.030770	 2.483097
H	 1.223312	 -1.172655	 -2.234901
C	 1.675174	 -1.074699	 -0.151357
H	 1.875875	 -0.760871	 1.940792
H	 -1.102597	 0.796205	 2.767794
H	 0.563866	 0.663992	 3.268865
H	 0.018176	 2.112498	 2.462818
H	 2.485193	 -1.775956	 -0.201152

	symmetry c1
}
set optking {
	frozen_dihedral = ("
		4 3 2 1
	")
}

ee = optimize('scf')
oeprop('DIPOLE', 'QUADRUPOLE', 'MULLIKEN_CHARGES')
f=open( 'psi4out.xyz', 'w' )
f.write( "16  " )
f.write( str(ee) + "\n" )
f.write( MOL.save_string_xyz() )
f.close()
--------------------------------------------------------------------------

    Molecular point group: c1
  Charge       = 0
  Multiplicity = 1
  Basis Set: CC-PVTZ
  Basis Set:
  @DF-RHF Final Energy:  -344.71495595381259
    Total Energy =                       -344.7149559538124777
    Molecular point group: c1
  Basis Set: CC-PVTZ
  Basis Set:
  Basis Set: CC-PVTZ
  Basis Set:
  @DF-RHF Final Energy:  -344.71614595138828
    Total Energy =                       -344.7161459513880004
  Basis Set: CC-PVTZ
  Basis Set:
  Basis Set: CC-PVTZ
  Basis Set:
  @DF-RHF Final Energy:  -344.71622269349717
    Total Energy =                       -344.7162226934967748
  Basis Set: CC-PVTZ
  Basis Set:
  Basis Set: CC-PVTZ
  Basis Set:
  @DF-RHF Final Energy:  -344.71623009760640
    Total Energy =                       -344.7162300976062284
  Basis Set: CC-PVTZ
  Basis Set:
  Basis Set: CC-PVTZ
  Basis Set:
  @DF-RHF Final Energy:  -344.71623163037140
    Total Energy =                       -344.7162316303717375
  Basis Set: CC-PVTZ
  Basis Set:
  Charge       = 0
  Multiplicity = 1
  Basis Set: CC-PVTZ
  Basis Set:

    Orbital Energies (a.u.)
    -----------------------

    Doubly Occupied:

       1A    -20.570009     2A    -11.282731     3A    -11.233009
       4A    -11.227265     5A    -11.225934     6A    -11.223395
       7A    -11.222726     8A    -11.216821     9A     -1.396362
      10A     -1.153482    11A     -1.047840    12A     -1.006844
      13A     -0.934448    14A     -0.834766    15A     -0.807225
      16A     -0.730582    17A     -0.669320    18A     -0.660370
      19A     -0.624941    20A     -0.594052    21A     -0.573777
      22A     -0.566523    23A     -0.545289    24A     -0.521942
      25A     -0.502642    26A     -0.487672    27A     -0.466496
      28A     -0.333646    29A     -0.321751

  @DF-RHF Final Energy:  -344.71623200893447

   => Energetics <=

    Nuclear Repulsion Energy =            350.4363713153056210
    One-Electron Energy =               -1162.3414820884468099
    Two-Electron Energy =                 467.1888787642066063
    DFT Exchange-Correlation Energy =       0.0000000000000000
    Empirical Dispersion Energy =           0.0000000000000000
    PCM Polarization Energy =               0.0000000000000000
    EFP Energy =                            0.0000000000000000
    Total Energy =                       -344.7162320089345258
    Molecular point group: c1
  Basis Set: CC-PVTZ
  Basis Set:

  -Total Gradient:
     Atom            X                  Y                   Z
    ------   -----------------  -----------------  -----------------
       1        0.000022525251    -0.000040313082     0.000814214655
       2        0.000088866288     0.000339349147    -0.001063183380
       3       -0.000479212749    -0.000766002510     0.000381605972
       4        0.000343373101     0.000473606023    -0.000127633280
       5       -0.000014035955     0.000024697794    -0.000009818940
       6        0.000011553158    -0.000003986556     0.000017575156
       7        0.000027091821    -0.000021881075     0.000000634000
       8       -0.000026655887     0.000015276471     0.000006300242
       9       -0.000002981752    -0.000032281944    -0.000004952308
      10        0.000006816916    -0.000010358513    -0.000002653370
      11        0.000009265942     0.000004669124    -0.000012881619
      12        0.000000296597    -0.000001346867     0.000007641859
      13        0.000004246361     0.000003053647    -0.000008528081
      14        0.000000660203     0.000002839363     0.000005681663
      15        0.000013597560     0.000010951749    -0.000000583912
      16       -0.000005406854     0.000001727228    -0.000003418659

  **** Optimization is complete! (in 6 steps) ****
    Final optimized geometry and variables:
    Molecular point group: c1

    Geometry (in Angstrom), charge = 0, multiplicity = 1:

    H           -2.481279919379     0.962894651154    -0.238114841940
    O           -1.640733237882     1.386014511785    -0.229845518395
    C           -0.632541617644     0.460434908476    -0.289714991951
    C           -0.288625074095    -0.096282545899    -1.504065746924
    C            0.064417453792     0.145243990858     0.869472237887
    H           -0.837124026725     0.190618714770    -2.380758451561
    C            0.754383363333    -0.999912798984    -1.581861877035
    C            1.109759968894    -0.757636150134     0.767679964911
    C           -0.310134639203     0.775529790141     2.185497135790
    H            1.017774395441    -1.432657875733    -2.527872866429
    C            1.455813751161    -1.332203031069    -0.441711223271
    H            1.662859931000    -1.015758822044     1.651362465842
    H           -1.323511911979     0.518018491851     2.471634167111
    H            0.355005988956     0.443082370588     2.970939404189
    H           -0.260831366261     1.855423952278     2.127683532415
    H            2.270460234763    -2.028925550393    -0.490110842123

  Mulliken Charges: (a.u.)
   Center  Symbol    Alpha    Beta     Spin     Total
       1     H     0.38897  0.38897  0.00000  0.22205
       2     O     4.18940  4.18940  0.00000 -0.37880
       3     C     2.88693  2.88693  0.00000  0.22614
       4     C     3.11018  3.11018  0.00000 -0.22036
       5     C     2.99187  2.99187  0.00000  0.01625
       6     H     0.41977  0.41977  0.00000  0.16045
       7     C     3.07708  3.07708  0.00000 -0.15416
       8     C     3.09477  3.09477  0.00000 -0.18955
       9     C     3.14134  3.14134  0.00000 -0.28269
      10     H     0.42215  0.42215  0.00000  0.15571
      11     C     3.07927  3.07927  0.00000 -0.15854
      12     H     0.42440  0.42440  0.00000  0.15120
      13     H     0.45450  0.45450  0.00000  0.09100
      14     H     0.45281  0.45281  0.00000  0.09438
      15     H     0.44251  0.44251  0.00000  0.11498
      16     H     0.42403  0.42403  0.00000  0.15194

   Total alpha = 29.00000, Total beta = 29.00000, Total charge =  0.00000
