  ==> Input File <==

--------------------------------------------------------------------------
set {
	reference rhf
	basis 6-31G*
}

set_num_threads( 1 )
memory 2 gb

molecule MOL {
0 1

H	 2.576379	 -0.439545	 -0.561970
O	 1.654024	 -0.625927	 -0.460906
C	 1.135793	 0.118896	 0.612333
C	 0.031547	 1.023609	 0.088541
H	 1.915668	 0.729681	 1.063582
H	 0.754543	 -0.542641	 1.387006
C	 -1.134819	 0.293262	 -0.585751
H	 0.474374	 1.714721	 -0.623187
H	 -0.338529	 1.620940	 0.920081
C	 -1.917817	 -0.639439	 0.339494
H	 -0.758119	 -0.268455	 -1.433105
H	 -1.813832	 1.041889	 -0.986690
H	 -2.777680	 -1.057197	 -0.174994
H	 -1.310268	 -1.471279	 0.680599
H	 -2.283753	 -0.111424	 1.216626

	symmetry c1
}
set optking {
	frozen_dihedral = ("
		8 4 7 11,
		2 3 4 8
	")
}

ee = energy('scf')
oeprop('DIPOLE', 'QUADRUPOLE', 'MULLIKEN_CHARGES')
f=open( 'psi4out.xyz', 'w' )
f.write( "15  " )
f.write( str(ee) + "\n" )
f.write( MOL.save_string_xyz() )
f.close()
--------------------------------------------------------------------------

    Molecular point group: c1

    Geometry (in Angstrom), charge = 0, multiplicity = 1:

       Center              X                  Y                   Z               Mass
    ------------   -----------------  -----------------  -----------------  -----------------
           H          2.573093909891    -0.449946846820    -0.556338313043     1.007825032070
           O          1.650738909891    -0.636328846820    -0.455274313043    15.994914619560
           C          1.132507909891     0.108494153180     0.617964686957    12.000000000000
           C          0.028261909891     1.013207153180     0.094172686957    12.000000000000
           H          1.912382909891     0.719279153180     1.069213686957     1.007825032070
           H          0.751257909891    -0.553042846820     1.392637686957     1.007825032070
           C         -1.138104090109     0.282860153180    -0.580119313043    12.000000000000
           H          0.471088909891     1.704319153180    -0.617555313043     1.007825032070
           H         -0.341814090109     1.610538153180     0.925712686957     1.007825032070
           C         -1.921102090109    -0.649840846820     0.345125686957    12.000000000000
           H         -0.761404090109    -0.278856846820    -1.427473313043     1.007825032070
           H         -1.817117090109     1.031487153180    -0.981058313043     1.007825032070
           H         -2.780965090109    -1.067598846820    -0.169362313043     1.007825032070
           H         -1.313553090109    -1.481680846820     0.686230686957     1.007825032070
           H         -2.287038090109    -0.121825846820     1.222257686957     1.007825032070

  Charge       = 0
  Multiplicity = 1
  Basis Set: 6-31G*
  Basis Set:

    Orbital Energies (a.u.)
    -----------------------

    Doubly Occupied:

       1A    -20.552357     2A    -11.267848     3A    -11.210358
       4A    -11.207925     5A    -11.203088     6A     -1.360167
       7A     -1.062617     8A     -0.968747     9A     -0.869078
      10A     -0.777040    11A     -0.700142    12A     -0.644349
      13A     -0.612681    14A     -0.572822    15A     -0.560457
      16A     -0.531654    17A     -0.506900    18A     -0.481228
      19A     -0.465617    20A     -0.451676    21A     -0.424343

  @DF-RHF Final Energy:  -232.14131577910237

   => Energetics <=

    Nuclear Repulsion Energy =            191.9374699287306214
    One-Electron Energy =                -695.2954266648675912
    Two-Electron Energy =                 271.2166409570355086
    DFT Exchange-Correlation Energy =       0.0000000000000000
    Empirical Dispersion Energy =           0.0000000000000000
    PCM Polarization Energy =               0.0000000000000000
    EFP Energy =                            0.0000000000000000
    Total Energy =                       -232.1413157791014896

  Mulliken Charges: (a.u.)
   Center  Symbol    Alpha    Beta     Spin     Total
       1     H     0.27901  0.27901  0.00000  0.44198
       2     O     4.37051  4.37051  0.00000 -0.74103
       3     C     3.00400  3.00400  0.00000 -0.00800
       4     C     3.15565  3.15565  0.00000 -0.31130
       5     H     0.42943  0.42943  0.00000  0.14115
       6     H     0.42179  0.42179  0.00000  0.15642
       7     C     3.15367  3.15367  0.00000 -0.30734
       8     H     0.42150  0.42150  0.00000  0.15700
       9     H     0.42789  0.42789  0.00000  0.14421
      10     C     3.24389  3.24389  0.00000 -0.48777
      11     H     0.40807  0.40807  0.00000  0.18386
      12     H     0.42315  0.42315  0.00000  0.15370
      13     H     0.41917  0.41917  0.00000  0.16166
      14     H     0.41714  0.41714  0.00000  0.16573
      15     H     0.42513  0.42513  0.00000  0.14974

   Total alpha = 21.00000, Total beta = 21.00000, Total charge = -0.00000
