  ==> Input File <==

--------------------------------------------------------------------------
set {
	reference rhf
	basis 6-31G*
}

set_num_threads( 1 )
memory 2 gb

molecule MOL {
0 1

O	 -2.634604	 0.617311	 -0.139667
C	 -2.112323	 -0.300239	 0.416894
C	 -0.885648	 -0.972937	 -0.173912
C	 -2.620084	 -0.816541	 1.744669
C	 0.379448	 -0.143569	 0.099626
H	 -1.039521	 -1.055856	 -1.244309
H	 -0.767419	 -1.974594	 0.229489
C	 1.631333	 -0.777471	 -0.511575
H	 0.223057	 0.852834	 -0.298001
H	 0.521073	 -0.034753	 1.173800
C	 2.915987	 -0.544314	 0.291766
H	 1.766672	 -0.399098	 -1.523130
H	 1.471257	 -1.849544	 -0.605828
C	 3.373361	 0.914346	 0.347591
H	 3.708709	 -1.142521	 -0.150311
H	 2.780642	 -0.921148	 1.303579
H	 3.506512	 1.320010	 -0.651625
H	 4.322697	 0.999599	 0.867103
H	 2.660624	 1.545032	 0.868198
H	 -3.006678	 -1.824747	 1.620856
H	 -3.406158	 -0.173758	 2.115752
H	 -1.813552	 -0.869914	 2.470246

	symmetry c1
}
set optking {
	frozen_dihedral = ("
		6 3 2 1,
		6 3 5 8,
		12 8 11 15
	")
}

ee = energy('scf')
oeprop('DIPOLE', 'QUADRUPOLE', 'MULLIKEN_CHARGES')
f=open( 'psi4out.xyz', 'w' )
f.write( "22  " )
f.write( str(ee) + "\n" )
f.write( MOL.save_string_xyz() )
f.close()
--------------------------------------------------------------------------

    Molecular point group: c1

    Geometry (in Angstrom), charge = 0, multiplicity = 1:

       Center              X                  Y                   Z               Mass
    ------------   -----------------  -----------------  -----------------  -----------------
           O         -2.643876627923     0.857324233540    -0.407587201223    15.994914619560
           C         -2.121595627923    -0.060225766460     0.148973798777    12.000000000000
           C         -0.894920627923    -0.732923766460    -0.441832201223    12.000000000000
           C         -2.629356627923    -0.576527766460     1.476748798777    12.000000000000
           C          0.370175372077     0.096444233540    -0.168294201223    12.000000000000
           H         -1.048793627923    -0.815842766460    -1.512229201223     1.007825032070
           H         -0.776691627923    -1.734580766460    -0.038431201223     1.007825032070
           C          1.622060372077    -0.537457766460    -0.779495201223    12.000000000000
           H          0.213784372077     1.092847233540    -0.565921201223     1.007825032070
           H          0.511800372077     0.205260233540     0.905879798777     1.007825032070
           C          2.906714372077    -0.304300766460     0.023845798777    12.000000000000
           H          1.757399372077    -0.159084766460    -1.791050201223     1.007825032070
           H          1.461984372077    -1.609530766460    -0.873748201223     1.007825032070
           C          3.364088372077     1.154359233540     0.079670798777    12.000000000000
           H          3.699436372077    -0.902507766460    -0.418231201223     1.007825032070
           H          2.771369372077    -0.681134766460     1.035658798777     1.007825032070
           H          3.497239372077     1.560023233540    -0.919545201223     1.007825032070
           H          4.313424372077     1.239612233540     0.599182798777     1.007825032070
           H          2.651351372077     1.785045233540     0.600277798777     1.007825032070
           H         -3.015950627923    -1.584733766460     1.352935798777     1.007825032070
           H         -3.415430627923     0.066255233540     1.847831798777     1.007825032070
           H         -1.822824627923    -0.629900766460     2.202325798777     1.007825032070

  Charge       = 0
  Multiplicity = 1
  Basis Set: 6-31G*
  Basis Set:

    Orbital Energies (a.u.)
    -----------------------

    Doubly Occupied:

       1A    -20.547199     2A    -11.324206     3A    -11.229582
       4A    -11.228621     5A    -11.228208     6A    -11.221732
       7A    -11.221144     8A    -11.212267     9A     -1.392948
      10A     -1.095959    11A     -1.044433    12A     -0.999677
      13A     -0.937756    14A     -0.858334    15A     -0.786416
      16A     -0.733848    17A     -0.663259    18A     -0.643446
      19A     -0.626423    20A     -0.617691    21A     -0.594369
      22A     -0.589737    23A     -0.560164    24A     -0.539492
      25A     -0.535733    26A     -0.523651    27A     -0.496253
      28A     -0.489451    29A     -0.469292    30A     -0.464998
      31A     -0.458590    32A     -0.395978

  @DF-RHF Final Energy:  -348.09554819656000

   => Energetics <=

    Nuclear Repulsion Energy =            373.0358788125954561
    One-Electron Energy =               -1210.8011101864476586
    Two-Electron Energy =                 489.6696831772915175
    DFT Exchange-Correlation Energy =       0.0000000000000000
    Empirical Dispersion Energy =           0.0000000000000000
    PCM Polarization Energy =               0.0000000000000000
    EFP Energy =                            0.0000000000000000
    Total Energy =                       -348.0955481965606850

  Mulliken Charges: (a.u.)
   Center  Symbol    Alpha    Beta     Spin     Total
       1     O     4.26243  4.26243  0.00000 -0.52487
       2     C     2.73736  2.73736  0.00000  0.52529
       3     C     3.20176  3.20176  0.00000 -0.40352
       4     C     3.28965  3.28965  0.00000 -0.57930
       5     C     3.16400  3.16400  0.00000 -0.32799
       6     H     0.40087  0.40087  0.00000  0.19826
       7     H     0.41672  0.41672  0.00000  0.16655
       8     C     3.15389  3.15389  0.00000 -0.30778
       9     H     0.40324  0.40324  0.00000  0.19351
      10     H     0.42042  0.42042  0.00000  0.15916
      11     C     3.15447  3.15447  0.00000 -0.30893
      12     H     0.41806  0.41806  0.00000  0.16388
      13     H     0.42051  0.42051  0.00000  0.15898
      14     C     3.24154  3.24154  0.00000 -0.48308
      15     H     0.41997  0.41997  0.00000  0.16007
      16     H     0.42360  0.42360  0.00000  0.15281
      17     H     0.42054  0.42054  0.00000  0.15891
      18     H     0.41833  0.41833  0.00000  0.16333
      19     H     0.41894  0.41894  0.00000  0.16212
      20     H     0.40698  0.40698  0.00000  0.18604
      21     H     0.39703  0.39703  0.00000  0.20594
      22     H     0.40970  0.40970  0.00000  0.18061

   Total alpha = 32.00000, Total beta = 32.00000, Total charge = -0.00000
