  ==> Input File <==

--------------------------------------------------------------------------
set {
	reference rhf
	basis cc-pvtz
}

set_num_threads( 4 )
memory 2 gb

molecule MOL {
0 1

H	 -2.361825	 -0.170123	 -0.862546
N	 -1.851927	 0.161443	 -0.071573
C	 -0.561396	 -0.500007	 0.035200
H	 -2.411828	 -0.016963	 0.735903
C	 0.575129	 0.507849	 -0.048832
H	 -0.478089	 -1.200753	 -0.788956
H	 -0.456191	 -1.081816	 0.952176
C	 1.951750	 -0.141983	 0.035101
H	 0.478254	 1.061643	 -0.975981
H	 0.467676	 1.231891	 0.755499
H	 2.101550	 -0.848142	 -0.774949
H	 2.738260	 0.600794	 -0.026526
H	 2.078939	 -0.679792	 0.968824

	symmetry c1
}
set optking {
	frozen_dihedral = ("
		1 2 3 6
	")
}

ee = optimize('scf')
oeprop('DIPOLE', 'QUADRUPOLE', 'MULLIKEN_CHARGES')
f=open( 'psi4out.xyz', 'w' )
f.write( "13  " )
f.write( str(ee) + "\n" )
f.write( MOL.save_string_xyz() )
f.close()
--------------------------------------------------------------------------

    Molecular point group: c1
  Charge       = 0
  Multiplicity = 1
  Basis Set: CC-PVTZ
  Basis Set:
  @DF-RHF Final Energy:  -173.34902048763530
    Total Energy =                       -173.3490204876352436
    Molecular point group: c1
  Basis Set: CC-PVTZ
  Basis Set:
  Basis Set: CC-PVTZ
  Basis Set:
  @DF-RHF Final Energy:  -173.34956797200863
    Total Energy =                       -173.3495679720086287
  Basis Set: CC-PVTZ
  Basis Set:
  Basis Set: CC-PVTZ
  Basis Set:
  @DF-RHF Final Energy:  -173.34971402131254
    Total Energy =                       -173.3497140213125363
  Basis Set: CC-PVTZ
  Basis Set:
  Basis Set: CC-PVTZ
  Basis Set:
  @DF-RHF Final Energy:  -173.34971697709381
    Total Energy =                       -173.3497169770937774
  Basis Set: CC-PVTZ
  Basis Set:
  Charge       = 0
  Multiplicity = 1
  Basis Set: CC-PVTZ
  Basis Set:

    Orbital Energies (a.u.)
    -----------------------

    Doubly Occupied:

       1A    -15.525088     2A    -11.239185     3A    -11.204444
       4A    -11.203817     5A     -1.174947     6A     -1.033991
       7A     -0.899177     8A     -0.794815     9A     -0.676734
      10A     -0.613408    11A     -0.602977    12A     -0.574383
      13A     -0.516931    14A     -0.492175    15A     -0.485905
      16A     -0.463192    17A     -0.380015

  @DF-RHF Final Energy:  -173.34971777435481

   => Energetics <=

    Nuclear Repulsion Energy =            131.5837327527000298
    One-Electron Energy =                -494.1045352742812611
    Two-Electron Energy =                 189.1710847472265300
    DFT Exchange-Correlation Energy =       0.0000000000000000
    Empirical Dispersion Energy =           0.0000000000000000
    PCM Polarization Energy =               0.0000000000000000
    EFP Energy =                            0.0000000000000000
    Total Energy =                       -173.3497177743547013
    Molecular point group: c1
  Basis Set: CC-PVTZ
  Basis Set:

  -Total Gradient:
     Atom            X                  Y                   Z
    ------   -----------------  -----------------  -----------------
       1        0.000132885872     0.000205571482    -0.000194944105
       2       -0.000227301300    -0.000230123233     0.000242479828
       3        0.000238120724     0.000249264947    -0.000245003624
       4       -0.000014709669    -0.000019314206     0.000023112337
       5       -0.000050627195    -0.000035015458     0.000033314705
       6       -0.000114619345    -0.000189805304     0.000144175096
       7        0.000031657171     0.000027116116    -0.000000326243
       8        0.000008323080     0.000007672578    -0.000004695654
       9       -0.000015999674    -0.000023833535     0.000003708213
      10        0.000001771196     0.000003923253    -0.000001278880
      11       -0.000008596308     0.000004393682     0.000006863393
      12        0.000019630535    -0.000004804812    -0.000000865865
      13       -0.000000535086     0.000004954491    -0.000006539202

  **** Optimization is complete! (in 5 steps) ****
    Final optimized geometry and variables:
    Molecular point group: c1

    Geometry (in Angstrom), charge = 0, multiplicity = 1:

    H           -2.395811626011    -0.175457369314    -0.824858505217
    N           -1.861436113406     0.158278765176    -0.054435571728
    C           -0.555332656187    -0.489103958345     0.030747847437
    H           -2.401656079536     0.024494402781     0.770750419084
    C            0.584045458246     0.519878642938    -0.034380164064
    H           -0.441521912897    -1.207812059533    -0.775642545681
    H           -0.473088457395    -1.058585918817     0.952537418588
    C            1.959676914448    -0.131618373998     0.053400791641
    H            0.496111306879     1.082328549105    -0.958251352656
    H            0.459657002546     1.236523849551     0.771251239235
    H            2.116494430419    -0.833133212546    -0.759950044634
    H            2.748220900965     0.609990504354     0.003599684742
    H            2.079624085946    -0.676800815403     0.984325881349

  Mulliken Charges: (a.u.)
   Center  Symbol    Alpha    Beta     Spin     Total
       1     H     0.42571  0.42571  0.00000  0.14857
       2     N     3.69788  3.69788  0.00000 -0.39577
       3     C     3.03996  3.03996  0.00000 -0.07991
       4     H     0.42610  0.42610  0.00000  0.14779
       5     C     3.06053  3.06053  0.00000 -0.12107
       6     H     0.45853  0.45853  0.00000  0.08294
       7     H     0.45921  0.45921  0.00000  0.08159
       8     C     3.15595  3.15595  0.00000 -0.31190
       9     H     0.45672  0.45672  0.00000  0.08656
      10     H     0.45730  0.45730  0.00000  0.08540
      11     H     0.45722  0.45722  0.00000  0.08556
      12     H     0.44761  0.44761  0.00000  0.10477
      13     H     0.45727  0.45727  0.00000  0.08546

   Total alpha = 17.00000, Total beta = 17.00000, Total charge =  0.00000
