  ==> Input File <==

--------------------------------------------------------------------------
set {
	reference rhf
	basis 6-31G*
}

set_num_threads( 4 )
memory 2 gb

molecule MOL {
0 1

H	 3.222368	 0.285006	 -0.514283
N	 2.391003	 -0.273335	 -0.489777
C	 1.267428	 0.496480	 0.024474
H	 2.584445	 -1.054416	 0.108058
C	 -0.016086	 -0.325158	 -0.029487
H	 1.156340	 1.376408	 -0.601961
H	 1.424631	 0.856175	 1.044418
C	 -1.282277	 0.529072	 0.046735
H	 -0.012495	 -0.908639	 -0.945788
H	 -0.015903	 -1.041248	 0.791956
C	 -2.563920	 -0.301775	 -0.006060
H	 -1.284084	 1.244622	 -0.773004
H	 -1.271387	 1.115393	 0.963286
H	 -2.621848	 -0.873522	 -0.927727
H	 -3.445135	 0.329952	 0.047812
H	 -2.609542	 -1.004582	 0.821105

	symmetry c1
}
set optking {
	frozen_dihedral = ("
		6 3 5 9
	")
}

ee = optimize('scf')
oeprop('DIPOLE', 'QUADRUPOLE', 'MULLIKEN_CHARGES')
f=open( 'psi4out.xyz', 'w' )
f.write( "16  " )
f.write( str(ee) + "\n" )
f.write( MOL.save_string_xyz() )
f.close()
--------------------------------------------------------------------------

    Molecular point group: c1
  Charge       = 0
  Multiplicity = 1
  Basis Set: 6-31G*
  Basis Set:
  @DF-RHF Final Energy:  -212.31578732977388
    Total Energy =                       -212.3157873297740252
    Molecular point group: c1
  Basis Set: 6-31G*
  Basis Set:
  Basis Set: 6-31G*
  Basis Set:
  @DF-RHF Final Energy:  -212.31590700913586
    Total Energy =                       -212.3159070091359695
  Basis Set: 6-31G*
  Basis Set:
  Basis Set: 6-31G*
  Basis Set:
  @DF-RHF Final Energy:  -212.31595655420239
    Total Energy =                       -212.3159565542023870
  Basis Set: 6-31G*
  Basis Set:
  Basis Set: 6-31G*
  Basis Set:
  @DF-RHF Final Energy:  -212.31595771465862
    Total Energy =                       -212.3159577146586798
  Basis Set: 6-31G*
  Basis Set:
  Charge       = 0
  Multiplicity = 1
  Basis Set: 6-31G*
  Basis Set:

    Orbital Energies (a.u.)
    -----------------------

    Doubly Occupied:

       1A    -15.533071     2A    -11.239784     3A    -11.215380
       4A    -11.209560     5A    -11.207911     6A     -1.176922
       7A     -1.059496     8A     -0.958551     9A     -0.843814
      10A     -0.792843    11A     -0.659055    12A     -0.643120
      13A     -0.601120    14A     -0.576161    15A     -0.568563
      16A     -0.521744    17A     -0.501161    18A     -0.469623
      19A     -0.463858    20A     -0.462718    21A     -0.380940

  @DF-RHF Final Energy:  -212.31595807186065

   => Energetics <=

    Nuclear Repulsion Energy =            186.2037881647135293
    One-Electron Energy =                -654.8687022885485476
    Two-Electron Energy =                 256.3489560519744259
    DFT Exchange-Correlation Energy =       0.0000000000000000
    Empirical Dispersion Energy =           0.0000000000000000
    PCM Polarization Energy =               0.0000000000000000
    EFP Energy =                            0.0000000000000000
    Total Energy =                       -212.3159580718606207
    Molecular point group: c1
  Basis Set: 6-31G*
  Basis Set:

  -Total Gradient:
     Atom            X                  Y                   Z
    ------   -----------------  -----------------  -----------------
       1        0.000028855991    -0.000005698177    -0.000009586756
       2       -0.000011429686     0.000015882142     0.000015075086
       3        0.001807678889    -0.002644792859    -0.002907969961
       4        0.000021628976    -0.000020263142     0.000003099647
       5       -0.002115002931     0.003532991375    -0.001329544950
       6       -0.001239826669     0.001685971684     0.002614508416
       7        0.000026768984    -0.000013134004     0.000028798820
       8        0.000011953981    -0.000030879779     0.000002908089
       9        0.001494185365    -0.002533585202     0.001561586162
      10       -0.000007888290     0.000012637979     0.000016927284
      11       -0.000014647625     0.000013178244    -0.000002494869
      12        0.000001897515    -0.000002898520     0.000002152885
      13        0.000000576482    -0.000011221051    -0.000000642643
      14        0.000008026055     0.000002653040     0.000007784851
      15       -0.000010405294    -0.000005588699    -0.000004987800
      16       -0.000002371736     0.000004746968     0.000002385736

  **** Optimization is complete! (in 5 steps) ****
    Final optimized geometry and variables:
    Molecular point group: c1

    Geometry (in Angstrom), charge = 0, multiplicity = 1:

    H            3.251218767737     0.258772154299    -0.340588689215
    N            2.413417124268    -0.289392217477    -0.377839898140
    C            1.274404475463     0.479848299437     0.099811094394
    H            2.565919874686    -1.088540834263     0.208208655395
    C           -0.013328507713    -0.337443382800     0.019463023338
    H            1.178878296904     1.371020011723    -0.513434330163
    H            1.400730878745     0.838475474829     1.124918885085
    C           -1.280111884863     0.511208670026     0.122999754281
    H           -0.002353646443    -0.907852038086    -0.905058647416
    H           -0.012329518406    -1.075889141241     0.821577895323
    C           -2.559497584417    -0.324404761842     0.110445038092
    H           -1.304646158823     1.220213495255    -0.701450371376
    H           -1.246582798265     1.104154375751     1.035085190647
    H           -2.635160357162    -0.909135348960    -0.801790349444
    H           -3.441487289599     0.305355766965     0.174365293233
    H           -2.584894259668    -1.015490160008     0.948242721936

  Mulliken Charges: (a.u.)
   Center  Symbol    Alpha    Beta     Spin     Total
       1     H     0.33258  0.33258  0.00000  0.33485
       2     N     3.92096  3.92096  0.00000 -0.84193
       3     C     3.06026  3.06026  0.00000 -0.12053
       4     H     0.33530  0.33530  0.00000  0.32940
       5     C     3.15450  3.15450  0.00000 -0.30900
       6     H     0.42093  0.42093  0.00000  0.15814
       7     H     0.43489  0.43489  0.00000  0.13022
       8     C     3.15509  3.15509  0.00000 -0.31019
       9     H     0.41164  0.41164  0.00000  0.17671
      10     H     0.42777  0.42777  0.00000  0.14445
      11     C     3.23906  3.23906  0.00000 -0.47812
      12     H     0.42124  0.42124  0.00000  0.15752
      13     H     0.42385  0.42385  0.00000  0.15230
      14     H     0.42034  0.42034  0.00000  0.15931
      15     H     0.41952  0.41952  0.00000  0.16095
      16     H     0.42205  0.42205  0.00000  0.15590

   Total alpha = 21.00000, Total beta = 21.00000, Total charge =  0.00000
