  ==> Input File <==

--------------------------------------------------------------------------
set {
	reference rhf
	basis 6-31G*
}

set_num_threads( 4 )
memory 2 gb

molecule MOL {
0 1

H	 1.202242	 4.050276	 -1.950926
N	 0.434283	 3.411052	 -2.022875
C	 0.523157	 2.380321	 -0.998561
H	 0.482422	 3.002601	 -2.937031
C	 -0.697059	 1.466921	 -1.048856
H	 0.559793	 2.876845	 -0.033688
H	 1.431098	 1.776792	 -1.074687
C	 -0.679275	 0.379305	 0.025956
H	 -1.588393	 2.079516	 -0.948432
H	 -0.752364	 1.000856	 -2.032249
C	 -1.903357	 -0.536963	 -0.023547
H	 -0.621010	 0.844381	 1.008890
H	 0.221994	 -0.222713	 -0.079562
C	 -3.225172	 0.228290	 0.028445
H	 -1.867824	 -1.134999	 -0.931459
H	 -1.860449	 -1.239604	 0.805977
H	 -3.313397	 0.915643	 -0.808262
H	 -4.073500	 -0.448134	 -0.008893
H	 -3.306061	 0.809945	 0.942516

	symmetry c1
}
set optking {
	frozen_dihedral = ("
		12 8 11 15
	")
}

ee = optimize('scf')
oeprop('DIPOLE', 'QUADRUPOLE', 'MULLIKEN_CHARGES')
f=open( 'psi4out.xyz', 'w' )
f.write( "19  " )
f.write( str(ee) + "\n" )
f.write( MOL.save_string_xyz() )
f.close()
--------------------------------------------------------------------------

    Molecular point group: c1
  Charge       = 0
  Multiplicity = 1
  Basis Set: 6-31G*
  Basis Set:
  @DF-RHF Final Energy:  -251.34864506197553
    Total Energy =                       -251.3486450619753896
    Molecular point group: c1
  Basis Set: 6-31G*
  Basis Set:
  Basis Set: 6-31G*
  Basis Set:
  @DF-RHF Final Energy:  -251.34923999907258
    Total Energy =                       -251.3492399990725517
  Basis Set: 6-31G*
  Basis Set:
  Basis Set: 6-31G*
  Basis Set:
  @DF-RHF Final Energy:  -251.34986085582725
    Total Energy =                       -251.3498608558271030
  Basis Set: 6-31G*
  Basis Set:
  Basis Set: 6-31G*
  Basis Set:
  @DF-RHF Final Energy:  -251.34991098465258
    Total Energy =                       -251.3499109846525243
  Basis Set: 6-31G*
  Basis Set:
  Basis Set: 6-31G*
  Basis Set:
  @DF-RHF Final Energy:  -251.34991436273634
    Total Energy =                       -251.3499143627360013
  Basis Set: 6-31G*
  Basis Set:
  Basis Set: 6-31G*
  Basis Set:
  @DF-RHF Final Energy:  -251.34991586447882
    Total Energy =                       -251.3499158644789304
  Basis Set: 6-31G*
  Basis Set:
  Charge       = 0
  Multiplicity = 1
  Basis Set: 6-31G*
  Basis Set:

    Orbital Energies (a.u.)
    -----------------------

    Doubly Occupied:

       1A    -15.532494     2A    -11.239759     3A    -11.214270
       4A    -11.212924     5A    -11.209055     6A    -11.205971
       7A     -1.176609     8A     -1.072155     9A     -0.994719
      10A     -0.903994    11A     -0.823411    12A     -0.775676
      13A     -0.662654    14A     -0.641375    15A     -0.603617
      16A     -0.595441    17A     -0.586784    18A     -0.536611
      19A     -0.521136    20A     -0.507281    21A     -0.486246
      22A     -0.458381    23A     -0.456086    24A     -0.450053
      25A     -0.381157

  @DF-RHF Final Energy:  -251.34991616217638

   => Energetics <=

    Nuclear Repulsion Energy =            249.0243118011670163
    One-Electron Energy =                -832.2527332703264165
    Two-Electron Energy =                 331.8785053069827882
    DFT Exchange-Correlation Energy =       0.0000000000000000
    Empirical Dispersion Energy =           0.0000000000000000
    PCM Polarization Energy =               0.0000000000000000
    EFP Energy =                            0.0000000000000000
    Total Energy =                       -251.3499161621766689
    Molecular point group: c1
  Basis Set: 6-31G*
  Basis Set:

  -Total Gradient:
     Atom            X                  Y                   Z
    ------   -----------------  -----------------  -----------------
       1        0.000000923732     0.000004191316    -0.000002085934
       2        0.000000828908     0.000002720602    -0.000000029698
       3        0.000005560928    -0.000007201920    -0.000003229913
       4        0.000000174424     0.000000546018    -0.000000781750
       5       -0.000003482618     0.000000227918     0.000009016916
       6       -0.000000466104    -0.000001098748    -0.000001345881
       7        0.000003880139     0.000000282850     0.000000930456
       8       -0.001101980011     0.001395993763    -0.000552279595
       9       -0.000005360107     0.000000016368    -0.000001206025
      10       -0.000003659902    -0.000002042584     0.000006801259
      11       -0.000965244282     0.001271407081    -0.000962061703
      12        0.001071694556    -0.001384460133     0.000606490335
      13        0.000003742384     0.000003521904     0.000000918209
      14        0.000001324806     0.000001623860    -0.000004516521
      15        0.000988257261    -0.001283711551     0.000907115320
      16        0.000003908862    -0.000004293578     0.000001154244
      17       -0.000001093279     0.000006232029    -0.000003660099
      18       -0.000000946652    -0.000000394785    -0.000000775884
      19        0.000001936955    -0.000003560410    -0.000000453737

  **** Optimization is complete! (in 7 steps) ****
    Final optimized geometry and variables:
    Molecular point group: c1

    Geometry (in Angstrom), charge = 0, multiplicity = 1:

    H            2.225850055987     2.750735689084    -1.268224333486
    N            1.420856588415     2.157491266452    -1.328235515987
    C            1.475370264303     1.110051729955    -0.318537253357
    H            1.423158724819     1.758841719913    -2.248003866770
    C            0.203269847669     0.268771535125    -0.348410401082
    H            1.563930719235     1.590977731928     0.650996740954
    H            2.345011438921     0.456921925719    -0.424590716163
    C            0.187348551116    -0.818492972898     0.727581926506
    H           -0.643751785491     0.936822162043    -0.237055781839
    H            0.106195202524    -0.195014698959    -1.330261742333
    C           -1.003966764964    -1.781296624535     0.656970029515
    H            0.218734166747    -0.360086410039     1.714914183631
    H            1.099969926188    -1.406801039639     0.647891128535
    C           -2.376972268303    -1.114295313916     0.745208494826
    H           -0.936961066377    -2.369661446788    -0.255961607526
    H           -0.909631152181    -2.494274893395     1.472900887990
    H           -2.575023463398    -0.477698255494    -0.110352838752
    H           -3.164509206066    -1.860537290567     0.785914678228
    H           -2.456598159402    -0.501604197039     1.639341402351

  Mulliken Charges: (a.u.)
   Center  Symbol    Alpha    Beta     Spin     Total
       1     H     0.33250  0.33250  0.00000  0.33501
       2     N     3.92194  3.92194  0.00000 -0.84389
       3     C     3.05980  3.05980  0.00000 -0.11959
       4     H     0.33539  0.33539  0.00000  0.32922
       5     C     3.15422  3.15422  0.00000 -0.30844
       6     H     0.42085  0.42085  0.00000  0.15830
       7     H     0.43474  0.43474  0.00000  0.13052
       8     C     3.15648  3.15648  0.00000 -0.31296
       9     H     0.41032  0.41032  0.00000  0.17937
      10     H     0.42828  0.42828  0.00000  0.14344
      11     C     3.15132  3.15132  0.00000 -0.30264
      12     H     0.42350  0.42350  0.00000  0.15300
      13     H     0.42359  0.42359  0.00000  0.15282
      14     C     3.24171  3.24171  0.00000 -0.48342
      15     H     0.42368  0.42368  0.00000  0.15264
      16     H     0.42173  0.42173  0.00000  0.15654
      17     H     0.41821  0.41821  0.00000  0.16358
      18     H     0.41978  0.41978  0.00000  0.16043
      19     H     0.42196  0.42196  0.00000  0.15607

   Total alpha = 25.00000, Total beta = 25.00000, Total charge =  0.00000
