  ==> Input File <==

--------------------------------------------------------------------------
set {
	reference rhf
	basis 6-31G*
}

set_num_threads( 4 )
memory 2 gb

molecule MOL {
0 1

H	 -2.365627	 -1.312883	 -0.379134
C	 -1.358347	 -1.274295	 0.019669
C	 -0.681945	 0.000119	 -0.470601
H	 -0.826096	 -2.155117	 -0.321105
H	 -1.409554	 -1.292283	 1.100109
C	 -1.357790	 1.274691	 0.020220
N	 0.739525	 -0.000142	 0.006128
H	 -0.594190	 0.000341	 -1.545128
H	 -2.364980	 1.313977	 -0.378631
H	 -0.825080	 2.155361	 -0.320114
H	 -1.409060	 1.292170	 1.100671
O	 1.145971	 -0.993877	 0.523693
O	 1.374585	 0.996521	 -0.163467

	symmetry c1
}
set optking {
	frozen_dihedral = ("
		12 7 3 8
	")
}

ee = optimize('scf')
oeprop('DIPOLE', 'QUADRUPOLE', 'MULLIKEN_CHARGES')
f=open( 'psi4out.xyz', 'w' )
f.write( "13  " )
f.write( str(ee) + "\n" )
f.write( MOL.save_string_xyz() )
f.close()
--------------------------------------------------------------------------

    Molecular point group: c1
  Charge       = 0
  Multiplicity = 1
  Basis Set: 6-31G*
  Basis Set:
  @DF-RHF Final Energy:  -321.73655868628975
    Total Energy =                       -321.7365586862898681
    Molecular point group: c1
  Basis Set: 6-31G*
  Basis Set:
  Basis Set: 6-31G*
  Basis Set:
  @DF-RHF Final Energy:  -321.73362176911792
    Total Energy =                       -321.7336217691179172
  Basis Set: 6-31G*
  Basis Set:
  Basis Set: 6-31G*
  Basis Set:
  @DF-RHF Final Energy:  -321.73462135802458
    Total Energy =                       -321.7346213580244694
  Basis Set: 6-31G*
  Basis Set:
  Basis Set: 6-31G*
  Basis Set:
  @DF-RHF Final Energy:  -321.73712684076986
    Total Energy =                       -321.7371268407697471
  Basis Set: 6-31G*
  Basis Set:
  Basis Set: 6-31G*
  Basis Set:
  @DF-RHF Final Energy:  -321.73748943340740
    Total Energy =                       -321.7374894334075179
  Basis Set: 6-31G*
  Basis Set:
  Basis Set: 6-31G*
  Basis Set:
  @DF-RHF Final Energy:  -321.73751321167993
    Total Energy =                       -321.7375132116797545
  Basis Set: 6-31G*
  Basis Set:
  Basis Set: 6-31G*
  Basis Set:
  @DF-RHF Final Energy:  -321.73751609750479
    Total Energy =                       -321.7375160975048516
  Basis Set: 6-31G*
  Basis Set:
  Charge       = 0
  Multiplicity = 1
  Basis Set: 6-31G*
  Basis Set:

    Orbital Energies (a.u.)
    -----------------------

    Doubly Occupied:

       1A    -20.602276     2A    -20.596792     3A    -15.844438
       4A    -11.308334     5A    -11.243833     6A    -11.240241
       7A     -1.629471     8A     -1.414373     9A     -1.141551
      10A     -0.968831    11A     -0.958956    12A     -0.812874
      13A     -0.761403    14A     -0.725184    15A     -0.720203
      16A     -0.640898    17A     -0.594773    18A     -0.586458
      19A     -0.571121    20A     -0.524051    21A     -0.521707
      22A     -0.480611    23A     -0.471775    24A     -0.447129

  @DF-RHF Final Energy:  -321.73751662551570

   => Energetics <=

    Nuclear Repulsion Energy =            256.6960207681355541
    One-Electron Energy =                -947.2525084648368647
    Two-Electron Energy =                 368.8189710711857288
    DFT Exchange-Correlation Energy =       0.0000000000000000
    Empirical Dispersion Energy =           0.0000000000000000
    PCM Polarization Energy =               0.0000000000000000
    EFP Energy =                            0.0000000000000000
    Total Energy =                       -321.7375166255155818
    Molecular point group: c1
  Basis Set: 6-31G*
  Basis Set:

  -Total Gradient:
     Atom            X                  Y                   Z
    ------   -----------------  -----------------  -----------------
       1        0.000009250816     0.000002909798    -0.000002729404
       2       -0.000012271241    -0.000007212307     0.000000369845
       3        0.000093933619     0.001114144987    -0.000393674667
       4        0.000003346399    -0.000011252496    -0.000000861688
       5       -0.000002687700     0.000002265594     0.000006153823
       6        0.000010001523     0.000015418039     0.000009941766
       7       -0.000460329682     0.000357850011     0.001359616247
       8        0.000030732043    -0.001116042711     0.000014345219
       9        0.000006213631     0.000002168660     0.000000225549
      10        0.000000322391     0.000012951978     0.000014341993
      11       -0.000002643638     0.000002320033    -0.000008779107
      12        0.000337952247    -0.000352728558    -0.001007560705
      13       -0.000013820413    -0.000022793026     0.000008611128

  **** Optimization is complete! (in 8 steps) ****
    Final optimized geometry and variables:
    Molecular point group: c1

    Geometry (in Angstrom), charge = 0, multiplicity = 1:

    H           -2.397155171993    -1.274195670428    -0.389748222453
    C           -1.389363799636    -1.282657027325     0.010564931855
    C           -0.684751423802    -0.015681700995    -0.446225857378
    H           -0.885389568967    -2.170446068556    -0.343427967839
    H           -1.449094177592    -1.330838967602     1.090711489779
    C           -1.372374128880     1.264272143932     0.016347145094
    N            0.748358234011     0.003012758939     0.021215844202
    H           -0.581985531504    -0.013793928472    -1.524234507489
    H           -2.386371480777     1.273343782009    -0.366086299254
    H           -0.856189413101     2.141386411753    -0.343912599478
    H           -1.419010253958     1.304483544567     1.099318571394
    O            1.192444739099    -0.974164603383     0.537564988895
    O            1.366606640155     1.001499557159    -0.192571532218

  Mulliken Charges: (a.u.)
   Center  Symbol    Alpha    Beta     Spin     Total
       1     H     0.41240  0.41240  0.00000  0.17519
       2     C     3.24171  3.24171  0.00000 -0.48341
       3     C     3.02759  3.02759  0.00000 -0.05518
       4     H     0.39779  0.39779  0.00000  0.20442
       5     H     0.40492  0.40492  0.00000  0.19016
       6     C     3.24840  3.24840  0.00000 -0.49680
       7     N     3.21677  3.21677  0.00000  0.56646
       8     H     0.38549  0.38549  0.00000  0.22902
       9     H     0.40910  0.40910  0.00000  0.18181
      10     H     0.39062  0.39062  0.00000  0.21875
      11     H     0.40764  0.40764  0.00000  0.18471
      12     O     4.22777  4.22777  0.00000 -0.45554
      13     O     4.22980  4.22980  0.00000 -0.45960

   Total alpha = 24.00000, Total beta = 24.00000, Total charge = -0.00000
