  ==> Input File <==

--------------------------------------------------------------------------
set {
	reference rhf
	basis 6-31G*
}

set_num_threads( 1 )
memory 2 gb

molecule MOL {
0 1

H	 4.863904	 -1.668337	 0.611918
C	 4.284057	 -1.462597	 -0.282492
C	 2.811185	 -1.234022	 0.054522
H	 4.714078	 -0.587984	 -0.761528
H	 4.407668	 -2.304795	 -0.957935
C	 1.962847	 -0.947711	 -1.186511
H	 2.727117	 -0.404740	 0.749378
H	 2.418402	 -2.112658	 0.563846
C	 0.480127	 -0.732467	 -0.882409
H	 2.348533	 -0.072108	 -1.696618
H	 2.052197	 -1.782348	 -1.878203
C	 0.169600	 0.576866	 -0.172154
H	 -0.087927	 -0.723332	 -1.811388
H	 0.078670	 -1.559266	 -0.300675
C	 -1.181045	 0.701995	 0.511084
O	 0.946717	 1.483741	 -0.163735
C	 -2.285934	 -0.139295	 -0.145128
H	 -1.449051	 1.751551	 0.493206
H	 -1.071135	 0.403303	 1.551943
C	 -3.651768	 0.085446	 0.506485
H	 -2.346596	 0.110469	 -1.202272
H	 -2.034737	 -1.195320	 -0.088721
C	 -4.759797	 -0.746382	 -0.137905
H	 -3.908762	 1.140117	 0.445781
H	 -3.588286	 -0.154158	 1.565709
H	 -4.868882	 -0.505166	 -1.191300
H	 -4.548009	 -1.809175	 -0.062213
H	 -5.715422	 -0.564821	 0.343442

	symmetry c1
}
set optking {
	frozen_dihedral = ("
		10 6 3 2,
		12 15 17 21
	")
}

ee = energy('scf')
oeprop('DIPOLE', 'QUADRUPOLE', 'MULLIKEN_CHARGES')
f=open( 'psi4out.xyz', 'w' )
f.write( "28  " )
f.write( str(ee) + "\n" )
f.write( MOL.save_string_xyz() )
f.close()
--------------------------------------------------------------------------

    Molecular point group: c1

    Geometry (in Angstrom), charge = 0, multiplicity = 1:

       Center              X                  Y                   Z               Mass
    ------------   -----------------  -----------------  -----------------  -----------------
           H          4.983235901071    -1.420836555025     0.802489486204     1.007825032070
           C          4.403388901071    -1.215096555025    -0.091920513796    12.000000000000
           C          2.930516901071    -0.986521555025     0.245093486204    12.000000000000
           H          4.833409901071    -0.340483555025    -0.570956513796     1.007825032070
           H          4.526999901071    -2.057294555025    -0.767363513796     1.007825032070
           C          2.082178901071    -0.700210555025    -0.995939513796    12.000000000000
           H          2.846448901071    -0.157239555025     0.939949486204     1.007825032070
           H          2.537733901071    -1.865157555025     0.754417486204     1.007825032070
           C          0.599458901071    -0.484966555025    -0.691837513796    12.000000000000
           H          2.467864901071     0.175392444975    -1.506046513796     1.007825032070
           H          2.171528901071    -1.534847555025    -1.687631513796     1.007825032070
           C          0.288931901071     0.824366444975     0.018417486204    12.000000000000
           H          0.031404901071    -0.475831555025    -1.620816513796     1.007825032070
           H          0.198001901071    -1.311765555025    -0.110103513796     1.007825032070
           C         -1.061713098929     0.949495444975     0.701655486204    12.000000000000
           O          1.066048901071     1.731241444975     0.026836486204    15.994914619560
           C         -2.166602098929     0.108205444975     0.045443486204    12.000000000000
           H         -1.329719098929     1.999051444975     0.683777486204     1.007825032070
           H         -0.951803098929     0.650803444975     1.742514486204     1.007825032070
           C         -3.532436098929     0.332946444975     0.697056486204    12.000000000000
           H         -2.227264098929     0.357969444975    -1.011700513796     1.007825032070
           H         -1.915405098929    -0.947819555025     0.101850486204     1.007825032070
           C         -4.640465098929    -0.498881555025     0.052666486204    12.000000000000
           H         -3.789430098929     1.387617444975     0.636352486204     1.007825032070
           H         -3.468954098929     0.093342444975     1.756280486204     1.007825032070
           H         -4.749550098929    -0.257665555025    -1.000728513796     1.007825032070
           H         -4.428677098929    -1.561674555025     0.128358486204     1.007825032070
           H         -5.596090098929    -0.317320555025     0.534013486204     1.007825032070

  Charge       = 0
  Multiplicity = 1
  Basis Set: 6-31G*
  Basis Set:

    Orbital Energies (a.u.)
    -----------------------

    Doubly Occupied:

       1A    -20.546875     2A    -11.322948     3A    -11.230690
       4A    -11.230030     5A    -11.229447     6A    -11.226045
       7A    -11.216691     8A    -11.215882     9A    -11.212264
      10A    -11.205643    11A     -1.392624    12A     -1.097379
      13A     -1.076468    14A     -1.023268    15A     -0.990016
      16A     -0.905234    17A     -0.876177    18A     -0.809344
      19A     -0.800654    20A     -0.720998    21A     -0.666734
      22A     -0.659466    23A     -0.628636    24A     -0.618595
      25A     -0.609122    26A     -0.586005    27A     -0.582291
      28A     -0.573984    29A     -0.542159    30A     -0.530705
      31A     -0.520485    32A     -0.515446    33A     -0.492053
      34A     -0.486569    35A     -0.480412    36A     -0.475921
      37A     -0.468558    38A     -0.465049    39A     -0.454777
      40A     -0.392037

  @DF-RHF Final Energy:  -426.16654358734115

   => Energetics <=

    Nuclear Repulsion Energy =            533.9906553419833699
    One-Electron Energy =               -1636.1592366476888856
    Two-Electron Energy =                 676.0020377183648179
    DFT Exchange-Correlation Energy =       0.0000000000000000
    Empirical Dispersion Energy =           0.0000000000000000
    PCM Polarization Energy =               0.0000000000000000
    EFP Energy =                            0.0000000000000000
    Total Energy =                       -426.1665435873408114

  Mulliken Charges: (a.u.)
   Center  Symbol    Alpha    Beta     Spin     Total
       1     H     0.41944  0.41944  0.00000  0.16113
       2     C     3.24009  3.24009  0.00000 -0.48018
       3     C     3.15643  3.15643  0.00000 -0.31286
       4     H     0.41825  0.41825  0.00000  0.16350
       5     H     0.42363  0.42363  0.00000  0.15274
       6     C     3.14808  3.14808  0.00000 -0.29616
       7     H     0.41053  0.41053  0.00000  0.17894
       8     H     0.42796  0.42796  0.00000  0.14409
       9     C     3.21574  3.21574  0.00000 -0.43148
      10     H     0.40684  0.40684  0.00000  0.18632
      11     H     0.42213  0.42213  0.00000  0.15573
      12     C     2.72932  2.72932  0.00000  0.54136
      13     H     0.40249  0.40249  0.00000  0.19503
      14     H     0.41154  0.41154  0.00000  0.17692
      15     C     3.20252  3.20252  0.00000 -0.40505
      16     O     4.26888  4.26888  0.00000 -0.53776
      17     C     3.16495  3.16495  0.00000 -0.32991
      18     H     0.39943  0.39943  0.00000  0.20114
      19     H     0.40446  0.40446  0.00000  0.19108
      20     C     3.15120  3.15120  0.00000 -0.30241
      21     H     0.41851  0.41851  0.00000  0.16298
      22     H     0.41833  0.41833  0.00000  0.16335
      23     C     3.23994  3.23994  0.00000 -0.47987
      24     H     0.41949  0.41949  0.00000  0.16103
      25     H     0.42137  0.42137  0.00000  0.15727
      26     H     0.42042  0.42042  0.00000  0.15916
      27     H     0.42118  0.42118  0.00000  0.15763
      28     H     0.41686  0.41686  0.00000  0.16629

   Total alpha = 40.00000, Total beta = 40.00000, Total charge = -0.00000
