  ==> Input File <==

--------------------------------------------------------------------------
set {
	reference rhf
	basis 6-31G*
}

set_num_threads( 4 )
memory 2 gb

molecule MOL {
0 1

O	 3.225979	 0.970355	 -0.599647
C	 2.701189	 0.057885	 -0.047330
C	 1.245376	 -0.013843	 0.345420
O	 3.347903	 -1.046386	 0.304773
C	 0.455112	 1.231400	 -0.050772
H	 0.838542	 -0.913825	 -0.103701
H	 1.208210	 -0.175333	 1.419774
C	 -0.998893	 1.219485	 0.433193
H	 0.482531	 1.345121	 -1.130325
H	 0.957290	 2.103070	 0.354729
C	 -1.883438	 0.145884	 -0.207175
H	 -1.431207	 2.195402	 0.224832
H	 -1.019646	 1.105716	 1.516076
C	 -1.478418	 -0.177830	 -1.646678
H	 -1.835245	 -0.761747	 0.392577
H	 -2.923742	 0.463151	 -0.198112
C	 -2.358749	 -1.245686	 -2.298471
H	 -0.441526	 -0.509237	 -1.662785
H	 -1.516056	 0.731504	 -2.244502
C	 -1.945273	 -1.565886	 -3.734511
H	 -2.323084	 -2.154729	 -1.701804
H	 -3.395016	 -0.914318	 -2.287233
H	 -2.587569	 -2.325612	 -4.169114
H	 -0.923807	 -1.933462	 -3.775637
H	 -2.003441	 -0.683308	 -4.365339
C	 4.728119	 -1.109107	 -0.004993
H	 4.882018	 -1.033965	 -1.071845
H	 5.068212	 -2.067527	 0.355250
H	 5.265056	 -0.311663	 0.488280

	symmetry c1
}
set optking {
	frozen_dihedral = ("
		15 11 8 5
	")
}

ee = optimize('scf')
oeprop('DIPOLE', 'QUADRUPOLE', 'MULLIKEN_CHARGES')
f=open( 'psi4out.xyz', 'w' )
f.write( "29  " )
f.write( str(ee) + "\n" )
f.write( MOL.save_string_xyz() )
f.close()
--------------------------------------------------------------------------

    Molecular point group: c1
  Charge       = 0
  Multiplicity = 1
  Basis Set: 6-31G*
  Basis Set:
  @DF-RHF Final Energy:  -501.03588084461887
    Total Energy =                       -501.0358808446201238
    Molecular point group: c1
  Basis Set: 6-31G*
  Basis Set:
  Basis Set: 6-31G*
  Basis Set:
  @DF-RHF Final Energy:  -501.03857871648665
    Total Energy =                       -501.0385787164868816
  Basis Set: 6-31G*
  Basis Set:
  Basis Set: 6-31G*
  Basis Set:
  @DF-RHF Final Energy:  -501.03930337318957
    Total Energy =                       -501.0393033731900232
  Basis Set: 6-31G*
  Basis Set:
  Basis Set: 6-31G*
  Basis Set:
  @DF-RHF Final Energy:  -501.03887538597917
    Total Energy =                       -501.0388753859790540
  Basis Set: 6-31G*
  Basis Set:
  Basis Set: 6-31G*
  Basis Set:
  @DF-RHF Final Energy:  -501.03933904104872
    Total Energy =                       -501.0393390410483789
  Basis Set: 6-31G*
  Basis Set:
  Basis Set: 6-31G*
  Basis Set:
  @DF-RHF Final Energy:  -501.03935054458464
    Total Energy =                       -501.0393505445840674
  Basis Set: 6-31G*
  Basis Set:
  Charge       = 0
  Multiplicity = 1
  Basis Set: 6-31G*
  Basis Set:

    Orbital Energies (a.u.)
    -----------------------

    Doubly Occupied:

       1A    -20.603228     2A    -20.545016     3A    -11.371716
       4A    -11.280577     5A    -11.234243     6A    -11.218315
       7A    -11.217731     8A    -11.216415     9A    -11.216224
      10A    -11.215349    11A    -11.209032    12A     -1.468867
      13A     -1.362296    14A     -1.097748    15A     -1.064965
      16A     -1.018304    17A     -0.975713    18A     -0.930101
      19A     -0.867664    20A     -0.808593    21A     -0.779038
      22A     -0.758331    23A     -0.701014    24A     -0.682522
      25A     -0.671502    26A     -0.646956    27A     -0.634657
      28A     -0.602975    29A     -0.594590    30A     -0.579360
      31A     -0.564497    32A     -0.553877    33A     -0.538970
      34A     -0.526557    35A     -0.522201    36A     -0.507386
      37A     -0.492102    38A     -0.481116    39A     -0.471921
      40A     -0.456460    41A     -0.455579    42A     -0.453659
      43A     -0.442509    44A     -0.435585

  @DF-RHF Final Energy:  -501.03934972418404

   => Energetics <=

    Nuclear Repulsion Energy =            628.4971358508963704
    One-Electron Energy =               -1928.1220465564604183
    Two-Electron Energy =                 798.5855609813797855
    DFT Exchange-Correlation Energy =       0.0000000000000000
    Empirical Dispersion Energy =           0.0000000000000000
    PCM Polarization Energy =               0.0000000000000000
    EFP Energy =                            0.0000000000000000
    Total Energy =                       -501.0393497241843761
    Molecular point group: c1
  Basis Set: 6-31G*
  Basis Set:

  -Total Gradient:
     Atom            X                  Y                   Z
    ------   -----------------  -----------------  -----------------
       1        0.000005033388    -0.000019584540     0.000040413011
       2       -0.000029690324     0.000007871709    -0.000030138794
       3       -0.000135781146    -0.000049383252    -0.000049450959
       4        0.000011199934     0.000017512217    -0.000013268328
       5       -0.001174492205     0.003097763832    -0.003693806694
       6        0.000067299560     0.000064656947     0.000068326398
       7        0.000009585167    -0.000003544786     0.000007134828
       8        0.000452179505    -0.004063690866     0.006190440690
       9        0.000039233368     0.000013328436    -0.000019547228
      10       -0.000059619516    -0.000029380924    -0.000000395653
      11        0.005937127796    -0.001179485679    -0.005882921817
      12        0.000001816806    -0.000019690640    -0.000001209634
      13       -0.000010110606    -0.000005139379     0.000027789526
      14        0.000098597649    -0.000002386905    -0.000112248641
      15       -0.005214308918     0.002043275406     0.003507168902
      16        0.000083234340     0.000086396885     0.000021931949
      17        0.000024957021     0.000031309880    -0.000011684358
      18       -0.000096542634     0.000056030311    -0.000064008994
      19       -0.000053677837    -0.000019704003    -0.000044103062
      20        0.000050678452    -0.000022801067     0.000040903438
      21       -0.000023403751    -0.000005178378     0.000008551975
      22       -0.000004888939     0.000013827112    -0.000023258848
      23        0.000006261696    -0.000004188642     0.000024673159
      24        0.000011687058     0.000002131394    -0.000012945739
      25       -0.000011537379    -0.000000535152     0.000017404021
      26        0.000007630635    -0.000009765971     0.000005181205
      27       -0.000000316913    -0.000000246752     0.000000452901
      28        0.000006530773     0.000000324473    -0.000001376432
      29        0.000001317019     0.000000278333    -0.000000006823

  **** Optimization is complete! (in 7 steps) ****
    Final optimized geometry and variables:
    Molecular point group: c1

    Geometry (in Angstrom), charge = 0, multiplicity = 1:

    O            2.601737267618     1.134826245203     0.114194173182
    C            2.094136727038     0.243280610683     0.714772430855
    C            0.637749210062     0.162301459202     1.102622384822
    O            2.763620211532    -0.823822394130     1.132844357527
    C           -0.177751558019     1.369480104120     0.643707595417
    H            0.248605005847    -0.767775805327     0.700467894194
    H            0.596735553205     0.054227948295     2.183367083767
    C           -1.651952779046     1.296313109741     1.058022173822
    H           -0.089329861882     1.482478428441    -0.429934340833
    H            0.259689426093     2.264533174274     1.073250362724
    C           -2.515459436346     0.203437117316     0.394684532040
    H           -2.092902949691     2.261667259069     0.820573292822
    H           -1.723954796624     1.194891538867     2.138295356730
    C           -2.237095249626    -0.087674033200    -1.080817719537
    H           -2.482625480192    -0.711020795325     0.984165142935
    H           -3.550950075722     0.528603746449     0.479972846845
    C           -3.234994092117    -1.079606107050    -1.682610161221
    H           -1.232111553197    -0.480237127851    -1.210762906511
    H           -2.274349935445     0.842661780589    -1.645267908042
    C           -2.955692408703    -1.388892252088    -3.152898685520
    H           -3.213566537583    -2.004068781672    -1.109194038699
    H           -4.242769569273    -0.682568955353    -1.582622501450
    H           -3.679153938708    -2.093864569596    -3.550632894067
    H           -1.967391902213    -1.820982832878    -3.282549254962
    H           -3.003531637588    -0.488533416063    -3.758841287540
    C            4.146991142155    -0.872001289122     0.834807836169
    H            4.306507323405    -0.854180620159    -0.233731845302
    H            4.506512107675    -1.800162476184     1.251063693582
    H            4.662135303638    -0.035478809600     1.284693184001

  Mulliken Charges: (a.u.)
   Center  Symbol    Alpha    Beta     Spin     Total
       1     O     4.28595  4.28595  0.00000 -0.57191
       2     C     2.60555  2.60555  0.00000  0.78890
       3     C     3.20900  3.20900  0.00000 -0.41799
       4     O     4.30743  4.30743  0.00000 -0.61486
       5     C     3.15736  3.15736  0.00000 -0.31471
       6     H     0.39927  0.39927  0.00000  0.20147
       7     H     0.40100  0.40100  0.00000  0.19800
       8     C     3.15758  3.15758  0.00000 -0.31515
       9     H     0.40846  0.40846  0.00000  0.18308
      10     H     0.41023  0.41023  0.00000  0.17954
      11     C     3.15778  3.15778  0.00000 -0.31557
      12     H     0.41864  0.41864  0.00000  0.16273
      13     H     0.42138  0.42138  0.00000  0.15723
      14     C     3.15401  3.15401  0.00000 -0.30801
      15     H     0.42308  0.42308  0.00000  0.15383
      16     H     0.42060  0.42060  0.00000  0.15881
      17     C     3.15137  3.15137  0.00000 -0.30273
      18     H     0.42322  0.42322  0.00000  0.15356
      19     H     0.42174  0.42174  0.00000  0.15652
      20     C     3.23935  3.23935  0.00000 -0.47869
      21     H     0.42325  0.42325  0.00000  0.15350
      22     H     0.42249  0.42249  0.00000  0.15502
      23     H     0.41918  0.41918  0.00000  0.16165
      24     H     0.42176  0.42176  0.00000  0.15647
      25     H     0.42115  0.42115  0.00000  0.15771
      26     C     3.09235  3.09235  0.00000 -0.18470
      27     H     0.40917  0.40917  0.00000  0.18167
      28     H     0.40856  0.40856  0.00000  0.18289
      29     H     0.40912  0.40912  0.00000  0.18176

   Total alpha = 44.00000, Total beta = 44.00000, Total charge = -0.00000
