  ==> Input File <==

--------------------------------------------------------------------------
set {
	reference rhf
	basis 6-31G*
}

set_num_threads( 4 )
memory 2 gb

molecule MOL {
0 1

H	 -1.007661	 -0.717540	 -0.729405
N	 -0.712432	 0.000013	 -0.096310
C	 0.734192	 -0.000004	 0.040609
H	 -1.150891	 -0.190444	 0.783655
H	 1.139899	 -0.873598	 -0.456463
H	 1.139939	 0.873831	 -0.456100
H	 1.096456	 -0.000300	 1.069655

	symmetry c1
}
set optking {
	frozen_dihedral = ("
		1 2 3 7
	")
}

ee = optimize('scf')
oeprop('DIPOLE', 'QUADRUPOLE', 'MULLIKEN_CHARGES')
f=open( 'psi4out.xyz', 'w' )
f.write( "7  " )
f.write( str(ee) + "\n" )
f.write( MOL.save_string_xyz() )
f.close()
--------------------------------------------------------------------------

    Molecular point group: c1
  Charge       = 0
  Multiplicity = 1
  Basis Set: 6-31G*
  Basis Set:
  @DF-RHF Final Energy:   -95.20514648873721
    Total Energy =                        -95.2051464887371708
    Molecular point group: c1
  Basis Set: 6-31G*
  Basis Set:
  Basis Set: 6-31G*
  Basis Set:
  @DF-RHF Final Energy:   -95.20606749859544
    Total Energy =                        -95.2060674985953881
  Basis Set: 6-31G*
  Basis Set:
  Basis Set: 6-31G*
  Basis Set:
  @DF-RHF Final Energy:   -95.20625041612681
    Total Energy =                        -95.2062504161267782
  Basis Set: 6-31G*
  Basis Set:
  Charge       = 0
  Multiplicity = 1
  Basis Set: 6-31G*
  Basis Set:

    Orbital Energies (a.u.)
    -----------------------

    Doubly Occupied:

       1A    -15.532623     2A    -11.237541     3A     -1.167722
       4A     -0.897590     5A     -0.663112     6A     -0.600324
       7A     -0.558918     8A     -0.517647     9A     -0.380889

  @DF-RHF Final Energy:   -95.20625170364839

   => Energetics <=

    Nuclear Repulsion Energy =             42.2406014999830148
    One-Electron Energy =                -211.7809741286819758
    Two-Electron Energy =                  74.3341209250505699
    DFT Exchange-Correlation Energy =       0.0000000000000000
    Empirical Dispersion Energy =           0.0000000000000000
    PCM Polarization Energy =               0.0000000000000000
    EFP Energy =                            0.0000000000000000
    Total Energy =                        -95.2062517036483769
    Molecular point group: c1
  Basis Set: 6-31G*
  Basis Set:

  -Total Gradient:
     Atom            X                  Y                   Z
    ------   -----------------  -----------------  -----------------
       1       -0.000045010766    -0.001054264792     0.001298830578
       2        0.000144360580     0.000931147401    -0.001558726261
       3       -0.000095764760     0.001597840532     0.000268541240
       4       -0.000006671426     0.000030194023    -0.000022589020
       5        0.000024399067     0.000018783941    -0.000004070929
       6       -0.000021201941     0.000011745719     0.000003623521
       7       -0.000000110753    -0.001535446824     0.000014390871

  **** Optimization is complete! (in 4 steps) ****
    Final optimized geometry and variables:
    Molecular point group: c1

    Geometry (in Angstrom), charge = 0, multiplicity = 1:

    H           -1.038161162766    -0.681081781278    -0.689906608922
    N           -0.719087450107     0.029566802346    -0.063552731579
    C            0.737324607549     0.028140862704     0.043726145162
    H           -1.144903909319    -0.157580067543     0.821091431773
    H            1.189536041050    -0.842305167855    -0.424928829942
    H            1.156382821224     0.911175537505    -0.426512445377
    H            1.049201328813     0.023911539830     1.082640646105

  Mulliken Charges: (a.u.)
   Center  Symbol    Alpha    Beta     Spin     Total
       1     H     0.33163  0.33163  0.00000  0.33675
       2     N     3.92360  3.92360  0.00000 -0.84720
       3     C     3.14628  3.14628  0.00000 -0.29255
       4     H     0.33173  0.33173  0.00000  0.33655
       5     H     0.42730  0.42730  0.00000  0.14541
       6     H     0.41619  0.41619  0.00000  0.16761
       7     H     0.42328  0.42328  0.00000  0.15345

   Total alpha =  9.00000, Total beta =  9.00000, Total charge = -0.00000
