  ==> Input File <==

--------------------------------------------------------------------------
set {
	reference rhf
	basis 6-31G*
}

set_num_threads( 1 )
memory 2 gb

molecule MOL {
0 1

H	 2.591676	 2.013956	 0.335017
O	 3.341076	 1.666752	 -0.126416
C	 3.569581	 0.339145	 0.272707
C	 4.832976	 0.172072	 1.109755
H	 2.703880	 0.054254	 0.856722
H	 3.604898	 -0.318854	 -0.594801
C	 6.125044	 0.504896	 0.359651
H	 4.749196	 0.803606	 1.990386
H	 4.873512	 -0.857804	 1.460583
C	 7.378024	 0.275417	 1.209474
H	 6.092184	 1.540895	 0.034086
H	 6.188011	 -0.105286	 -0.541489
C	 8.704410	 0.512220	 0.478060
H	 7.334400	 0.912618	 2.090904
H	 7.364984	 -0.749006	 1.575654
C	 8.963749	 1.964399	 0.067698
H	 9.515013	 0.185044	 1.125899
H	 8.747228	 -0.125038	 -0.403930
C	 10.342914	 2.168423	 -0.562948
H	 8.871234	 2.606625	 0.942396
H	 8.203651	 2.296054	 -0.635551
C	 10.601850	 3.615914	 -0.979345
H	 11.110513	 1.852791	 0.140370
H	 10.440830	 1.520359	 -1.431459
H	 10.543244	 4.285787	 -0.126080
H	 11.587335	 3.728392	 -1.420708
H	 9.871916	 3.950328	 -1.711279

	symmetry c1
}
set optking {
	frozen_dihedral = ("
		14 10 7 4,
		14 10 13 16,
		10 7 4 8,
		8 4 3 2,
		10 13 16 20,
		20 16 19 22
	")
}

ee = energy('scf')
oeprop('DIPOLE', 'QUADRUPOLE', 'MULLIKEN_CHARGES')
f=open( 'psi4out.xyz', 'w' )
f.write( "27  " )
f.write( str(ee) + "\n" )
f.write( MOL.save_string_xyz() )
f.close()
--------------------------------------------------------------------------

    Molecular point group: c1

    Geometry (in Angstrom), charge = 0, multiplicity = 1:

       Center              X                  Y                   Z               Mass
    ------------   -----------------  -----------------  -----------------  -----------------
           H         -4.440273595294     0.745521160962     0.141725174823     1.007825032070
           O         -3.690873595294     0.398317160962    -0.319707825177    15.994914619560
           C         -3.462368595294    -0.929289839038     0.079415174823    12.000000000000
           C         -2.198973595294    -1.096362839038     0.916463174823    12.000000000000
           H         -4.328069595294    -1.214180839038     0.663430174823     1.007825032070
           H         -3.427051595294    -1.587288839038    -0.788092825177     1.007825032070
           C         -0.906905595294    -0.763538839038     0.166359174823    12.000000000000
           H         -2.282753595294    -0.464828839038     1.797094174823     1.007825032070
           H         -2.158437595294    -2.126238839038     1.267291174823     1.007825032070
           C          0.346074404706    -0.993017839038     1.016182174823    12.000000000000
           H         -0.939765595294     0.272460160962    -0.159205825177     1.007825032070
           H         -0.843938595294    -1.373720839038    -0.734780825177     1.007825032070
           C          1.672460404706    -0.756214839038     0.284768174823    12.000000000000
           H          0.302450404706    -0.355816839038     1.897612174823     1.007825032070
           H          0.333034404706    -2.017440839038     1.382362174823     1.007825032070
           C          1.931799404706     0.695964160962    -0.125593825177    12.000000000000
           H          2.483063404706    -1.083390839038     0.932607174823     1.007825032070
           H          1.715278404706    -1.393472839038    -0.597221825177     1.007825032070
           C          3.310964404706     0.899988160962    -0.756239825177    12.000000000000
           H          1.839284404706     1.338190160962     0.749104174823     1.007825032070
           H          1.171701404706     1.027619160962    -0.828842825177     1.007825032070
           C          3.569900404706     2.347479160962    -1.172636825177    12.000000000000
           H          4.078563404706     0.584356160962    -0.052921825177     1.007825032070
           H          3.408880404706     0.251924160962    -1.624750825177     1.007825032070
           H          3.511294404706     3.017352160962    -0.319371825177     1.007825032070
           H          4.555385404706     2.459957160962    -1.613999825177     1.007825032070
           H          2.839966404706     2.681893160962    -1.904570825177     1.007825032070

  Charge       = 0
  Multiplicity = 1
  Basis Set: 6-31G*
  Basis Set:

    Orbital Energies (a.u.)
    -----------------------

    Doubly Occupied:

       1A    -20.550969     2A    -11.268373     3A    -11.213040
       4A    -11.210851     5A    -11.209979     6A    -11.209338
       7A    -11.207766     8A    -11.207689     9A    -11.204726
      10A     -1.359051    11A     -1.088351    12A     -1.056082
      13A     -1.007487    14A     -0.942907    15A     -0.880328
      16A     -0.814224    17A     -0.796604    18A     -0.771624
      19A     -0.695295    20A     -0.648834    21A     -0.639919
      22A     -0.607855    23A     -0.592034    24A     -0.584357
      25A     -0.568899    26A     -0.548438    27A     -0.536713
      28A     -0.519727    29A     -0.505899    30A     -0.494504
      31A     -0.475855    32A     -0.468226    33A     -0.460837
      34A     -0.455012    35A     -0.446149    36A     -0.434661
      37A     -0.420820

  @DF-RHF Final Energy:  -388.27890124925267

   => Energetics <=

    Nuclear Repulsion Energy =            458.5178928150236857
    One-Electron Energy =               -1435.3866741197882675
    Two-Electron Energy =                 588.5898800555117987
    DFT Exchange-Correlation Energy =       0.0000000000000000
    Empirical Dispersion Energy =           0.0000000000000000
    PCM Polarization Energy =               0.0000000000000000
    EFP Energy =                            0.0000000000000000
    Total Energy =                       -388.2789012492527263

  Mulliken Charges: (a.u.)
   Center  Symbol    Alpha    Beta     Spin     Total
       1     H     0.27891  0.27891  0.00000  0.44219
       2     O     4.37231  4.37231  0.00000 -0.74461
       3     C     2.99733  2.99733  0.00000  0.00535
       4     C     3.15724  3.15724  0.00000 -0.31447
       5     H     0.43186  0.43186  0.00000  0.13627
       6     H     0.42242  0.42242  0.00000  0.15516
       7     C     3.15686  3.15686  0.00000 -0.31372
       8     H     0.42300  0.42300  0.00000  0.15401
       9     H     0.42553  0.42553  0.00000  0.14893
      10     C     3.15297  3.15297  0.00000 -0.30594
      11     H     0.40784  0.40784  0.00000  0.18432
      12     H     0.42567  0.42567  0.00000  0.14867
      13     C     3.15274  3.15274  0.00000 -0.30549
      14     H     0.42440  0.42440  0.00000  0.15121
      15     H     0.42436  0.42436  0.00000  0.15127
      16     C     3.15304  3.15304  0.00000 -0.30607
      17     H     0.42298  0.42298  0.00000  0.15405
      18     H     0.42429  0.42429  0.00000  0.15142
      19     C     3.15101  3.15101  0.00000 -0.30203
      20     H     0.42501  0.42501  0.00000  0.14998
      21     H     0.41997  0.41997  0.00000  0.16005
      22     C     3.23909  3.23909  0.00000 -0.47817
      23     H     0.42400  0.42400  0.00000  0.15200
      24     H     0.42341  0.42341  0.00000  0.15319
      25     H     0.42221  0.42221  0.00000  0.15559
      26     H     0.42020  0.42020  0.00000  0.15960
      27     H     0.42137  0.42137  0.00000  0.15726

   Total alpha = 37.00000, Total beta = 37.00000, Total charge =  0.00000
