  ==> Input File <==

--------------------------------------------------------------------------
set {
	reference rhf
	basis 6-31G*
}

set_num_threads( 1 )
memory 2 gb

molecule MOL {
0 1

H	 -0.066720	 2.155416	 -1.201090
C	 0.390238	 2.017934	 -0.213624
C	 0.692068	 0.589600	 0.160137
O	 0.612890	 2.958900	 0.477128
C	 -0.558097	 -0.297372	 0.091132
H	 1.127355	 0.582754	 1.152588
H	 1.439351	 0.214489	 -0.538213
C	 -1.850991	 0.512573	 -0.019058
H	 -0.476753	 -0.965681	 -0.762987
H	 -0.604799	 -0.930658	 0.975228
C	 -3.096943	 -0.368295	 -0.099594
H	 -1.800724	 1.150330	 -0.898172
H	 -1.931651	 1.177355	 0.838044
H	 -3.060452	 -1.020287	 -0.967456
H	 -3.996858	 0.233488	 -0.175704
H	 -3.191959	 -0.995686	 0.782074

	symmetry c1
}
set optking {
	frozen_dihedral = ("
		9 5 8 12,
		4 2 3 6
	")
}

ee = energy('scf')
oeprop('DIPOLE', 'QUADRUPOLE', 'MULLIKEN_CHARGES')
f=open( 'psi4out.xyz', 'w' )
f.write( "16  " )
f.write( str(ee) + "\n" )
f.write( MOL.save_string_xyz() )
f.close()
--------------------------------------------------------------------------

    Molecular point group: c1

    Geometry (in Angstrom), charge = 0, multiplicity = 1:

       Center              X                  Y                   Z               Mass
    ------------   -----------------  -----------------  -----------------  -----------------
           H          0.583228149796     1.244624757833    -1.269144001994     1.007825032070
           C          1.040186149796     1.107142757833    -0.281678001994    12.000000000000
           C          1.342016149796    -0.321191242167     0.092082998006    12.000000000000
           O          1.262838149796     2.048108757833     0.409073998006    15.994914619560
           C          0.091851149796    -1.208163242167     0.023077998006    12.000000000000
           H          1.777303149796    -0.328037242167     1.084533998006     1.007825032070
           H          2.089299149796    -0.696302242167    -0.606267001994     1.007825032070
           C         -1.201042850204    -0.398218242167    -0.087112001994    12.000000000000
           H          0.173195149796    -1.876472242167    -0.831041001994     1.007825032070
           H          0.045149149796    -1.841449242167     0.907173998006     1.007825032070
           C         -2.446994850204    -1.279086242167    -0.167648001994    12.000000000000
           H         -1.150775850204     0.239538757833    -0.966226001994     1.007825032070
           H         -1.281702850204     0.266563757833     0.769989998006     1.007825032070
           H         -2.410503850204    -1.931078242167    -1.035510001994     1.007825032070
           H         -3.346909850204    -0.677303242167    -0.243758001994     1.007825032070
           H         -2.542010850204    -1.906477242167     0.714019998006     1.007825032070

  Charge       = 0
  Multiplicity = 1
  Basis Set: 6-31G*
  Basis Set:

    Orbital Energies (a.u.)
    -----------------------

    Doubly Occupied:

       1A    -20.560466     2A    -11.325245     3A    -11.234388
       4A    -11.233403     5A    -11.228692     6A    -11.218272
       7A     -1.400997     8A     -1.099397     9A     -1.015029
      10A     -0.902670    11A     -0.839161    12A     -0.771362
      13A     -0.675721    14A     -0.644261    15A     -0.627760
      16A     -0.606202    17A     -0.584174    18A     -0.560894
      19A     -0.522419    20A     -0.509085    21A     -0.497212
      22A     -0.475094    23A     -0.468880    24A     -0.406103

  @DF-RHF Final Energy:  -270.00858659034373

   => Energetics <=

    Nuclear Repulsion Energy =            236.5740440744219484
    One-Electron Energy =                -834.3515143711344990
    Two-Electron Energy =                 327.7688837063688538
    DFT Exchange-Correlation Energy =       0.0000000000000000
    Empirical Dispersion Energy =           0.0000000000000000
    PCM Polarization Energy =               0.0000000000000000
    EFP Energy =                            0.0000000000000000
    Total Energy =                       -270.0085865903436684

  Mulliken Charges: (a.u.)
   Center  Symbol    Alpha    Beta     Spin     Total
       1     H     0.42875  0.42875  0.00000  0.14251
       2     C     2.83643  2.83643  0.00000  0.32715
       3     C     3.20954  3.20954  0.00000 -0.41908
       4     O     4.23832  4.23832  0.00000 -0.47664
       5     C     3.15865  3.15865  0.00000 -0.31729
       6     H     0.39771  0.39771  0.00000  0.20458
       7     H     0.40681  0.40681  0.00000  0.18639
       8     C     3.17034  3.17034  0.00000 -0.34069
       9     H     0.41690  0.41690  0.00000  0.16621
      10     H     0.41137  0.41137  0.00000  0.17727
      11     C     3.23779  3.23779  0.00000 -0.47559
      12     H     0.42076  0.42076  0.00000  0.15848
      13     H     0.41078  0.41078  0.00000  0.17844
      14     H     0.42067  0.42067  0.00000  0.15867
      15     H     0.41573  0.41573  0.00000  0.16853
      16     H     0.41947  0.41947  0.00000  0.16106

   Total alpha = 24.00000, Total beta = 24.00000, Total charge =  0.00000
