  ==> Input File <==

--------------------------------------------------------------------------
set {
	reference rhf
	basis 6-31G*
}

set_num_threads( 1 )
memory 2 gb

molecule MOL {
0 1

H	 2.176868	 -0.646004	 -0.217325
O	 1.337496	 -0.537251	 0.205931
C	 0.702312	 0.627605	 -0.264544
C	 -0.714990	 0.596302	 0.266387
H	 0.682322	 0.642550	 -1.350929
H	 1.215941	 1.520383	 0.085680
O	 -1.405996	 -0.526611	 -0.195820
H	 -1.257453	 1.468809	 -0.075599
H	 -0.688972	 0.618407	 1.353696
H	 -2.222797	 -0.580608	 0.283695

	symmetry c1
}
set optking {
	frozen_dihedral = ("
		5 3 4 7
	")
}

ee = energy('scf')
oeprop('DIPOLE', 'QUADRUPOLE', 'MULLIKEN_CHARGES')
f=open( 'psi4out.xyz', 'w' )
f.write( "10  " )
f.write( str(ee) + "\n" )
f.write( MOL.save_string_xyz() )
f.close()
--------------------------------------------------------------------------

    Molecular point group: c1

    Geometry (in Angstrom), charge = 0, multiplicity = 1:

       Center              X                  Y                   Z               Mass
    ------------   -----------------  -----------------  -----------------  -----------------
           H          2.198510240762    -0.657572918045    -0.221575357087     1.007825032070
           O          1.359138240762    -0.548819918045     0.201680642913    15.994914619560
           C          0.723954240762     0.616036081955    -0.268794357087    12.000000000000
           C         -0.693347759238     0.584733081955     0.262136642913    12.000000000000
           H          0.703964240762     0.630981081955    -1.355179357087     1.007825032070
           H          1.237583240762     1.508814081955     0.081429642913     1.007825032070
           O         -1.384353759238    -0.538179918045    -0.200070357087    15.994914619560
           H         -1.235810759238     1.457240081955    -0.079849357087     1.007825032070
           H         -0.667329759238     0.606838081955     1.349445642913     1.007825032070
           H         -2.201154759238    -0.592176918045     0.279444642913     1.007825032070

  Charge       = 0
  Multiplicity = 1
  Basis Set: 6-31G*
  Basis Set:

    Orbital Energies (a.u.)
    -----------------------

    Doubly Occupied:

       1A    -20.551120     2A    -20.550180     3A    -11.272599
       4A    -11.268863     5A     -1.369850     6A     -1.347485
       7A     -1.000200     8A     -0.830829     9A     -0.714152
      10A     -0.702719    11A     -0.613548    12A     -0.600248
      13A     -0.587396    14A     -0.522075    15A     -0.473719
      16A     -0.441091    17A     -0.435681

  @DF-RHF Final Energy:  -228.91733579416388

   => Energetics <=

    Nuclear Repulsion Energy =            133.6955852592274709
    One-Electron Energy =                -578.6623376951970386
    Two-Electron Energy =                 216.0494166418061752
    DFT Exchange-Correlation Energy =       0.0000000000000000
    Empirical Dispersion Energy =           0.0000000000000000
    PCM Polarization Energy =               0.0000000000000000
    EFP Energy =                            0.0000000000000000
    Total Energy =                       -228.9173357941633924

  Mulliken Charges: (a.u.)
   Center  Symbol    Alpha    Beta     Spin     Total
       1     H     0.28040  0.28040  0.00000  0.43920
       2     O     4.36561  4.36561  0.00000 -0.73123
       3     C     3.00258  3.00258  0.00000 -0.00517
       4     C     2.99919  2.99919  0.00000  0.00162
       5     H     0.42345  0.42345  0.00000  0.15311
       6     H     0.42889  0.42889  0.00000  0.14223
       7     O     4.36300  4.36300  0.00000 -0.72601
       8     H     0.43167  0.43167  0.00000  0.13666
       9     H     0.42495  0.42495  0.00000  0.15010
      10     H     0.28026  0.28026  0.00000  0.43949

   Total alpha = 17.00000, Total beta = 17.00000, Total charge =  0.00000
