                              Psi4 1.0.54 Driver

  ==> Input File <==

--------------------------------------------------------------------------
set {
	reference rhf
	basis cc-pvtz
}

set_num_threads( 4 )
memory 2 gb

molecule MOL {
0 1

H	 -2.123894	 -0.667238	 -0.609809
O	 -2.041679	 -0.058866	 0.103463
C	 -0.959304	 0.780994	 -0.094939
C	 0.354905	 0.037902	 -0.006215
H	 -0.985899	 1.279578	 -1.057596
H	 -0.969809	 1.529522	 0.682889
F	 1.376532	 0.869701	 -0.107112
F	 0.455311	 -0.576847	 1.153785
F	 0.487580	 -0.862044	 -0.950919

	symmetry c1
}
set optking {
	frozen_dihedral = ("
		7 4 3 5
	")
}

ee,wfn = optimize('scf', return_wfn=True)
oeprop( wfn, 'DIPOLE', 'QUADRUPOLE', 'MULLIKEN_CHARGES')
f=open( 'psi4out.xyz', 'w' )
f.write( "9  " )
f.write( str(ee) + "\n" )
f.write( MOL.save_string_xyz() )
f.close()
--------------------------------------------------------------------------

    Molecular point group: c1
  Charge       = 0
  Multiplicity = 1
  Basis Set: CC-PVTZ
  Basis Set:
  @DF-RHF Final Energy:  -450.84673318773577
    Total Energy =                       -450.8467331877359356
    Molecular point group: c1
  Basis Set: CC-PVTZ
  Basis Set:
  Basis Set: CC-PVTZ
  Basis Set:
  @DF-RHF Final Energy:  -450.84704396772224
    Total Energy =                       -450.8470439677221862
  Basis Set: CC-PVTZ
  Basis Set:
  Basis Set: CC-PVTZ
  Basis Set:
  @DF-RHF Final Energy:  -450.84708774534590
    Total Energy =                       -450.8470877453461299
  Basis Set: CC-PVTZ
  Basis Set:
  Basis Set: CC-PVTZ
  Basis Set:
  @DF-RHF Final Energy:  -450.84709281709434
    Total Energy =                       -450.8470928170942216
  Basis Set: CC-PVTZ
  Basis Set:
  Charge       = 0
  Multiplicity = 1
  Basis Set: CC-PVTZ
  Basis Set:

    Orbital Energies (a.u.)
    -----------------------

    Doubly Occupied:

       1A    -26.339726     2A    -26.339165     3A    -26.334809
       4A    -20.583631     5A    -11.493330     6A    -11.310155
       7A     -1.747470     8A     -1.644890     9A     -1.642140
      10A     -1.406974    11A     -1.050384    12A     -0.929576
      13A     -0.837725    14A     -0.835834    15A     -0.810537
      16A     -0.732783    17A     -0.718807    18A     -0.703314
      19A     -0.671821    20A     -0.665107    21A     -0.648888
      22A     -0.633131    23A     -0.618164    24A     -0.534691
      25A     -0.484581

  @DF-RHF Final Energy:  -450.84709358298892

   => Energetics <=

    Nuclear Repulsion Energy =            277.6775544724848714
    One-Electron Energy =               -1177.6140378762852379
    Two-Electron Energy =                 449.0893898208115615
    DFT Exchange-Correlation Energy =       0.0000000000000000
    Empirical Dispersion Energy =           0.0000000000000000
    PCM Polarization Energy =               0.0000000000000000
    EFP Energy =                            0.0000000000000000
    Total Energy =                       -450.8470935829888049
    Molecular point group: c1
  Basis Set: CC-PVTZ
  Basis Set:

  -Total Gradient:
     Atom            X                  Y                   Z
    ------   -----------------  -----------------  -----------------
       1       -0.000013033785    -0.000006718517    -0.000005044960
       2       -0.000016114813    -0.000008700890    -0.000001823301
       3        0.000894533089     0.001729225288     0.001309328240
       4       -0.000174847432    -0.000497522135    -0.002015497658
       5       -0.000716916947    -0.001372376342    -0.000706193379
       6       -0.000004291625    -0.000010521492    -0.000014320367
       7        0.000029680061     0.000171710304     0.001401801414
       8       -0.000000065804    -0.000021365828    -0.000012102736
       9        0.000001057257     0.000016269609     0.000043852750

  **** Optimization is complete! (in 5 steps) ****
    Final optimized geometry and variables:
    Molecular point group: c1

    Geometry (in Angstrom), charge = 0, multiplicity = 1:

    H           -2.130533976379    -0.657275897402    -0.637962521199
    O           -2.041184634048    -0.076318509355     0.096901363889
    C           -0.964329171033     0.776259494984    -0.082690783097
    C            0.354517624896     0.039784411569    -0.006365797354
    H           -0.996753215654     1.282832229176    -1.040936111397
    H           -0.982974307280     1.511146978941     0.707366191213
    F            1.357565272477     0.887207860434    -0.105115747894
    F            0.495879844852    -0.616396840915     1.120423612707
    F            0.468262470688    -0.835344880276    -0.989101207784

  Mulliken Charges: (a.u.)
   Center  Symbol    Alpha    Beta     Spin     Total
       1     H     0.38701  0.38701  0.00000  0.22598
       2     O     4.19229  4.19229  0.00000 -0.38457
       3     C     2.99070  2.99070  0.00000  0.01861
       4     C     2.68479  2.68479  0.00000  0.63041
       5     H     0.46163  0.46163  0.00000  0.07675
       6     H     0.44683  0.44683  0.00000  0.10634
       7     F     4.61235  4.61235  0.00000 -0.22470
       8     F     4.60731  4.60731  0.00000 -0.21461
       9     F     4.61710  4.61710  0.00000 -0.23420

   Total alpha = 25.00000, Total beta = 25.00000, Total charge = -0.00000

*** Psi4 exiting successfully. Buy a developer a beer!
