  ==> Input File <==

--------------------------------------------------------------------------
set {
	reference rhf
	basis 6-31G*
}

set_num_threads( 4 )
memory 2 gb

molecule MOL {
0 1

H	 -3.135461	 -1.215070	 0.001379
O	 -2.310168	 -0.871793	 -0.309793
C	 -2.026376	 0.340750	 0.341611
C	 -0.673256	 0.843270	 -0.132153
H	 -2.792215	 1.080697	 0.115987
H	 -2.013526	 0.200402	 1.421792
C	 0.486613	 -0.083066	 0.235839
H	 -0.715586	 0.970948	 -1.210718
H	 -0.508072	 1.829858	 0.297090
C	 1.840406	 0.433480	 -0.254303
H	 0.300215	 -1.068318	 -0.178947
H	 0.519509	 -0.203625	 1.318070
C	 2.977293	 -0.560632	 -0.019990
H	 1.774917	 0.661566	 -1.316097
H	 2.073738	 1.371878	 0.245106
H	 2.789602	 -1.497916	 -0.535899
H	 3.924065	 -0.168787	 -0.379189
H	 3.091468	 -0.783687	 1.037233

	symmetry c1
}
set optking {
	frozen_dihedral = ("
		14 10 7 11
	")
}

ee = optimize('scf')
oeprop('DIPOLE', 'QUADRUPOLE', 'MULLIKEN_CHARGES')
f=open( 'psi4out.xyz', 'w' )
f.write( "18  " )
f.write( str(ee) + "\n" )
f.write( MOL.save_string_xyz() )
f.close()
--------------------------------------------------------------------------

    Molecular point group: c1
  Charge       = 0
  Multiplicity = 1
  Basis Set: 6-31G*
  Basis Set:
  @DF-RHF Final Energy:  -271.17979963824291
    Total Energy =                       -271.1797996382430824
    Molecular point group: c1
  Basis Set: 6-31G*
  Basis Set:
  Basis Set: 6-31G*
  Basis Set:
  @DF-RHF Final Energy:  -271.17981204901872
    Total Energy =                       -271.1798120490185511
  Basis Set: 6-31G*
  Basis Set:
  Basis Set: 6-31G*
  Basis Set:
  @DF-RHF Final Energy:  -271.17982493627386
    Total Energy =                       -271.1798249362736897
  Basis Set: 6-31G*
  Basis Set:
  Charge       = 0
  Multiplicity = 1
  Basis Set: 6-31G*
  Basis Set:

    Orbital Energies (a.u.)
    -----------------------

    Doubly Occupied:

       1A    -20.553041     2A    -11.268070     3A    -11.212101
       4A    -11.210711     5A    -11.206377     6A    -11.204542
       7A     -1.359760     8A     -1.074718     9A     -1.008770
      10A     -0.913105    11A     -0.817784    12A     -0.783910
      13A     -0.704887    14A     -0.641950    15A     -0.624982
      16A     -0.578676    17A     -0.570766    18A     -0.559143
      19A     -0.521870    20A     -0.500814    21A     -0.488197
      22A     -0.467570    23A     -0.457523    24A     -0.448043
      25A     -0.428870

  @DF-RHF Final Energy:  -271.17982590039225

   => Energetics <=

    Nuclear Repulsion Energy =            249.0503054969169057
    One-Electron Energy =                -861.2479038446055029
    Two-Electron Energy =                 341.0177724472963519
    DFT Exchange-Correlation Energy =       0.0000000000000000
    Empirical Dispersion Energy =           0.0000000000000000
    PCM Polarization Energy =               0.0000000000000000
    EFP Energy =                            0.0000000000000000
    Total Energy =                       -271.1798259003923022
    Molecular point group: c1
  Basis Set: 6-31G*
  Basis Set:

  -Total Gradient:
     Atom            X                  Y                   Z
    ------   -----------------  -----------------  -----------------
       1       -0.000003138806     0.000000021743    -0.000002136142
       2       -0.000035844561     0.000014898605    -0.000013480096
       3        0.000042678763    -0.000036509389     0.000060891163
       4        0.000001628339    -0.000008837551    -0.000078563597
       5        0.000006689169    -0.000006095526    -0.000005329792
       6       -0.000010228921     0.000000955126     0.000007265174
       7       -0.000762450186     0.000924256785    -0.001138617458
       8        0.000004006420     0.000011269896    -0.000016665204
       9        0.000020033130    -0.000024088658    -0.000003448653
      10        0.000570854334    -0.001528239829    -0.000051052294
      11        0.000524449138    -0.000489974621     0.000980219091
      12        0.000014199293    -0.000025161146     0.000019221772
      13       -0.000018728389    -0.000019073812    -0.000028350305
      14       -0.000323929595     0.001138146397     0.000281652722
      15       -0.000006482651     0.000031785161    -0.000005580635
      16        0.000002550256    -0.000012846931     0.000005609509
      17       -0.000011187029     0.000008175334    -0.000005353436
      18       -0.000015098700     0.000021318417    -0.000006281818

  **** Optimization is complete! (in 4 steps) ****
    Final optimized geometry and variables:
    Molecular point group: c1

    Geometry (in Angstrom), charge = 0, multiplicity = 1:

    H           -3.140473770228    -1.193237551459     0.044476398323
    O           -2.316133544641    -0.855082414203    -0.274782538149
    C           -2.019593681258     0.356863869905     0.371984741929
    C           -0.668746668712     0.851847631063    -0.115913250771
    H           -2.783765341976     1.100435159275     0.152654756767
    H           -1.996893162432     0.218181780525     1.452191776610
    C            0.489621525333    -0.079951303854     0.240674444447
    H           -0.720973394391     0.979660488500    -1.193947102884
    H           -0.493707046265     1.837548683205     0.311534523032
    C            1.846428484455     0.442238050267    -0.236039521965
    H            0.305708480126    -1.063018746204    -0.180493769825
    H            0.521586767764    -0.214490991955     1.321532721884
    C            2.987088077865    -0.543252973334     0.012397479267
    H            1.791249270933     0.677802797725    -1.296835674570
    H            2.066589552886     1.382181900872     0.266956807523
    H            2.817686493467    -1.478306803074    -0.513698252959
    H            3.937035858239    -0.140199163078    -0.325235429108
    H            3.082591143239    -0.772966031468     1.070060264718

  Mulliken Charges: (a.u.)
   Center  Symbol    Alpha    Beta     Spin     Total
       1     H     0.28058  0.28058  0.00000  0.43884
       2     O     4.36961  4.36961  0.00000 -0.73922
       3     C     2.99733  2.99733  0.00000  0.00534
       4     C     3.16030  3.16030  0.00000 -0.32060
       5     H     0.42928  0.42928  0.00000  0.14145
       6     H     0.43258  0.43258  0.00000  0.13483
       7     C     3.15294  3.15294  0.00000 -0.30589
       8     H     0.41497  0.41497  0.00000  0.17006
       9     H     0.42414  0.42414  0.00000  0.15173
      10     C     3.15184  3.15184  0.00000 -0.30368
      11     H     0.40817  0.40817  0.00000  0.18366
      12     H     0.42764  0.42764  0.00000  0.14473
      13     C     3.23890  3.23890  0.00000 -0.47780
      14     H     0.42281  0.42281  0.00000  0.15437
      15     H     0.42528  0.42528  0.00000  0.14944
      16     H     0.42069  0.42069  0.00000  0.15861
      17     H     0.42037  0.42037  0.00000  0.15926
      18     H     0.42258  0.42258  0.00000  0.15484

   Total alpha = 25.00000, Total beta = 25.00000, Total charge = -0.00000
