                              Psi4 1.0.54 Driver

  ==> Input File <==

--------------------------------------------------------------------------
set {
	reference rhf
	basis cc-pvtz
}

set_num_threads( 4 )
memory 2 gb

molecule MOL {
0 1

H	 -2.498963	 -0.741158	 -0.729149
O	 -2.346257	 -0.289210	 0.080372
C	 -1.183935	 0.486039	 -0.009831
C	 0.062853	 -0.375310	 0.027457
H	 -1.178881	 1.094526	 -0.908634
H	 -1.184406	 1.155156	 0.838676
O	 0.074443	 -1.176486	 -1.108075
H	 0.063797	 -0.989854	 0.929250
H	 0.943819	 0.261864	 0.065955
C	 1.185479	 -2.003381	 -1.222376
H	 1.254056	 -2.694841	 -0.385445
H	 1.082948	 -2.571347	 -2.135387
H	 2.106482	 -1.427105	 -1.269064

	symmetry c1
}
set optking {
	frozen_dihedral = ("
		8 4 3 5
	")
}

ee,wfn = optimize('scf', return_wfn=True)
oeprop( wfn, 'DIPOLE', 'QUADRUPOLE', 'MULLIKEN_CHARGES')
f=open( 'psi4out.xyz', 'w' )
f.write( "13  " )
f.write( str(ee) + "\n" )
f.write( MOL.save_string_xyz() )
f.close()
--------------------------------------------------------------------------

    Molecular point group: c1
  Charge       = 0
  Multiplicity = 1
  Basis Set: CC-PVTZ
  Basis Set:
  @DF-RHF Final Energy:  -268.06466913383190
    Total Energy =                       -268.0646691338317851
    Molecular point group: c1
  Basis Set: CC-PVTZ
  Basis Set:
  Basis Set: CC-PVTZ
  Basis Set:
  @DF-RHF Final Energy:  -268.06542110253508
    Total Energy =                       -268.0654211025349696
  Basis Set: CC-PVTZ
  Basis Set:
  Basis Set: CC-PVTZ
  Basis Set:
  @DF-RHF Final Energy:  -268.06555071251779
    Total Energy =                       -268.0655507125176769
  Basis Set: CC-PVTZ
  Basis Set:
  Basis Set: CC-PVTZ
  Basis Set:
  @DF-RHF Final Energy:  -268.06555981835129
    Total Energy =                       -268.0655598183514030
  Basis Set: CC-PVTZ
  Basis Set:
  Charge       = 0
  Multiplicity = 1
  Basis Set: CC-PVTZ
  Basis Set:

    Orbital Energies (a.u.)
    -----------------------

    Doubly Occupied:

       1A    -20.560562     2A    -20.543054     3A    -11.271595
       4A    -11.270972     5A    -11.266921     6A     -1.397241
       7A     -1.359693     8A     -1.021669     9A     -0.921618
      10A     -0.837182    11A     -0.705863    12A     -0.683096
      13A     -0.666689    14A     -0.636731    15A     -0.588966
      16A     -0.581029    17A     -0.542977    18A     -0.493883
      19A     -0.487384    20A     -0.436324    21A     -0.430467

  @DF-RHF Final Energy:  -268.06556067876255

   => Energetics <=

    Nuclear Repulsion Energy =            194.5263915994527224
    One-Electron Energy =                -751.7760721449718631
    Two-Electron Energy =                 289.1841198667565322
    DFT Exchange-Correlation Energy =       0.0000000000000000
    Empirical Dispersion Energy =           0.0000000000000000
    PCM Polarization Energy =               0.0000000000000000
    EFP Energy =                            0.0000000000000000
    Total Energy =                       -268.0655606787626084
    Molecular point group: c1
  Basis Set: CC-PVTZ
  Basis Set:

  -Total Gradient:
     Atom            X                  Y                   Z
    ------   -----------------  -----------------  -----------------
       1       -0.000003832894    -0.000014798508    -0.000002152260
       2       -0.000004091055     0.000009379737     0.000065053317
       3        0.000221341355     0.000336743975     0.000077440729
       4        0.000235133757     0.000230434113     0.000211285317
       5       -0.000197331278    -0.000271239765    -0.000216153569
       6       -0.000009310359    -0.000064425055    -0.000007708133
       7       -0.000032694659     0.000056718944     0.000014397751
       8       -0.000184703022    -0.000314038148    -0.000175748711
       9       -0.000018969087     0.000001547867     0.000006574693
      10        0.000019651420     0.000009893418     0.000022404989
      11       -0.000004569808     0.000001639783     0.000004907247
      12       -0.000019975907     0.000023306947     0.000004101403
      13       -0.000000648464    -0.000005163309    -0.000004402773

  **** Optimization is complete! (in 5 steps) ****
    Final optimized geometry and variables:
    Molecular point group: c1

    Geometry (in Angstrom), charge = 0, multiplicity = 1:

    H           -1.848134869170    -0.265731931997    -0.189039486694
    O           -1.882348929664     0.345117791794     0.526185197537
    C           -0.743374691726     1.151566882675     0.478257979628
    C            0.528684552036     0.336530218408     0.482510585945
    H           -0.757036069245     1.786676308984    -0.403459193386
    H           -0.767472311026     1.787886449836     1.353018944880
    O            0.548497840103    -0.439677751782    -0.676734223543
    H            0.552644938461    -0.303600316825     1.362013217076
    H            1.393674414846     0.997473877697     0.515387972324
    C            1.629403973839    -1.308639158730    -0.776538254274
    H            1.643515106948    -2.020135969252     0.045394519872
    H            1.534297633858    -1.850476715463    -1.706130135531
    H            2.572940638877    -0.768131493019    -0.781462300067

  Mulliken Charges: (a.u.)
   Center  Symbol    Alpha    Beta     Spin     Total
       1     H     0.38636  0.38636  0.00000  0.22728
       2     O     4.20875  4.20875  0.00000 -0.41751
       3     C     2.96116  2.96116  0.00000  0.07768
       4     C     2.97700  2.97700  0.00000  0.04600
       5     H     0.46950  0.46950  0.00000  0.06100
       6     H     0.45835  0.45835  0.00000  0.08329
       7     O     4.18365  4.18365  0.00000 -0.36731
       8     H     0.46871  0.46871  0.00000  0.06258
       9     H     0.47128  0.47128  0.00000  0.05743
      10     C     3.03026  3.03026  0.00000 -0.06053
      11     H     0.46888  0.46888  0.00000  0.06224
      12     H     0.44653  0.44653  0.00000  0.10694
      13     H     0.46955  0.46955  0.00000  0.06090

   Total alpha = 21.00000, Total beta = 21.00000, Total charge =  0.00000

*** Psi4 exiting successfully. Buy a developer a beer!
