  ==> Input File <==

--------------------------------------------------------------------------
set {
	reference rhf
	basis 6-31G*
}

set_num_threads( 4 )
memory 2 gb

molecule MOL {
0 1

H	 -3.407059	 -1.043082	 0.000000
O	 -3.119761	 -0.140267	 0.000000
C	 -1.777559	 -0.059267	 0.000000
C	 -1.107319	 1.143210	 -0.204525
C	 -1.067087	 -1.233740	 0.214262
H	 -1.665549	 2.048942	 -0.369869
C	 0.271511	 1.166328	 -0.193948
H	 -1.606765	 -2.148566	 0.369545
C	 0.311620	 -1.194481	 0.221996
H	 0.801607	 2.086998	 -0.350362
C	 0.997427	 -0.001089	 0.019236
H	 0.862669	 -2.104345	 0.387991
C	 2.473295	 0.025398	 0.030250
O	 3.136305	 1.002124	 -0.134618
H	 2.951281	 -0.944047	 0.205956

	symmetry c1
}
set optking {
	frozen_dihedral = ("
		5 3 2 1
	")
}

ee = optimize('scf')
oeprop('DIPOLE', 'QUADRUPOLE', 'MULLIKEN_CHARGES')
f=open( 'psi4out.xyz', 'w' )
f.write( "15  " )
f.write( str(ee) + "\n" )
f.write( MOL.save_string_xyz() )
f.close()
--------------------------------------------------------------------------

    Molecular point group: c1
  Charge       = 0
  Multiplicity = 1
  Basis Set: 6-31G*
  Basis Set:
  @DF-RHF Final Energy:  -418.28747460416923
    Total Energy =                       -418.2874746041688923
    Molecular point group: c1
  Basis Set: 6-31G*
  Basis Set:
  Basis Set: 6-31G*
  Basis Set:
  @DF-RHF Final Energy:  -418.28947918500563
    Total Energy =                       -418.2894791850058027
  Basis Set: 6-31G*
  Basis Set:
  Basis Set: 6-31G*
  Basis Set:
  @DF-RHF Final Energy:  -418.28965996370727
    Total Energy =                       -418.2896599637072086
  Basis Set: 6-31G*
  Basis Set:
  Basis Set: 6-31G*
  Basis Set:
  @DF-RHF Final Energy:  -418.28949175833901
    Total Energy =                       -418.2894917583389542
  Basis Set: 6-31G*
  Basis Set:
  Basis Set: 6-31G*
  Basis Set:
  @DF-RHF Final Energy:  -418.28968115755174
    Total Energy =                       -418.2896811575515130
  Basis Set: 6-31G*
  Basis Set:
  Basis Set: 6-31G*
  Basis Set:
  @DF-RHF Final Energy:  -418.28968539363780
    Total Energy =                       -418.2896853936382513
  Basis Set: 6-31G*
  Basis Set:
  Charge       = 0
  Multiplicity = 1
  Basis Set: 6-31G*
  Basis Set:

    Orbital Energies (a.u.)
    -----------------------

    Doubly Occupied:

       1A    -20.610884     2A    -20.555763     3A    -11.327917
       4A    -11.323842     5A    -11.263440     6A    -11.253677
       7A    -11.245245     8A    -11.238958     9A    -11.237786
      10A     -1.431858    11A     -1.397004    12A     -1.170626
      13A     -1.042988    14A     -1.037012    15A     -0.893652
      16A     -0.858418    17A     -0.802722    18A     -0.756687
      19A     -0.695615    20A     -0.685526    21A     -0.639448
      22A     -0.624355    23A     -0.610796    24A     -0.607943
      25A     -0.580221    26A     -0.557132    27A     -0.549205
      28A     -0.506522    29A     -0.483758    30A     -0.418388
      31A     -0.357325    32A     -0.327280

  @DF-RHF Final Energy:  -418.28968562728267

   => Energetics <=

    Nuclear Repulsion Energy =            401.3342292688283806
    One-Electron Energy =               -1365.0638430871481432
    Two-Electron Energy =                 545.4399281910369837
    DFT Exchange-Correlation Energy =       0.0000000000000000
    Empirical Dispersion Energy =           0.0000000000000000
    PCM Polarization Energy =               0.0000000000000000
    EFP Energy =                            0.0000000000000000
    Total Energy =                       -418.2896856272827790
    Molecular point group: c1
  Basis Set: 6-31G*
  Basis Set:

  -Total Gradient:
     Atom            X                  Y                   Z
    ------   -----------------  -----------------  -----------------
       1       -0.000023809839     0.000002808927    -0.001227164616
       2       -0.000077758493     0.000061688345     0.002093593269
       3        0.000002599161    -0.000191650953    -0.001878457743
       4        0.000024994254    -0.000015973049     0.000040954995
       5        0.000076558972     0.000120743847     0.000948197500
       6        0.000015334670     0.000000799427    -0.000001465943
       7        0.000029020242    -0.000015197133     0.000035925554
       8       -0.000012523863    -0.000003728304     0.000006534633
       9       -0.000045293001    -0.000043935514     0.000028868645
      10        0.000003984239     0.000002684357    -0.000010566478
      11       -0.000006426863     0.000042761221    -0.000020756191
      12        0.000001233520     0.000008272047    -0.000005025363
      13       -0.000013623300     0.000014414217    -0.000017669285
      14        0.000033255335     0.000006461437     0.000004754559
      15       -0.000007545034     0.000009851127     0.000002276464

  **** Optimization is complete! (in 7 steps) ****
    Final optimized geometry and variables:
    Molecular point group: c1

    Geometry (in Angstrom), charge = 0, multiplicity = 1:

    H           -3.471461455103    -1.027391323733     0.004401485181
    O           -3.114981843955    -0.149684508105    -0.002772906731
    C           -1.769980479285    -0.173126922861     0.003828845517
    C           -1.111367882857     1.039316915291    -0.196950784159
    C           -1.049015469069    -1.337415406793     0.222426659835
    H           -1.695833098764     1.925044078773    -0.360101864434
    C            0.262357318391     1.074240158109    -0.183564808880
    H           -1.561897530255    -2.269511174229     0.386313543503
    C            0.334435609674    -1.286905336340     0.229378628140
    H            0.785081053290     1.999404360530    -0.338338187365
    C            1.003877010876    -0.090319559578     0.028412417602
    H            0.892631253127    -2.192026473162     0.396957638332
    C            2.479321563094    -0.050889625490     0.040011422717
    O            3.134149547018     0.931318493046    -0.124122028137
    H            2.965683377572    -1.016296327433     0.215547549828

  Mulliken Charges: (a.u.)
   Center  Symbol    Alpha    Beta     Spin     Total
       1     H     0.26889  0.26889  0.00000  0.46222
       2     O     4.37280  4.37280  0.00000 -0.74559
       3     C     2.78566  2.78566  0.00000  0.42868
       4     C     3.12644  3.12644  0.00000 -0.25288
       5     C     3.14860  3.14860  0.00000 -0.29719
       6     H     0.38548  0.38548  0.00000  0.22905
       7     C     3.07904  3.07904  0.00000 -0.15808
       8     H     0.39870  0.39870  0.00000  0.20260
       9     C     3.09194  3.09194  0.00000 -0.18387
      10     H     0.37469  0.37469  0.00000  0.25063
      11     C     3.06769  3.06769  0.00000 -0.13538
      12     H     0.38986  0.38986  0.00000  0.22027
      13     C     2.83063  2.83063  0.00000  0.33873
      14     O     4.25411  4.25411  0.00000 -0.50822
      15     H     0.42548  0.42548  0.00000  0.14903

   Total alpha = 32.00000, Total beta = 32.00000, Total charge =  0.00000
