                              Psi4 1.0.54 Driver

  ==> Input File <==

--------------------------------------------------------------------------
set {
	reference rhf
	basis cc-pvtz
}

set_num_threads( 4 )
memory 2 gb

molecule MOL {
0 1

H	 1.868785	 2.719919	 -2.020185
O	 2.718418	 2.338854	 -2.141609
C	 3.222560	 1.875823	 -0.916572
C	 2.529935	 0.618715	 -0.411957
H	 4.270093	 1.667769	 -1.087947
H	 3.168866	 2.659699	 -0.163509
C	 1.059055	 0.814732	 -0.051488
H	 2.621058	 -0.153685	 -1.169751
H	 3.071073	 0.267639	 0.463436
C	 0.406289	 -0.459685	 0.481987
H	 0.518092	 1.158631	 -0.926757
H	 0.973435	 1.599834	 0.697891
C	 -1.048380	 -0.302536	 0.928638
H	 0.466764	 -1.236179	 -0.276714
H	 0.987979	 -0.817533	 1.327002
C	 -2.041121	 -0.006551	 -0.194127
H	 -1.353065	 -1.219111	 1.426218
H	 -1.110100	 0.482215	 1.679312
C	 -3.489218	 0.042606	 0.286507
H	 -1.946315	 -0.767776	 -0.965500
H	 -1.797605	 0.939297	 -0.668546
C	 -4.219984	 1.311773	 -0.139038
H	 -4.022855	 -0.824300	 -0.093339
H	 -3.510372	 -0.038577	 1.370031
H	 -4.244251	 1.405725	 -1.219696
H	 -5.244345	 1.313233	 0.215630
H	 -3.732090	 2.196311	 0.257073

	symmetry c1
}
set optking {
	frozen_dihedral = ("
		20 16 19 22
	")
}

ee,wfn = optimize('scf', return_wfn=True)
oeprop( wfn, 'DIPOLE', 'QUADRUPOLE', 'MULLIKEN_CHARGES')
f=open( 'psi4out.xyz', 'w' )
f.write( "27  " )
f.write( str(ee) + "\n" )
f.write( MOL.save_string_xyz() )
f.close()
--------------------------------------------------------------------------

    Molecular point group: c1
  Charge       = 0
  Multiplicity = 1
  Basis Set: CC-PVTZ
  Basis Set:
  @DF-RHF Final Energy:  -388.42217966459862
    Total Energy =                       -388.4221796645987297
    Molecular point group: c1
  Basis Set: CC-PVTZ
  Basis Set:
  Basis Set: CC-PVTZ
  Basis Set:
  @DF-RHF Final Energy:  -388.42243201359588
    Total Energy =                       -388.4224320135956532
  Basis Set: CC-PVTZ
  Basis Set:
  Basis Set: CC-PVTZ
  Basis Set:
  @DF-RHF Final Energy:  -388.42249572130947
    Total Energy =                       -388.4224957213097014
  Basis Set: CC-PVTZ
  Basis Set:
  Basis Set: CC-PVTZ
  Basis Set:
  @DF-RHF Final Energy:  -388.42248732669719
    Total Energy =                       -388.4224873266975919
  Basis Set: CC-PVTZ
  Basis Set:
  Basis Set: CC-PVTZ
  Basis Set:
  @DF-RHF Final Energy:  -388.42249769152244
    Total Energy =                       -388.4224976915219258
  Basis Set: CC-PVTZ
  Basis Set:
  Charge       = 0
  Multiplicity = 1
  Basis Set: CC-PVTZ
  Basis Set:

    Orbital Energies (a.u.)
    -----------------------

    Doubly Occupied:

       1A    -20.545349     2A    -11.264986     3A    -11.216791
       4A    -11.214525     5A    -11.213697     6A    -11.213617
       7A    -11.213251     8A    -11.211717     9A    -11.207977
      10A     -1.363243    11A     -1.095385    12A     -1.060959
      13A     -1.012133    14A     -0.949257    15A     -0.888548
      16A     -0.821886    17A     -0.802490    18A     -0.777793
      19A     -0.696287    20A     -0.650891    21A     -0.630267
      22A     -0.615669    23A     -0.611033    24A     -0.586044
      25A     -0.582178    26A     -0.551378    27A     -0.538145
      28A     -0.534535    29A     -0.506692    30A     -0.492879
      31A     -0.488854    32A     -0.473689    33A     -0.471050
      34A     -0.455753    35A     -0.452492    36A     -0.441130
      37A     -0.425448

  @DF-RHF Final Energy:  -388.42249769851355

   => Energetics <=

    Nuclear Repulsion Energy =            461.1839955692864805
    One-Electron Energy =               -1440.6569476908352954
    Two-Electron Energy =                 591.0504544230352622
    DFT Exchange-Correlation Energy =       0.0000000000000000
    Empirical Dispersion Energy =           0.0000000000000000
    PCM Polarization Energy =               0.0000000000000000
    EFP Energy =                            0.0000000000000000
    Total Energy =                       -388.4224976985135527
    Molecular point group: c1
  Basis Set: CC-PVTZ
  Basis Set:

  -Total Gradient:
     Atom            X                  Y                   Z
    ------   -----------------  -----------------  -----------------
       1       -0.000001163350     0.000000047361    -0.000000901877
       2       -0.000002486069     0.000000635540     0.000001641138
       3        0.000003332687    -0.000002715409    -0.000000280882
       4        0.000000738447     0.000001008389     0.000005303328
       5        0.000000604791    -0.000000621745     0.000000912905
       6       -0.000000525651    -0.000000077977    -0.000000343375
       7       -0.000002969170    -0.000001938166    -0.000000773359
       8       -0.000000461010     0.000001862813    -0.000000148850
       9        0.000001436172    -0.000000797304     0.000000305843
      10        0.000002699844     0.000004559797    -0.000002683232
      11       -0.000002530867    -0.000000354333    -0.000001273346
      12       -0.000000290929     0.000001112346    -0.000002031791
      13       -0.000005834099     0.000001449581    -0.000001351736
      14       -0.000003730005    -0.000000374158    -0.000000763160
      15       -0.000000355698     0.000000065383     0.000000671832
      16       -0.000374474655     0.002044805885    -0.001347570812
      17        0.000006374688    -0.000001762459    -0.000002649417
      18       -0.000002518793    -0.000000518701     0.000004119173
      19       -0.000530692149    -0.001332540526    -0.001447797044
      20        0.000449639803    -0.001432112000     0.001500465640
      21       -0.000000711531    -0.000000187782    -0.000000866734
      22        0.000459885335     0.000717954957     0.001297542722
      23        0.000003044655    -0.000001191710    -0.000002145603
      24        0.000001049921     0.000003419061     0.000000901688
      25        0.000001862848     0.000000709685     0.000000841500
      26       -0.000000164927    -0.000001720883    -0.000001926446
      27       -0.000001760285    -0.000000717644     0.000000801891

  **** Optimization is complete! (in 6 steps) ****
    Final optimized geometry and variables:
    Molecular point group: c1

    Geometry (in Angstrom), charge = 0, multiplicity = 1:

    H            1.946466804761     1.989429319615    -1.740883020359
    O            2.795695750153     1.607549882688    -1.861544716113
    C            3.296577145914     1.139762888395    -0.637042548473
    C            2.601612895495    -0.118337453765    -0.138370917775
    H            4.344312529759     0.931352816360    -0.806667985392
    H            3.241815182990     1.921087166647     0.118536581848
    C            1.128914029979     0.076592105940     0.214943480252
    H            2.696696236868    -0.889105806832    -0.897257552560
    H            3.138430203889    -0.471109535877     0.738969664220
    C            0.475331759641    -1.197314720842     0.748786673655
    H            0.591428355523     0.418025936975    -0.663386013739
    H            1.039243589091     0.863256966657     0.962112147743
    C           -0.977902719760    -1.038796604621     1.197947448667
    H            0.533666408550    -1.973527314468    -0.010411442006
    H            1.058103189120    -1.556273532545     1.592590901926
    C           -1.973686496989    -0.735349618376     0.077315750786
    H           -1.285473136640    -1.956742968619     1.691291399310
    H           -1.038600807160    -0.257339685908     1.952431570262
    C           -3.435474435020    -0.684793084009     0.566591887216
    H           -1.868054845709    -1.501940872232    -0.684564550770
    H           -1.718497303984     0.206311001785    -0.395018146737
    C           -4.181638848702     0.573543583932     0.132787662181
    H           -3.972214840434    -1.560064023918     0.217171530484
    H           -3.454244698056    -0.738146907496     1.650674020195
    H           -4.213576246831     0.659187828523    -0.948539709720
    H           -5.203780480546     0.570167655564     0.494348326362
    H           -3.695928550945     1.463847137197     0.518680353065

  Mulliken Charges: (a.u.)
   Center  Symbol    Alpha    Beta     Spin     Total
       1     H     0.39225  0.39225  0.00000  0.21549
       2     O     4.20548  4.20548  0.00000 -0.41097
       3     C     2.98001  2.98001  0.00000  0.03998
       4     C     3.08915  3.08915  0.00000 -0.17831
       5     H     0.44855  0.44855  0.00000  0.10289
       6     H     0.46969  0.46969  0.00000  0.06062
       7     C     3.10284  3.10284  0.00000 -0.20568
       8     H     0.45079  0.45079  0.00000  0.09842
       9     H     0.45524  0.45524  0.00000  0.08952
      10     C     3.09912  3.09912  0.00000 -0.19824
      11     H     0.45575  0.45575  0.00000  0.08851
      12     H     0.45363  0.45363  0.00000  0.09273
      13     C     3.09828  3.09828  0.00000 -0.19657
      14     H     0.45181  0.45181  0.00000  0.09639
      15     H     0.44807  0.44807  0.00000  0.10386
      16     C     3.09473  3.09473  0.00000 -0.18945
      17     H     0.44674  0.44674  0.00000  0.10652
      18     H     0.45381  0.45381  0.00000  0.09237
      19     C     3.08594  3.08594  0.00000 -0.17188
      20     H     0.45052  0.45052  0.00000  0.09897
      21     H     0.45423  0.45423  0.00000  0.09154
      22     C     3.14908  3.14908  0.00000 -0.29816
      23     H     0.44977  0.44977  0.00000  0.10046
      24     H     0.45514  0.45514  0.00000  0.08973
      25     H     0.45427  0.45427  0.00000  0.09146
      26     H     0.44888  0.44888  0.00000  0.10225
      27     H     0.45623  0.45623  0.00000  0.08755

   Total alpha = 37.00000, Total beta = 37.00000, Total charge = -0.00000

*** Psi4 exiting successfully. Buy a developer a beer!
