  ==> Input File <==

--------------------------------------------------------------------------
set {
	reference rhf
	basis 6-31G*
}

set_num_threads( 1 )
memory 2 gb

molecule MOL {
0 1

O	 -2.042549	 -1.228399	 -0.269030
C	 -1.653912	 -0.146171	 0.050137
C	 -0.332303	 0.024011	 0.778412
C	 -2.438579	 1.106236	 -0.272369
C	 0.845713	 -0.001731	 -0.208243
H	 -0.323783	 0.953829	 1.340327
H	 -0.235459	 -0.796807	 1.480410
C	 2.169266	 -0.368939	 0.464361
H	 0.945128	 0.970351	 -0.688093
H	 0.622511	 -0.715825	 -0.995257
C	 3.340866	 -0.404052	 -0.516112
H	 2.382102	 0.344656	 1.257399
H	 2.069476	 -1.339776	 0.944033
H	 3.487647	 0.563546	 -0.987560
H	 3.171034	 -1.132808	 -1.303204
H	 4.264811	 -0.669863	 -0.012428
H	 -3.277823	 0.863061	 -0.908988
H	 -1.806773	 1.843019	 -0.759671
H	 -2.802853	 1.554979	 0.648059

	symmetry c1
}
set optking {
	frozen_dihedral = ("
		11 8 5 9,
		5 3 2 4
	")
}

ee = energy('scf')
oeprop('DIPOLE', 'QUADRUPOLE', 'MULLIKEN_CHARGES')
f=open( 'psi4out.xyz', 'w' )
f.write( "19  " )
f.write( str(ee) + "\n" )
f.write( MOL.save_string_xyz() )
f.close()
--------------------------------------------------------------------------

    Molecular point group: c1

    Geometry (in Angstrom), charge = 0, multiplicity = 1:

       Center              X                  Y                   Z               Mass
    ------------   -----------------  -----------------  -----------------  -----------------
           O         -2.033204446886    -1.081744782321    -0.261699157954    15.994914619560
           C         -1.644567446886     0.000483217679     0.057467842046    12.000000000000
           C         -0.322958446886     0.170665217679     0.785742842046    12.000000000000
           C         -2.429234446886     1.252890217679    -0.265038157954    12.000000000000
           C          0.855057553114     0.144923217679    -0.200912157954    12.000000000000
           H         -0.314438446886     1.100483217679     1.347657842046     1.007825032070
           H         -0.226114446886    -0.650152782321     1.487740842046     1.007825032070
           C          2.178610553114    -0.222284782321     0.471691842046    12.000000000000
           H          0.954472553114     1.117005217679    -0.680762157954     1.007825032070
           H          0.631855553114    -0.569170782321    -0.987926157954     1.007825032070
           C          3.350210553114    -0.257397782321    -0.508781157954    12.000000000000
           H          2.391446553114     0.491310217679     1.264729842046     1.007825032070
           H          2.078820553114    -1.193121782321     0.951363842046     1.007825032070
           H          3.496991553114     0.710200217679    -0.980229157954     1.007825032070
           H          3.180378553114    -0.986153782321    -1.295873157954     1.007825032070
           H          4.274155553114    -0.523208782321    -0.005097157954     1.007825032070
           H         -3.268478446886     1.009715217679    -0.901657157954     1.007825032070
           H         -1.797428446886     1.989673217679    -0.752340157954     1.007825032070
           H         -2.793508446886     1.701633217679     0.655389842046     1.007825032070

  Charge       = 0
  Multiplicity = 1
  Basis Set: 6-31G*
  Basis Set:

    Orbital Energies (a.u.)
    -----------------------

    Doubly Occupied:

       1A    -20.547410     2A    -11.324763     3A    -11.229884
       4A    -11.228935     5A    -11.228236     6A    -11.224087
       7A    -11.214093     8A     -1.393327     9A     -1.090867
      10A     -1.029064    11A     -0.983542    12A     -0.889371
      13A     -0.806603    14A     -0.733420    15A     -0.664271
      16A     -0.642516    17A     -0.623435    18A     -0.612817
      19A     -0.581620    20A     -0.573671    21A     -0.553632
      22A     -0.533618    23A     -0.518419    24A     -0.496172
      25A     -0.480742    26A     -0.473125    27A     -0.468032
      28A     -0.397002

  @DF-RHF Final Energy:  -309.06359884902861

   => Energetics <=

    Nuclear Repulsion Energy =            301.4820514170241950
    One-Electron Energy =               -1016.0061210182984723
    Two-Electron Energy =                 405.4604707522458966
    DFT Exchange-Correlation Energy =       0.0000000000000000
    Empirical Dispersion Energy =           0.0000000000000000
    PCM Polarization Energy =               0.0000000000000000
    EFP Energy =                            0.0000000000000000
    Total Energy =                       -309.0635988490283808

  Mulliken Charges: (a.u.)
   Center  Symbol    Alpha    Beta     Spin     Total
       1     O     4.26206  4.26206  0.00000 -0.52412
       2     C     2.73924  2.73924  0.00000  0.52151
       3     C     3.19975  3.19975  0.00000 -0.39950
       4     C     3.28948  3.28948  0.00000 -0.57895
       5     C     3.16171  3.16171  0.00000 -0.32342
       6     H     0.41602  0.41602  0.00000  0.16797
       7     H     0.40073  0.40073  0.00000  0.19854
       8     C     3.15226  3.15226  0.00000 -0.30453
       9     H     0.42055  0.42055  0.00000  0.15891
      10     H     0.40632  0.40632  0.00000  0.18736
      11     C     3.24077  3.24077  0.00000 -0.48154
      12     H     0.42217  0.42217  0.00000  0.15566
      13     H     0.41776  0.41776  0.00000  0.16447
      14     H     0.42156  0.42156  0.00000  0.15687
      15     H     0.41866  0.41866  0.00000  0.16268
      16     H     0.41740  0.41740  0.00000  0.16521
      17     H     0.39714  0.39714  0.00000  0.20573
      18     H     0.40969  0.40969  0.00000  0.18062
      19     H     0.40674  0.40674  0.00000  0.18653

   Total alpha = 28.00000, Total beta = 28.00000, Total charge = -0.00000
