                              Psi4 1.0.54 Driver

  ==> Input File <==

--------------------------------------------------------------------------
set {
	reference rhf
	basis cc-pvtz
}

set_num_threads( 4 )
memory 2 gb

molecule MOL {
0 1

H	 -3.268214	 -0.875720	 0.463107
C	 -2.806015	 0.000007	 0.024886
N	 -1.391133	 0.000016	 0.301321
H	 -3.029448	 0.000055	 -1.045738
H	 -3.268126	 0.875758	 0.463150
C	 -1.092051	 0.457627	 1.640992
C	 -0.638768	 0.751991	 -0.679502
H	 -1.418519	 1.490856	 1.791675
H	 -1.627882	 -0.161394	 2.350770
C	 0.396405	 0.364405	 1.919959
H	 -0.843676	 0.347872	 -1.663773
H	 -0.934333	 1.805287	 -0.687001
C	 0.849688	 0.658769	 -0.400535
H	 0.601312	 0.768524	 2.904230
H	 0.691970	 -0.688891	 1.927459
N	 1.148769	 1.116380	 0.939136
H	 1.385518	 1.277790	 -1.110312
H	 1.176156	 -0.374460	 -0.551218
C	 2.563651	 1.116389	 1.215571
H	 2.747465	 1.522930	 2.202233
H	 3.080634	 1.739365	 0.496410
H	 3.004249	 0.116208	 1.174712

	symmetry c1
}
set optking {
	frozen_dihedral = ("
		6 3 2 4
	")
}

ee,wfn = optimize('scf', return_wfn=True)
oeprop( wfn, 'DIPOLE', 'QUADRUPOLE', 'MULLIKEN_CHARGES')
f=open( 'psi4out.xyz', 'w' )
f.write( "22  " )
f.write( str(ee) + "\n" )
f.write( MOL.save_string_xyz() )
f.close()
--------------------------------------------------------------------------

    Molecular point group: c1
  Charge       = 0
  Multiplicity = 1
  Basis Set: CC-PVTZ
  Basis Set:
  @DF-RHF Final Energy:  -344.34798366662892
    Total Energy =                       -344.3479836666286928
    Molecular point group: c1
  Basis Set: CC-PVTZ
  Basis Set:
  Basis Set: CC-PVTZ
  Basis Set:
  @DF-RHF Final Energy:  -344.34867766527606
    Total Energy =                       -344.3486776652761137
  Basis Set: CC-PVTZ
  Basis Set:
  Basis Set: CC-PVTZ
  Basis Set:
  @DF-RHF Final Energy:  -344.34877221951501
    Total Energy =                       -344.3487722195152401
  Basis Set: CC-PVTZ
  Basis Set:
  Charge       = 0
  Multiplicity = 1
  Basis Set: CC-PVTZ
  Basis Set:

    Orbital Energies (a.u.)
    -----------------------

    Doubly Occupied:

       1A    -15.537805     2A    -15.537464     3A    -11.237613
       4A    -11.237433     5A    -11.236898     6A    -11.236776
       7A    -11.234247     8A    -11.234226     9A     -1.257118
      10A     -1.206038    11A     -1.025564    12A     -0.992762
      13A     -0.912233    14A     -0.867681    15A     -0.836604
      16A     -0.756217    17A     -0.666857    18A     -0.637336
      19A     -0.631929    20A     -0.626992    21A     -0.622711
      22A     -0.582320    23A     -0.551620    24A     -0.546413
      25A     -0.542024    26A     -0.518513    27A     -0.497525
      28A     -0.489772    29A     -0.465457    30A     -0.456934
      31A     -0.352832    32A     -0.348263

  @DF-RHF Final Energy:  -344.34877420511731

   => Energetics <=

    Nuclear Repulsion Energy =            421.9512666208763108
    One-Electron Energy =               -1302.8317240025362480
    Two-Electron Energy =                 536.5316831765428560
    DFT Exchange-Correlation Energy =       0.0000000000000000
    Empirical Dispersion Energy =           0.0000000000000000
    PCM Polarization Energy =               0.0000000000000000
    EFP Energy =                            0.0000000000000000
    Total Energy =                       -344.3487742051170244
    Molecular point group: c1
  Basis Set: CC-PVTZ
  Basis Set:

  -Total Gradient:
     Atom            X                  Y                   Z
    ------   -----------------  -----------------  -----------------
       1       -0.000004867871    -0.000012871606     0.000011641570
       2        0.000160683540    -0.004485852696    -0.000397720483
       3       -0.000333757210    -0.003132433040     0.001591537021
       4       -0.000011322342     0.004467493166     0.000052638896
       5        0.000005636731     0.000028918898     0.000015169976
       6        0.000104965333     0.003210301176    -0.001192622778
       7       -0.000004965245    -0.000132408986     0.000083245077
       8       -0.000027624107     0.000022494203     0.000000490877
       9       -0.000017600957    -0.000003616208    -0.000003906443
      10        0.000018394769    -0.000085626168    -0.000101853292
      11        0.000015911954     0.000017382423     0.000002073168
      12        0.000037425106     0.000000121745    -0.000003940584
      13        0.000044248370     0.000085104176    -0.000066985734
      14       -0.000046764115    -0.000001600604    -0.000030985954
      15        0.000035160793    -0.000029474910     0.000020737545
      16        0.000000194238     0.000023194327     0.000010808324
      17        0.000056404722     0.000010480117     0.000007652234
      18       -0.000033293321     0.000019643375     0.000013310656
      19        0.000008867080     0.000000283199    -0.000019629544
      20       -0.000005383666     0.000000491734     0.000003393315
      21       -0.000001009900    -0.000001880076     0.000003007757
      22       -0.000001303901    -0.000000144246     0.000001938397

  **** Optimization is complete! (in 4 steps) ****
    Final optimized geometry and variables:
    Molecular point group: c1

    Geometry (in Angstrom), charge = 0, multiplicity = 1:

    H           -3.147958256014    -1.461798761332    -0.194722390746
    C           -2.676579673534    -0.587225628293    -0.626030654921
    N           -1.258035168613    -0.578021117481    -0.345107325492
    H           -2.844780011706    -0.584274633232    -1.694804339962
    H           -3.181701068314     0.298130428697    -0.231692445489
    C           -0.979990691941    -0.121427842610     1.000247244596
    C           -0.505211225402     0.207691063700    -1.302110923426
    H           -1.318546384690     0.908322815325     1.144477050119
    H           -1.522601997365    -0.744451090257     1.702409603564
    C            0.504196171414    -0.202324241597     1.302909623971
    H           -0.688390611934    -0.180140857315    -2.296689448812
    H           -0.814346424647     1.257094583307    -1.293243805349
    C            0.981361169398     0.129590339561    -1.006980305262
    H            0.688288048258     0.193837402908     2.294637229032
    H            0.811711992544    -1.252264978825     1.304591700934
    N            1.262000871795     0.569454472459     0.342286536879
    H            1.517262957422     0.765604617189    -1.701793900193
    H            1.321067124050    -0.897496200488    -1.170402767346
    C            2.673366075545     0.577686562418     0.634665989558
    H            2.842400902155     0.970727139634     1.629496529125
    H            3.192964356776     1.216071980848    -0.069041759088
    H            3.123560298747    -0.417845740911     0.583811728392

  Mulliken Charges: (a.u.)
   Center  Symbol    Alpha    Beta     Spin     Total
       1     H     0.44927  0.44927  0.00000  0.10146
       2     C     3.09734  3.09734  0.00000 -0.19468
       3     N     3.61446  3.61446  0.00000 -0.22892
       4     H     0.45422  0.45422  0.00000  0.09155
       5     H     0.46905  0.46905  0.00000  0.06190
       6     C     3.03649  3.03649  0.00000 -0.07297
       7     C     3.03422  3.03422  0.00000 -0.06843
       8     H     0.46689  0.46689  0.00000  0.06622
       9     H     0.45386  0.45386  0.00000  0.09229
      10     C     3.03591  3.03591  0.00000 -0.07183
      11     H     0.45376  0.45376  0.00000  0.09247
      12     H     0.46893  0.46893  0.00000  0.06214
      13     C     3.03639  3.03639  0.00000 -0.07279
      14     H     0.45383  0.45383  0.00000  0.09234
      15     H     0.46798  0.46798  0.00000  0.06405
      16     N     3.61290  3.61290  0.00000 -0.22580
      17     H     0.45388  0.45388  0.00000  0.09224
      18     H     0.46819  0.46819  0.00000  0.06362
      19     C     3.09850  3.09850  0.00000 -0.19701
      20     H     0.45197  0.45197  0.00000  0.09606
      21     H     0.45198  0.45198  0.00000  0.09604
      22     H     0.46998  0.46998  0.00000  0.06003

   Total alpha = 32.00000, Total beta = 32.00000, Total charge =  0.00000

*** Psi4 exiting successfully. Buy a developer a beer!
