                              Psi4 1.0.54 Driver

  ==> Input File <==

--------------------------------------------------------------------------
set {
	reference rhf
	basis cc-pvtz
}

set_num_threads( 4 )
memory 2 gb

molecule MOL {
0 1

O	 -2.081319	 -0.951530	 -0.502732
N	 -1.613558	 0.006676	 0.014756
C	 -0.329345	 -0.171618	 0.743966
O	 -2.068523	 1.100482	 -0.024385
C	 0.835904	 0.041968	 -0.213982
H	 -0.346048	 -1.174374	 1.137184
H	 -0.333613	 0.555559	 1.538590
C	 1.587752	 -1.260745	 -0.474423
H	 0.456040	 0.443490	 -1.146206
H	 1.508133	 0.779667	 0.208683
C	 2.764562	 -1.073254	 -1.425448
H	 0.903355	 -1.996288	 -0.886751
H	 1.945369	 -1.665646	 0.467688
H	 2.433302	 -0.700598	 -2.388304
H	 3.481924	 -0.365749	 -1.024768
H	 3.280715	 -2.010781	 -1.592154

	symmetry c1
}
set optking {
	frozen_dihedral = ("
		9 5 3 2
	")
}

ee,wfn = optimize('scf', return_wfn=True)
oeprop( wfn, 'DIPOLE', 'QUADRUPOLE', 'MULLIKEN_CHARGES')
f=open( 'psi4out.xyz', 'w' )
f.write( "16  " )
f.write( str(ee) + "\n" )
f.write( MOL.save_string_xyz() )
f.close()
--------------------------------------------------------------------------

    Molecular point group: c1
  Charge       = 0
  Multiplicity = 1
  Basis Set: CC-PVTZ
  Basis Set:
  @DF-RHF Final Energy:  -360.90411636270784
    Total Energy =                       -360.9041163627078959
    Molecular point group: c1
  Basis Set: CC-PVTZ
  Basis Set:
  Basis Set: CC-PVTZ
  Basis Set:
  @DF-RHF Final Energy:  -360.90176078180991
    Total Energy =                       -360.9017607818098554
  Basis Set: CC-PVTZ
  Basis Set:
  Basis Set: CC-PVTZ
  Basis Set:
  @DF-RHF Final Energy:  -360.89662894400345
    Total Energy =                       -360.8966289440035098
  Basis Set: CC-PVTZ
  Basis Set:
  Basis Set: CC-PVTZ
  Basis Set:
  @DF-RHF Final Energy:  -360.90155741299759
    Total Energy =                       -360.9015574129977608
  Basis Set: CC-PVTZ
  Basis Set:
  @DF-RHF Final Energy:  -360.90445689794967
    Total Energy =                       -360.9044568979493874
  @DF-RHF Final Energy:  -360.90452877560540
    Total Energy =                       -360.9045287756055131
  @DF-RHF Final Energy:  -360.90456610228841
    Total Energy =                       -360.9045661022886406
  @DF-RHF Final Energy:  -360.90457473723365
    Total Energy =                       -360.9045747372338155
  Basis Set: CC-PVTZ
  Basis Set:
  @DF-RHF Final Energy:  -360.90458541470832
    Total Energy =                       -360.9045854147077534
  Basis Set: CC-PVTZ
  Basis Set:
  Basis Set: CC-PVTZ
  Basis Set:
  @DF-RHF Final Energy:  -360.90459019882428
    Total Energy =                       -360.9045901988238256
  Basis Set: CC-PVTZ
  Basis Set:
  Basis Set: CC-PVTZ
  Basis Set:
  @DF-RHF Final Energy:  -360.90459074764209
    Total Energy =                       -360.9045907476422030
  Basis Set: CC-PVTZ
  Basis Set:
  Charge       = 0
  Multiplicity = 1
  Basis Set: CC-PVTZ
  Basis Set:

    Orbital Energies (a.u.)
    -----------------------

    Doubly Occupied:

       1A    -20.592066     2A    -20.588245     3A    -15.836589
       4A    -11.296759     5A    -11.251537     6A    -11.235783
       7A    -11.222409     8A     -1.635732     9A     -1.419880
      10A     -1.133485    11A     -1.057525    12A     -0.947454
      13A     -0.846001    14A     -0.826103    15A     -0.762473
      16A     -0.736623    17A     -0.727624    18A     -0.658198
      19A     -0.630297    20A     -0.604187    21A     -0.559630
      22A     -0.552723    23A     -0.509973    24A     -0.499492
      25A     -0.496976    26A     -0.479131    27A     -0.470855
      28A     -0.453834

  @DF-RHF Final Energy:  -360.90459152450808

   => Energetics <=

    Nuclear Repulsion Energy =            315.6936864933026072
    One-Electron Energy =               -1117.1333911827059637
    Two-Electron Energy =                 440.5351131648951650
    DFT Exchange-Correlation Energy =       0.0000000000000000
    Empirical Dispersion Energy =           0.0000000000000000
    PCM Polarization Energy =               0.0000000000000000
    EFP Energy =                            0.0000000000000000
    Total Energy =                       -360.9045915245081915
    Molecular point group: c1
  Basis Set: CC-PVTZ
  Basis Set:

  -Total Gradient:
     Atom            X                  Y                   Z
    ------   -----------------  -----------------  -----------------
       1       -0.000018680313     0.000013116086    -0.000015060006
       2        0.000367655197     0.001121501272     0.000352769583
       3       -0.000583602378    -0.001878162795    -0.000532052820
       4       -0.000026998090     0.000019377834    -0.000019919782
       5        0.000835291455     0.002175203479     0.000841080536
       6        0.000012038811     0.000005958584    -0.000010261403
       7        0.000005559909    -0.000002793180    -0.000012692722
       8       -0.000014087331     0.000009908548     0.000003519428
       9       -0.000579038326    -0.001453573709    -0.000610133713
      10       -0.000012166261    -0.000005637130     0.000002983573
      11        0.000008617909    -0.000010307295     0.000000577514
      12        0.000009833146     0.000001325675     0.000007206986
      13        0.000003276821     0.000000809014    -0.000004624502
      14        0.000000476239    -0.000000411145     0.000002505341
      15       -0.000007337667    -0.000004626058    -0.000002336457
      16       -0.000000839126     0.000008310817    -0.000003561554

  **** Optimization is complete! (in 12 steps) ****
    Final optimized geometry and variables:
    Molecular point group: c1

    Geometry (in Angstrom), charge = 0, multiplicity = 1:

    O           -1.893908463226    -0.128040296706    -0.333397063683
    N           -1.334962461105     0.624146855591     0.394615406757
    C           -0.084017084790     0.137344801803     1.035075994375
    O           -1.678605977381     1.732458112740     0.631029549781
    C            1.064818992004     0.117572956293     0.011538901198
    H           -0.312530445097    -0.849283211899     1.403610872931
    H            0.102187328065     0.810127600047     1.852726464430
    C            1.522332440957    -1.294278599047    -0.348066080341
    H            0.748109239300     0.626152913834    -0.890723134714
    H            1.894931044244     0.683106174072     0.415798234752
    C            2.657797398016    -1.299187856324    -1.364349554435
    H            0.676927948482    -1.849577358379    -0.739548586167
    H            1.841722512544    -1.807959905545     0.554589552935
    H            2.354918879479    -0.823338492174    -2.290570603805
    H            3.525608458221    -0.768498127617    -0.987270454041
    H            2.964627596611    -2.311420953638    -1.597605230862

  Mulliken Charges: (a.u.)
   Center  Symbol    Alpha    Beta     Spin     Total
       1     O     4.17625  4.17625  0.00000 -0.35251
       2     N     3.27760  3.27760  0.00000  0.44481
       3     C     3.04836  3.04836  0.00000 -0.09672
       4     O     4.16915  4.16915  0.00000 -0.33830
       5     C     3.09631  3.09631  0.00000 -0.19263
       6     H     0.43573  0.43573  0.00000  0.12854
       7     H     0.42716  0.42716  0.00000  0.14567
       8     C     3.08918  3.08918  0.00000 -0.17836
       9     H     0.44098  0.44098  0.00000  0.11804
      10     H     0.44227  0.44227  0.00000  0.11546
      11     C     3.15062  3.15062  0.00000 -0.30125
      12     H     0.44194  0.44194  0.00000  0.11613
      13     H     0.45330  0.45330  0.00000  0.09339
      14     H     0.45128  0.45128  0.00000  0.09744
      15     H     0.45478  0.45478  0.00000  0.09044
      16     H     0.44508  0.44508  0.00000  0.10984

   Total alpha = 28.00000, Total beta = 28.00000, Total charge = -0.00000

*** Psi4 exiting successfully. Buy a developer a beer!
