  ==> Input File <==

--------------------------------------------------------------------------
set {
	reference rhf
	basis 6-31G*
}

set_num_threads( 4 )
memory 2 gb

molecule MOL {
0 1

H	 1.616048	 -1.459465	 1.372079
O	 1.201122	 -0.959561	 0.683877
C	 0.710460	 0.248995	 1.207145
C	 0.031547	 1.023609	 0.088541
H	 1.524632	 0.846230	 1.613745
H	 0.012909	 0.057778	 2.019524
C	 -1.134819	 0.293262	 -0.585751
H	 0.782723	 1.257031	 -0.660818
H	 -0.313402	 1.972448	 0.495888
C	 -1.917817	 -0.639439	 0.339494
H	 -0.758119	 -0.268455	 -1.433105
H	 -1.813832	 1.041889	 -0.986690
H	 -2.777680	 -1.057197	 -0.174994
H	 -1.310268	 -1.471279	 0.680599
H	 -2.283753	 -0.111424	 1.216626

	symmetry c1
}
set optking {
	frozen_dihedral = ("
		8 4 7 11
	")
}

ee = optimize('scf')
oeprop('DIPOLE', 'QUADRUPOLE', 'MULLIKEN_CHARGES')
f=open( 'psi4out.xyz', 'w' )
f.write( "15  " )
f.write( str(ee) + "\n" )
f.write( MOL.save_string_xyz() )
f.close()
--------------------------------------------------------------------------

    Molecular point group: c1
  Charge       = 0
  Multiplicity = 1
  Basis Set: 6-31G*
  Basis Set:
  @DF-RHF Final Energy:  -232.13999632743753
    Total Energy =                       -232.1399963274374159
    Molecular point group: c1
  Basis Set: 6-31G*
  Basis Set:
  Basis Set: 6-31G*
  Basis Set:
  @DF-RHF Final Energy:  -232.14057771826657
    Total Energy =                       -232.1405777182663428
  Basis Set: 6-31G*
  Basis Set:
  Basis Set: 6-31G*
  Basis Set:
  @DF-RHF Final Energy:  -232.14079319677279
    Total Energy =                       -232.1407931967729041
  Basis Set: 6-31G*
  Basis Set:
  Basis Set: 6-31G*
  Basis Set:
  @DF-RHF Final Energy:  -232.14082855355204
    Total Energy =                       -232.1408285535521827
  Basis Set: 6-31G*
  Basis Set:
  Basis Set: 6-31G*
  Basis Set:
  @DF-RHF Final Energy:  -232.14082993229437
    Total Energy =                       -232.1408299322943662
  Basis Set: 6-31G*
  Basis Set:
  Basis Set: 6-31G*
  Basis Set:
  @DF-RHF Final Energy:  -232.14083631318499
    Total Energy =                       -232.1408363131848773
  Basis Set: 6-31G*
  Basis Set:
  Charge       = 0
  Multiplicity = 1
  Basis Set: 6-31G*
  Basis Set:

    Orbital Energies (a.u.)
    -----------------------

    Doubly Occupied:

       1A    -20.553838     2A    -11.266918     3A    -11.212571
       4A    -11.209665     5A    -11.202424     6A     -1.360058
       7A     -1.061584     8A     -0.969306     9A     -0.870055
      10A     -0.770279    11A     -0.705166    12A     -0.649123
      13A     -0.607614    14A     -0.570193    15A     -0.560434
      16A     -0.530219    17A     -0.513719    18A     -0.473621
      19A     -0.460883    20A     -0.451152    21A     -0.431360

  @DF-RHF Final Energy:  -232.14083711514968

   => Energetics <=

    Nuclear Repulsion Energy =            193.2225411223876108
    One-Electron Energy =                -697.8663931320700158
    Two-Electron Energy =                 272.5030148945330097
    DFT Exchange-Correlation Energy =       0.0000000000000000
    Empirical Dispersion Energy =           0.0000000000000000
    PCM Polarization Energy =               0.0000000000000000
    EFP Energy =                            0.0000000000000000
    Total Energy =                       -232.1408371151493952
    Molecular point group: c1
  Basis Set: 6-31G*
  Basis Set:

  -Total Gradient:
     Atom            X                  Y                   Z
    ------   -----------------  -----------------  -----------------
       1        0.000006287699     0.000005022379    -0.000001126822
       2        0.000007660391    -0.000000212929    -0.000000828114
       3       -0.000012027727    -0.000004675423     0.000001697740
       4       -0.003214406756     0.006853514908    -0.002072723121
       5       -0.000004353377     0.000002610513    -0.000003283514
       6       -0.000003881043    -0.000002389458     0.000000785287
       7        0.001590837323    -0.006414582187     0.004341013910
       8        0.002483317305    -0.004791611846     0.001060716656
       9        0.000005509193     0.000005774296    -0.000009234630
      10       -0.000012974482     0.000021379022    -0.000006007563
      11       -0.000858573032     0.004323613699    -0.003358952163
      12        0.000008608789     0.000019312491     0.000040401216
      13        0.000019630263    -0.000029242373    -0.000010813655
      14        0.000010476460     0.000010589778     0.000029112295
      15       -0.000026111006     0.000000897134    -0.000010757522

  **** Optimization is complete! (in 7 steps) ****
    Final optimized geometry and variables:
    Molecular point group: c1

    Geometry (in Angstrom), charge = 0, multiplicity = 1:

    H            1.901165988747    -1.383025108681     0.947926119425
    O            1.458230385750    -0.883087437864     0.277184232863
    C            0.919558888504     0.288850994110     0.836827990632
    C            0.202510750355     1.059756790281    -0.261379658305
    H            1.711510822917     0.910784901783     1.250588267996
    H            0.239341461011     0.047093527480     1.649869927699
    C           -0.956874652346     0.306973737648    -0.942771924323
    H            0.958029816600     1.285977890050    -1.007670695435
    H           -0.148528129217     1.997794608292     0.160841649297
    C           -1.806310775228    -0.581165540464    -0.035550362723
    H           -0.569405038956    -0.265540883183    -1.778637320321
    H           -1.605643487691     1.053470190649    -1.397086130497
    H           -2.638180091677    -1.001708007979    -0.592098122192
    H           -1.228788158154    -1.404481658048     0.367775894666
    H           -2.222193070805    -0.018014008339     0.796326646133

  Mulliken Charges: (a.u.)
   Center  Symbol    Alpha    Beta     Spin     Total
       1     H     0.28070  0.28070  0.00000  0.43861
       2     O     4.36977  4.36977  0.00000 -0.73953
       3     C     3.00184  3.00184  0.00000 -0.00369
       4     C     3.16139  3.16139  0.00000 -0.32277
       5     H     0.42878  0.42878  0.00000  0.14244
       6     H     0.42987  0.42987  0.00000  0.14026
       7     C     3.14907  3.14907  0.00000 -0.29813
       8     H     0.41348  0.41348  0.00000  0.17303
       9     H     0.42300  0.42300  0.00000  0.15399
      10     C     3.24624  3.24624  0.00000 -0.49248
      11     H     0.41351  0.41351  0.00000  0.17299
      12     H     0.42427  0.42427  0.00000  0.15146
      13     H     0.41985  0.41985  0.00000  0.16030
      14     H     0.41226  0.41226  0.00000  0.17548
      15     H     0.42598  0.42598  0.00000  0.14804

   Total alpha = 21.00000, Total beta = 21.00000, Total charge =  0.00000
