  ==> Input File <==

--------------------------------------------------------------------------
set {
	reference rhf
	basis cc-pvtz
}

set_num_threads( 4 )
memory 2 gb

molecule MOL {
0 1

H	 -3.162190	 0.493205	 -0.000107
C	 -2.363908	 -0.234727	 0.000005
O	 -1.158738	 0.454634	 -0.000087
H	 -2.464314	 -0.863616	 -0.882153
H	 -2.464327	 -0.863359	 0.882345
C	 -1.135785	 1.576024	 0.825912
C	 0.226094	 2.234496	 0.735941
H	 -1.345671	 1.286165	 1.855751
H	 -1.913344	 2.278325	 0.524554
C	 0.332214	 3.475286	 1.615446
H	 0.980036	 1.509031	 1.020892
H	 0.416844	 2.493345	 -0.299705
H	 0.168495	 3.234312	 2.660537
H	 1.313975	 3.924981	 1.532136
H	 -0.398248	 4.225314	 1.330928

	symmetry c1
}
set optking {
	frozen_dihedral = ("
		6 3 2 4
	")
}

ee = optimize('scf')
oeprop('DIPOLE', 'QUADRUPOLE', 'MULLIKEN_CHARGES')
f=open( 'psi4out.xyz', 'w' )
f.write( "15  " )
f.write( str(ee) + "\n" )
f.write( MOL.save_string_xyz() )
f.close()
--------------------------------------------------------------------------

    Molecular point group: c1
  Charge       = 0
  Multiplicity = 1
  Basis Set: CC-PVTZ
  Basis Set:
  @DF-RHF Final Energy:  -232.22633879665671
    Total Energy =                       -232.2263387966566484
    Molecular point group: c1
  Basis Set: CC-PVTZ
  Basis Set:
  Basis Set: CC-PVTZ
  Basis Set:
  @DF-RHF Final Energy:  -232.22714006861810
    Total Energy =                       -232.2271400686180414
  Basis Set: CC-PVTZ
  Basis Set:
  Basis Set: CC-PVTZ
  Basis Set:
  @DF-RHF Final Energy:  -232.22733694047321
    Total Energy =                       -232.2273369404734353
  Basis Set: CC-PVTZ
  Basis Set:
  Charge       = 0
  Multiplicity = 1
  Basis Set: CC-PVTZ
  Basis Set:

    Orbital Energies (a.u.)
    -----------------------

    Doubly Occupied:

       1A    -20.546725     2A    -11.264534     3A    -11.261623
       4A    -11.212634     5A    -11.210662     6A     -1.380774
       7A     -1.058380     8A     -0.956142     9A     -0.877366
      10A     -0.809502    11A     -0.676418    12A     -0.655417
      13A     -0.631906    14A     -0.608819    15A     -0.564627
      16A     -0.542426    17A     -0.503513    18A     -0.489637
      19A     -0.478624    20A     -0.462713    21A     -0.415658

  @DF-RHF Final Energy:  -232.22733801173072

   => Energetics <=

    Nuclear Repulsion Energy =            189.9393086552447301
    One-Electron Energy =                -691.1170942170069793
    Two-Electron Energy =                 268.9504475500315266
    DFT Exchange-Correlation Energy =       0.0000000000000000
    Empirical Dispersion Energy =           0.0000000000000000
    PCM Polarization Energy =               0.0000000000000000
    EFP Energy =                            0.0000000000000000
    Total Energy =                       -232.2273380117306942
    Molecular point group: c1
  Basis Set: CC-PVTZ
  Basis Set:

  -Total Gradient:
     Atom            X                  Y                   Z
    ------   -----------------  -----------------  -----------------
       1        0.000009866648     0.000029456522     0.000007999481
       2        0.001008546003    -0.001703690266     0.000856105334
       3        0.000687240911    -0.001167022918     0.001794605434
       4       -0.000991705476     0.001843787413    -0.001163531723
       5        0.000060420656     0.000026950299     0.000002872489
       6       -0.000756718583     0.001088329411    -0.001375427468
       7        0.000023461695    -0.000060364365    -0.000068713252
       8       -0.000005012003    -0.000010025325    -0.000003787024
       9       -0.000007050835    -0.000020140909    -0.000026946120
      10       -0.000050065400    -0.000023031579     0.000002189348
      11        0.000006345067    -0.000001634354    -0.000001755870
      12        0.000021659338     0.000010360391    -0.000010418631
      13       -0.000000709739    -0.000000193294     0.000000950772
      14       -0.000004855652    -0.000020731041    -0.000015392918
      15       -0.000001422629     0.000007950016     0.000001250145

  **** Optimization is complete! (in 4 steps) ****
    Final optimized geometry and variables:
    Molecular point group: c1

    Geometry (in Angstrom), charge = 0, multiplicity = 1:

    H           -2.374534658716    -1.042084379327    -0.634938714432
    C           -1.522165155864    -1.717809623024    -0.627841813455
    O           -0.320525280790    -1.020023732263    -0.633015355129
    H           -1.566362786987    -2.316652480632    -1.526582764311
    H           -1.605084014661    -2.364451186370     0.242214007150
    C           -0.289051119350     0.098654364974     0.196580649530
    C            1.077192347082     0.747765600168     0.104772905869
    H           -0.498102517353    -0.189104238608     1.227501320399
    H           -1.062353913346     0.805466144944    -0.103556087658
    C            1.190296190665     1.991678314517     0.979068291860
    H            1.826767441269     0.019108606046     0.393236718082
    H            1.270018070173     1.000913748289    -0.932000540629
    H            1.024269811142     1.756250023405     2.025105251362
    H            2.174934548629     2.434985867678     0.894593205720
    H            0.464661162353     2.744999627716     0.690681993249

  Mulliken Charges: (a.u.)
   Center  Symbol    Alpha    Beta     Spin     Total
       1     H     0.47488  0.47488  0.00000  0.05024
       2     C     3.03228  3.03228  0.00000 -0.06457
       3     O     4.17276  4.17276  0.00000 -0.34552
       4     H     0.44875  0.44875  0.00000  0.10251
       5     H     0.46719  0.46719  0.00000  0.06562
       6     C     2.95606  2.95606  0.00000  0.08788
       7     C     3.08070  3.08070  0.00000 -0.16141
       8     H     0.47694  0.47694  0.00000  0.04612
       9     H     0.47443  0.47443  0.00000  0.05114
      10     C     3.15582  3.15582  0.00000 -0.31163
      11     H     0.45100  0.45100  0.00000  0.09801
      12     H     0.45119  0.45119  0.00000  0.09763
      13     H     0.45583  0.45583  0.00000  0.08834
      14     H     0.44627  0.44627  0.00000  0.10746
      15     H     0.45591  0.45591  0.00000  0.08818

   Total alpha = 21.00000, Total beta = 21.00000, Total charge = -0.00000
