  ==> Input File <==

--------------------------------------------------------------------------
set {
	reference rhf
	basis 6-31G*
}

set_num_threads( 1 )
memory 2 gb

molecule MOL {
0 1

O	 -2.828349	 1.295805	 0.171085
C	 -2.668563	 0.129746	 -0.000350
C	 -3.792069	 -0.845103	 -0.242570
O	 -1.481751	 -0.454642	 0.000584
H	 -4.339855	 -0.532746	 -1.123607
H	 -3.429055	 -1.853732	 -0.374204
H	 -4.474095	 -0.805862	 0.598370
C	 -0.334255	 0.388708	 0.000906
C	 0.891947	 -0.504646	 0.000751
H	 -0.365390	 1.025305	 -0.873475
H	 -0.365484	 1.024911	 0.875569
C	 2.191998	 0.301789	 0.000897
H	 0.855148	 -1.151283	 -0.871571
H	 0.855132	 -1.151660	 0.872805
C	 3.441114	 -0.581407	 0.000108
H	 2.215074	 0.954890	 -0.869742
H	 2.215465	 0.953923	 0.872248
C	 4.739576	 0.224112	 -0.001102
H	 3.419457	 -1.233487	 -0.870178
H	 3.420834	 -1.233096	 0.870717
H	 4.804918	 0.861552	 -0.878265
H	 5.606527	 -0.429058	 -0.001824
H	 4.806469	 0.861674	 0.875853

	symmetry c1
}
set optking {
	frozen_dihedral = ("
		13 9 8 10,
		2 4 8 10,
		16 12 9 13,
		19 15 12 16
	")
}

ee = energy('scf')
oeprop('DIPOLE', 'QUADRUPOLE', 'MULLIKEN_CHARGES')
f=open( 'psi4out.xyz', 'w' )
f.write( "23  " )
f.write( str(ee) + "\n" )
f.write( MOL.save_string_xyz() )
f.close()
--------------------------------------------------------------------------

    Molecular point group: c1

    Geometry (in Angstrom), charge = 0, multiplicity = 1:

       Center              X                  Y                   Z               Mass
    ------------   -----------------  -----------------  -----------------  -----------------
           O         -2.828668576821     1.295168148813     0.179192759140    15.994914619560
           C         -2.668882576821     0.129109148813     0.007757759140    12.000000000000
           C         -3.792388576821    -0.845739851187    -0.234462240860    12.000000000000
           O         -1.482070576821    -0.455278851187     0.008691759140    15.994914619560
           H         -4.340174576821    -0.533382851187    -1.115499240860     1.007825032070
           H         -3.429374576821    -1.854368851187    -0.366096240860     1.007825032070
           H         -4.474414576821    -0.806498851187     0.606477759140     1.007825032070
           C         -0.334574576821     0.388071148813     0.009013759140    12.000000000000
           C          0.891627423179    -0.505282851187     0.008858759140    12.000000000000
           H         -0.365709576821     1.024668148813    -0.865367240860     1.007825032070
           H         -0.365803576821     1.024274148813     0.883676759140     1.007825032070
           C          2.191678423179     0.301152148813     0.009004759140    12.000000000000
           H          0.854828423179    -1.151919851187    -0.863463240860     1.007825032070
           H          0.854812423179    -1.152296851187     0.880912759140     1.007825032070
           C          3.440794423179    -0.582043851187     0.008215759140    12.000000000000
           H          2.214754423179     0.954253148813    -0.861634240860     1.007825032070
           H          2.215145423179     0.953286148813     0.880355759140     1.007825032070
           C          4.739256423179     0.223475148813     0.007005759140    12.000000000000
           H          3.419137423179    -1.234123851187    -0.862070240860     1.007825032070
           H          3.420514423179    -1.233732851187     0.878824759140     1.007825032070
           H          4.804598423179     0.860915148813    -0.870157240860     1.007825032070
           H          5.606207423179    -0.429694851187     0.006283759140     1.007825032070
           H          4.806149423179     0.861037148813     0.883960759140     1.007825032070

  Charge       = 0
  Multiplicity = 1
  Basis Set: 6-31G*
  Basis Set:

    Orbital Energies (a.u.)
    -----------------------

    Doubly Occupied:

       1A    -20.602383     2A    -20.540739     3A    -11.374148
       4A    -11.281775     5A    -11.232367     6A    -11.224524
       7A    -11.223904     8A    -11.221763     9A    -11.213023
      10A     -1.467791    11A     -1.360790    12A     -1.094309
      13A     -1.042208    14A     -1.003515    15A     -0.931054
      16A     -0.841731    17A     -0.802802    18A     -0.774457
      19A     -0.692744    20A     -0.684634    21A     -0.667583
      22A     -0.646781    23A     -0.606326    24A     -0.588523
      25A     -0.582258    26A     -0.567029    27A     -0.558440
      28A     -0.538109    29A     -0.522501    30A     -0.504960
      31A     -0.491172    32A     -0.478032    33A     -0.471252
      34A     -0.465964    35A     -0.450979    36A     -0.435070

  @DF-RHF Final Energy:  -422.97883507491827

   => Energetics <=

    Nuclear Repulsion Energy =            449.6015830159252573
    One-Electron Energy =               -1466.7895534068973120
    Two-Electron Energy =                 594.2091353160550398
    DFT Exchange-Correlation Energy =       0.0000000000000000
    Empirical Dispersion Energy =           0.0000000000000000
    PCM Polarization Energy =               0.0000000000000000
    EFP Energy =                            0.0000000000000000
    Total Energy =                       -422.9788350749170149

  Mulliken Charges: (a.u.)
   Center  Symbol    Alpha    Beta     Spin     Total
       1     O     4.28335  4.28335  0.00000 -0.56670
       2     C     2.61525  2.61525  0.00000  0.76950
       3     C     3.28801  3.28801  0.00000 -0.57601
       4     O     4.31294  4.31294  0.00000 -0.62589
       5     H     0.39749  0.39749  0.00000  0.20503
       6     H     0.39987  0.39987  0.00000  0.20025
       7     H     0.39751  0.39751  0.00000  0.20497
       8     C     2.99582  2.99582  0.00000  0.00837
       9     C     3.16481  3.16481  0.00000 -0.32961
      10     H     0.41291  0.41291  0.00000  0.17419
      11     H     0.40842  0.40842  0.00000  0.18316
      12     C     3.16004  3.16004  0.00000 -0.32007
      13     H     0.41465  0.41465  0.00000  0.17071
      14     H     0.41370  0.41370  0.00000  0.17261
      15     C     3.15144  3.15144  0.00000 -0.30287
      16     H     0.42109  0.42109  0.00000  0.15782
      17     H     0.42047  0.42047  0.00000  0.15906
      18     C     3.23987  3.23987  0.00000 -0.47975
      19     H     0.42147  0.42147  0.00000  0.15705
      20     H     0.42126  0.42126  0.00000  0.15747
      21     H     0.42092  0.42092  0.00000  0.15815
      22     H     0.41798  0.41798  0.00000  0.16405
      23     H     0.42075  0.42075  0.00000  0.15850

   Total alpha = 36.00000, Total beta = 36.00000, Total charge = -0.00000
