                              Psi4 1.0.54 Driver

  ==> Input File <==

--------------------------------------------------------------------------
set {
	reference rhf
	basis cc-pvtz
}

set_num_threads( 4 )
memory 2 gb

molecule MOL {
0 1

H	 -3.144994	 -1.202467	 -0.018751
O	 -2.321472	 -0.864941	 -0.318626
C	 -2.021813	 0.336996	 0.342658
C	 -0.669613	 0.837286	 -0.127252
H	 -2.780861	 1.084746	 0.127159
H	 -2.006390	 0.184138	 1.420053
C	 0.490865	 -0.082543	 0.241244
H	 -0.708709	 0.967192	 -1.204587
H	 -0.507562	 1.822272	 0.303070
C	 1.839800	 0.429565	 -0.255472
H	 0.305636	 -1.070211	 -0.165276
H	 0.527397	 -0.195943	 1.322876
C	 2.680439	 -0.652735	 -0.924604
H	 1.677251	 1.243199	 -0.957099
H	 2.395458	 0.852864	 0.577446
H	 2.166117	 -1.071218	 -1.783243
H	 3.629966	 -0.257778	 -1.267695
H	 2.889692	 -1.466407	 -0.237875

	symmetry c1
}
set optking {
	frozen_dihedral = ("
		14 10 7 11
	")
}

ee,wfn = optimize('scf', return_wfn=True)
oeprop( wfn, 'DIPOLE', 'QUADRUPOLE', 'MULLIKEN_CHARGES')
f=open( 'psi4out.xyz', 'w' )
f.write( "18  " )
f.write( str(ee) + "\n" )
f.write( MOL.save_string_xyz() )
f.close()
--------------------------------------------------------------------------

    Molecular point group: c1
  Charge       = 0
  Multiplicity = 1
  Basis Set: CC-PVTZ
  Basis Set:
  @DF-RHF Final Energy:  -271.28177543223819
    Total Energy =                       -271.2817754322383053
    Molecular point group: c1
  Basis Set: CC-PVTZ
  Basis Set:
  Basis Set: CC-PVTZ
  Basis Set:
  @DF-RHF Final Energy:  -271.28205102012760
    Total Energy =                       -271.2820510201278239
  Basis Set: CC-PVTZ
  Basis Set:
  Basis Set: CC-PVTZ
  Basis Set:
  @DF-RHF Final Energy:  -271.28212037154196
    Total Energy =                       -271.2821203715420779
  Basis Set: CC-PVTZ
  Basis Set:
  Charge       = 0
  Multiplicity = 1
  Basis Set: CC-PVTZ
  Basis Set:

    Orbital Energies (a.u.)
    -----------------------

    Doubly Occupied:

       1A    -20.546262     2A    -11.265868     3A    -11.211123
       4A    -11.208841     5A    -11.204706     6A    -11.202572
       7A     -1.364145     8A     -1.074364     9A     -1.009699
      10A     -0.913984    11A     -0.820347    12A     -0.784711
      13A     -0.707594    14A     -0.642675    15A     -0.621629
      16A     -0.582678    17A     -0.573499    18A     -0.564221
      19A     -0.515983    20A     -0.503214    21A     -0.497320
      22A     -0.466952    23A     -0.451813    24A     -0.448631
      25A     -0.431587

  @DF-RHF Final Energy:  -271.28212136383320

   => Energetics <=

    Nuclear Repulsion Energy =            249.5593699095580575
    One-Electron Energy =                -862.4541495709763694
    Two-Electron Energy =                 341.6126582975851989
    DFT Exchange-Correlation Energy =       0.0000000000000000
    Empirical Dispersion Energy =           0.0000000000000000
    PCM Polarization Energy =               0.0000000000000000
    EFP Energy =                            0.0000000000000000
    Total Energy =                       -271.2821213638330846
    Molecular point group: c1
  Basis Set: CC-PVTZ
  Basis Set:

  -Total Gradient:
     Atom            X                  Y                   Z
    ------   -----------------  -----------------  -----------------
       1        0.000003441481    -0.000001992736    -0.000000272900
       2       -0.000038057686     0.000019817647    -0.000000396959
       3        0.000024730402    -0.000004520218     0.000037814253
       4       -0.000025001684     0.000033486953    -0.000013150339
       5       -0.000029974272    -0.000030655998    -0.000007659746
       6       -0.000017315965    -0.000002665611    -0.000010582281
       7       -0.001746679848     0.002165328842    -0.002605395237
       8        0.000025170668     0.000002733190    -0.000002131423
       9        0.000014319230    -0.000025445873    -0.000002615484
      10        0.000278130459    -0.002916223599    -0.002436769845
      11        0.001427240723    -0.001329816025     0.002616485612
      12       -0.000009570243     0.000013022321    -0.000023220826
      13        0.000050237348    -0.000034329730    -0.000030716263
      14        0.000073459582     0.002081284035     0.002481232697
      15       -0.000005586271    -0.000020889836    -0.000021082221
      16       -0.000005380282     0.000015494521     0.000022944396
      17       -0.000000123323     0.000007563843     0.000002759517
      18       -0.000019040327     0.000027808273    -0.000007242953

  **** Optimization is complete! (in 4 steps) ****
    Final optimized geometry and variables:
    Molecular point group: c1

    Geometry (in Angstrom), charge = 0, multiplicity = 1:

    H           -3.114811243126    -1.155788211361     0.201055129995
    O           -2.293979064267    -0.826318777636    -0.114495863094
    C           -1.971427332412     0.373982373791     0.538824216161
    C           -0.624863648619     0.862293308307     0.041697667775
    H           -2.728419197088     1.127700463221     0.337125164071
    H           -1.935905271261     0.222619560553     1.615901206303
    C            0.534679429790    -0.069553244701     0.380325553251
    H           -0.683581460422     0.997638555238    -1.034074509937
    H           -0.442463220484     1.843563458941     0.472734491443
    C            1.902946512126     0.451814424583    -0.097333055465
    H            0.346548916690    -1.052380339108    -0.033681009796
    H            0.563235166233    -0.214547294996     1.457325433214
    C            2.779119162897    -0.620840415636    -0.734177731601
    H            1.760787296418     1.272917395623    -0.793542203361
    H            2.434383372157     0.887100313399     0.743664635868
    H            2.304507166589    -1.037942664530    -1.615872994618
    H            3.741471337290    -0.219299860848    -1.031441127558
    H            2.960061261163    -1.436703395245    -0.042051116232

  Mulliken Charges: (a.u.)
   Center  Symbol    Alpha    Beta     Spin     Total
       1     H     0.39578  0.39578  0.00000  0.20844
       2     O     4.19825  4.19825  0.00000 -0.39651
       3     C     2.97402  2.97402  0.00000  0.05196
       4     C     3.09183  3.09183  0.00000 -0.18365
       5     H     0.46559  0.46559  0.00000  0.06883
       6     H     0.47384  0.47384  0.00000  0.05232
       7     C     3.09132  3.09132  0.00000 -0.18264
       8     H     0.45183  0.45183  0.00000  0.09635
       9     H     0.45296  0.45296  0.00000  0.09409
      10     C     3.08634  3.08634  0.00000 -0.17268
      11     H     0.44452  0.44452  0.00000  0.11095
      12     H     0.45713  0.45713  0.00000  0.08573
      13     C     3.14722  3.14722  0.00000 -0.29443
      14     H     0.45583  0.45583  0.00000  0.08834
      15     H     0.45367  0.45367  0.00000  0.09265
      16     H     0.45402  0.45402  0.00000  0.09195
      17     H     0.45099  0.45099  0.00000  0.09801
      18     H     0.45486  0.45486  0.00000  0.09029

   Total alpha = 25.00000, Total beta = 25.00000, Total charge = -0.00000

*** Psi4 exiting successfully. Buy a developer a beer!
