  ==> Input File <==

--------------------------------------------------------------------------
set {
	reference rhf
	basis cc-pvtz
}

set_num_threads( 4 )
memory 2 gb

molecule MOL {
0 1

H	 0.057225	 -3.555107	 0.999191
O	 0.336772	 -2.744810	 0.600432
C	 -0.683447	 -1.891940	 0.620112
C	 -0.318151	 -0.570512	 0.000144
O	 -1.734536	 -2.178508	 1.079523
C	 -1.454884	 0.441630	 -0.000560
H	 0.545575	 -0.192580	 0.537764
H	 0.028086	 -0.774816	 -1.007963
C	 -2.822577	 -0.232186	 0.000063
H	 -1.359760	 1.084704	 -0.867077
H	 -1.359641	 1.085996	 0.864983
H	 -2.954352	 -0.858985	 -0.875745
H	 -3.615886	 0.505352	 0.000019
H	 -2.953878	 -0.858359	 0.876394

	symmetry c1
}
set optking {
	frozen_dihedral = ("
		7 4 6 10
	")
}

ee = optimize('scf')
oeprop('DIPOLE', 'QUADRUPOLE', 'MULLIKEN_CHARGES')
f=open( 'psi4out.xyz', 'w' )
f.write( "14  " )
f.write( str(ee) + "\n" )
f.write( MOL.save_string_xyz() )
f.close()
--------------------------------------------------------------------------

    Molecular point group: c1
  Charge       = 0
  Multiplicity = 1
  Basis Set: CC-PVTZ
  Basis Set:
  @DF-RHF Final Energy:  -305.97379800010361
    Total Energy =                       -305.9737980001035567
    Molecular point group: c1
  Basis Set: CC-PVTZ
  Basis Set:
  Basis Set: CC-PVTZ
  Basis Set:
  @DF-RHF Final Energy:  -305.98840758737049
    Total Energy =                       -305.9884075873703750
  Basis Set: CC-PVTZ
  Basis Set:
  Basis Set: CC-PVTZ
  Basis Set:
  @DF-RHF Final Energy:  -305.99068875651176
    Total Energy =                       -305.9906887565122133
  Basis Set: CC-PVTZ
  Basis Set:
  Basis Set: CC-PVTZ
  Basis Set:
  @DF-RHF Final Energy:  -305.99158598721453
    Total Energy =                       -305.9915859872144210
  Basis Set: CC-PVTZ
  Basis Set:
  @DF-RHF Final Energy:  -305.99205209909144
    Total Energy =                       -305.9920520990913815
  @DF-RHF Final Energy:  -305.99231309469468
    Total Energy =                       -305.9923130946946799
  @DF-RHF Final Energy:  -305.99237120639862
    Total Energy =                       -305.9923712063987296
  @DF-RHF Final Energy:  -305.99242550702843
    Total Energy =                       -305.9924255070282584
  @DF-RHF Final Energy:  -305.99242814965737
    Total Energy =                       -305.9924281496570302
  @DF-RHF Final Energy:  -305.99250440247175
    Total Energy =                       -305.9925044024717522
  @DF-RHF Final Energy:  -305.99263891471833
    Total Energy =                       -305.9926389147183272
  @DF-RHF Final Energy:  -305.99276235263437
    Total Energy =                       -305.9927623526349407
  @DF-RHF Final Energy:  -305.99288601275367
    Total Energy =                       -305.9928860127540702
  @DF-RHF Final Energy:  -305.99321837544892
    Total Energy =                       -305.9932183754490325
  @DF-RHF Final Energy:  -305.99393406696106
    Total Energy =                       -305.9939340669611738
  @DF-RHF Final Energy:  -305.99368723286580
    Total Energy =                       -305.9936872328659092
  @DF-RHF Final Energy:  -305.99393153681217
    Total Energy =                       -305.9939315368118287
  @DF-RHF Final Energy:  -305.99312046695547
    Total Energy =                       -305.9931204669555882
  @DF-RHF Final Energy:  -305.99433408797108
    Total Energy =                       -305.9943340879708558
  @DF-RHF Final Energy:  -305.99439299829521
    Total Energy =                       -305.9943929982948703
  @DF-RHF Final Energy:  -305.99442375290846
    Total Energy =                       -305.9944237529085171
  @DF-RHF Final Energy:  -305.99442330389832
    Total Energy =                       -305.9944233038982020
  @DF-RHF Final Energy:  -305.99442346721702
    Total Energy =                       -305.9944234672167340
  @DF-RHF Final Energy:  -305.99442372705221
    Total Energy =                       -305.9944237270523786
  @DF-RHF Final Energy:  -305.99442354006271
    Total Energy =                       -305.9944235400627122
  @DF-RHF Final Energy:  -305.99442356857770
    Total Energy =                       -305.9944235685777016
  @DF-RHF Final Energy:  -305.99442366420232
    Total Energy =                       -305.9944236642023725
  @DF-RHF Final Energy:  -305.99442368382256
    Total Energy =                       -305.9944236838223333
  @DF-RHF Final Energy:  -305.99442367454606
    Total Energy =                       -305.9944236745460557
  @DF-RHF Final Energy:  -305.99442364415160
    Total Energy =                       -305.9944236441518228
  @DF-RHF Final Energy:  -305.99442357819760
    Total Energy =                       -305.9944235781977682
  @DF-RHF Final Energy:  -305.99442362017470
    Total Energy =                       -305.9944236201744729
  @DF-RHF Final Energy:  -305.99442353222457
    Total Energy =                       -305.9944235322246300
  @DF-RHF Final Energy:  -305.99442361116724
    Total Energy =                       -305.9944236111671216
  @DF-RHF Final Energy:  -305.99442361584386
    Total Energy =                       -305.9944236158436865
  @DF-RHF Final Energy:  -305.99442360200084
    Total Energy =                       -305.9944236020006656
  Basis Set: CC-PVTZ
  Basis Set:
  @DF-RHF Final Energy:  -305.99442353294029
    Total Energy =                       -305.9944235329404592
  Basis Set: CC-PVTZ
  Basis Set:
  Basis Set: CC-PVTZ
  Basis Set:
  @DF-RHF Final Energy:  -305.99442339131792
    Total Energy =                       -305.9944233913178095
  Basis Set: CC-PVTZ
  Basis Set:
  Basis Set: CC-PVTZ
  Basis Set:
  @DF-RHF Final Energy:  -305.99442218808900
    Total Energy =                       -305.9944221880891746
  Basis Set: CC-PVTZ
  Basis Set:
  Charge       = 0
  Multiplicity = 1
  Basis Set: CC-PVTZ
  Basis Set:

    Orbital Energies (a.u.)
    -----------------------

    Doubly Occupied:

       1A    -20.606595     2A    -20.537373     3A    -11.373682
       4A    -11.239624     5A    -11.230669     6A    -11.210725
       7A     -1.478450     8A     -1.368334     9A     -1.081292
      10A     -0.977064    11A     -0.864720    12A     -0.792832
      13A     -0.706573    14A     -0.685855    15A     -0.659145
      16A     -0.626639    17A     -0.591434    18A     -0.569889
      19A     -0.560410    20A     -0.503152    21A     -0.492399
      22A     -0.486138    23A     -0.477158    24A     -0.441179

  @DF-RHF Final Energy:  -305.99442327885345

   => Energetics <=

    Nuclear Repulsion Energy =            246.5231540816996301
    One-Electron Energy =                -905.9124964100069519
    Two-Electron Energy =                 353.3949190494541881
    DFT Exchange-Correlation Energy =       0.0000000000000000
    Empirical Dispersion Energy =           0.0000000000000000
    PCM Polarization Energy =               0.0000000000000000
    EFP Energy =                            0.0000000000000000
    Total Energy =                       -305.9944232788531053
    Molecular point group: c1
  Basis Set: CC-PVTZ
  Basis Set:

  -Total Gradient:
     Atom            X                  Y                   Z
    ------   -----------------  -----------------  -----------------
       1       -0.000022363158    -0.000295370549     0.000132841039
       2        0.000016757800     0.000332878842    -0.000013017346
       3        0.000178578770    -0.000407393441     0.000238585014
       4        0.002489239351     0.003173097774    -0.007801564267
       5       -0.000231778344    -0.000006823645    -0.000138395956
       6        0.003055008917     0.004503851401     0.005711796600
       7       -0.002160208277    -0.003018556231     0.005531002822
       8       -0.000041503649    -0.000027686799    -0.000105603166
       9        0.000182795274     0.000136428204    -0.000052124801
      10       -0.003192839497    -0.004406104278    -0.003595537864
      11       -0.000076968548     0.000040737394    -0.000061930885
      12        0.000034590326    -0.000014239041     0.000030720388
      13       -0.000157361197     0.000019737553     0.000022465864
      14       -0.000073947768    -0.000030557183     0.000100762557

    Molecular point group: c1

    Geometry (in Angstrom), charge = 0, multiplicity = 1:

    H            0.752719883607    -2.442210480732     0.161206810502
    O            0.907422581705    -1.670142665676    -0.363166810066
    C            0.517650291157    -0.607585975054     0.331865352482
    C            0.769337405264     0.694705740781    -0.388754502785
    O            0.053765806336    -0.701800061430     1.416750434686
    C           -0.451381369253     1.635102170571    -0.427033083816
    H            1.557555326678     1.150065390481     0.200586767457
    H            1.143636653888     0.488027411848    -1.379779291600
    C           -1.799401150213     0.933880771689    -0.601086073144
    H           -0.323548345215     2.280078716385    -1.288504289025
    H           -0.473625405556     2.253104029440     0.459944551837
    H           -1.793534284755     0.284204973677    -1.471580759145
    H           -2.584551662383     1.666791934265    -0.746899505766
    H           -2.057669557479     0.338630469937     0.262897061191

  Mulliken Charges: (a.u.)
   Center  Symbol    Alpha    Beta     Spin     Total
       1     H     0.38005  0.38005  0.00000  0.23989
       2     O     4.16149  4.16149  0.00000 -0.32299
       3     C     2.79412  2.79412  0.00000  0.41175
       4     C     3.10941  3.10941  0.00000 -0.21882
       5     O     4.20193  4.20193  0.00000 -0.40385
       6     C     3.08033  3.08033  0.00000 -0.16065
       7     H     0.43880  0.43880  0.00000  0.12240
       8     H     0.43490  0.43490  0.00000  0.13019
       9     C     3.16140  3.16140  0.00000 -0.32279
      10     H     0.44944  0.44944  0.00000  0.10112
      11     H     0.44608  0.44608  0.00000  0.10785
      12     H     0.45399  0.45399  0.00000  0.09202
      13     H     0.44742  0.44742  0.00000  0.10516
      14     H     0.44064  0.44064  0.00000  0.11871

   Total alpha = 24.00000, Total beta = 24.00000, Total charge = -0.00000
