  ==> Input File <==

--------------------------------------------------------------------------
set {
	reference rhf
	basis 6-31G*
}

set_num_threads( 4 )
memory 2 gb

molecule MOL {
0 1

H	 -3.135461	 -1.215070	 0.001379
O	 -2.310168	 -0.871793	 -0.309793
C	 -2.026376	 0.340750	 0.341611
C	 -0.673256	 0.843270	 -0.132153
H	 -2.792215	 1.080697	 0.115987
H	 -2.013526	 0.200402	 1.421792
C	 0.486613	 -0.083066	 0.235839
H	 -0.715586	 0.970948	 -1.210718
H	 -0.508072	 1.829858	 0.297090
C	 1.840406	 0.433480	 -0.254303
H	 0.300215	 -1.068318	 -0.178947
H	 0.519509	 -0.203625	 1.318070
C	 2.383731	 1.580507	 0.597049
H	 2.557804	 -0.384478	 -0.256123
H	 1.751159	 0.762801	 -1.287757
H	 2.516971	 1.271698	 1.629897
H	 3.345022	 1.924698	 0.227730
H	 1.704552	 2.428564	 0.591807

	symmetry c1
}
set optking {
	frozen_dihedral = ("
		14 10 7 11
	")
}

ee = optimize('scf')
oeprop('DIPOLE', 'QUADRUPOLE', 'MULLIKEN_CHARGES')
f=open( 'psi4out.xyz', 'w' )
f.write( "18  " )
f.write( str(ee) + "\n" )
f.write( MOL.save_string_xyz() )
f.close()
--------------------------------------------------------------------------

    Molecular point group: c1
  Charge       = 0
  Multiplicity = 1
  Basis Set: 6-31G*
  Basis Set:
  @DF-RHF Final Energy:  -271.17779505854207
    Total Energy =                       -271.1777950585421877
    Molecular point group: c1
  Basis Set: 6-31G*
  Basis Set:
  Basis Set: 6-31G*
  Basis Set:
  @DF-RHF Final Energy:  -271.17800600520252
    Total Energy =                       -271.1780060052026329
  Basis Set: 6-31G*
  Basis Set:
  Basis Set: 6-31G*
  Basis Set:
  @DF-RHF Final Energy:  -271.17803607488941
    Total Energy =                       -271.1780360748892917
  Basis Set: 6-31G*
  Basis Set:
  Charge       = 0
  Multiplicity = 1
  Basis Set: 6-31G*
  Basis Set:

    Orbital Energies (a.u.)
    -----------------------

    Doubly Occupied:

       1A    -20.553056     2A    -11.268080     3A    -11.211829
       4A    -11.210783     5A    -11.206292     6A    -11.205675
       7A     -1.359790     8A     -1.074355     9A     -1.006701
      10A     -0.914585    11A     -0.827094    12A     -0.774886
      13A     -0.705300    14A     -0.635170    15A     -0.614038
      16A     -0.607988    17A     -0.568607    18A     -0.549079
      19A     -0.522218    20A     -0.504939    21A     -0.493023
      22A     -0.461250    23A     -0.456166    24A     -0.448410
      25A     -0.428390

  @DF-RHF Final Energy:  -271.17803677579457

   => Energetics <=

    Nuclear Repulsion Energy =            251.0060618586090584
    One-Electron Energy =                -865.1527892795575099
    Two-Electron Energy =                 342.9686906451539130
    DFT Exchange-Correlation Energy =       0.0000000000000000
    Empirical Dispersion Energy =           0.0000000000000000
    PCM Polarization Energy =               0.0000000000000000
    EFP Energy =                            0.0000000000000000
    Total Energy =                       -271.1780367757945100
    Molecular point group: c1
  Basis Set: 6-31G*
  Basis Set:

  -Total Gradient:
     Atom            X                  Y                   Z
    ------   -----------------  -----------------  -----------------
       1        0.000005866274     0.000004214491     0.000008495044
       2        0.000061060564    -0.000051464049     0.000028326203
       3       -0.000022432207     0.000011591210    -0.000089964857
       4        0.000032984234     0.000033875259     0.000073399377
       5       -0.000007242839     0.000024906974     0.000003144119
       6        0.000014197533    -0.000007323038    -0.000023693273
       7       -0.001117115311     0.000948354758    -0.002207778123
       8        0.000022003592     0.000005237292     0.000004305533
       9       -0.000014088704    -0.000027956672     0.000009634368
      10        0.000758194836     0.000367786602     0.002462072439
      11        0.000832619295    -0.000790641484     0.001487159512
      12        0.000021688503    -0.000009190549     0.000026100223
      13       -0.000086921457    -0.000044251506     0.000026272413
      14       -0.000495157382    -0.000389541262    -0.001723099194
      15       -0.000015633699     0.000007598029    -0.000045168364
      16       -0.000017591375    -0.000017122544     0.000019582130
      17       -0.000006218997    -0.000057474449    -0.000051901267
      18        0.000033787140    -0.000008599065    -0.000006886281

  **** Optimization is complete! (in 4 steps) ****
    Final optimized geometry and variables:
    Molecular point group: c1

    Geometry (in Angstrom), charge = 0, multiplicity = 1:

    H           -3.019413281758    -1.594382352423    -0.107598603747
    O           -2.197659082437    -1.234897305796    -0.409724799735
    C           -1.935021687393    -0.027477113097     0.259790494202
    C           -0.586221404620     0.501681037674    -0.197741558480
    H           -2.709953436332     0.704559342654     0.039295252814
    H           -1.926979332312    -0.182456906489     1.337978970481
    C            0.579832401476    -0.422799875188     0.158247863346
    H           -0.623864146713     0.645093943148    -1.274559114898
    H           -0.443254304897     1.483053644173     0.248136799819
    C            1.946759532310     0.081926139306    -0.321418633152
    H            0.392308456755    -1.405001771940    -0.260582130034
    H            0.611114523197    -0.559600935858     1.239122078721
    C            2.519897102968     1.233848307447     0.504655432769
    H            2.649262755772    -0.747493807415    -0.314462619273
    H            1.868133863094     0.389306357845    -1.362657592980
    H            2.639434052753     0.944799166204     1.545290158958
    H            3.494700427351     1.532247501624     0.130906815588
    H            1.879284015034     2.109832070764     0.476954458644

  Mulliken Charges: (a.u.)
   Center  Symbol    Alpha    Beta     Spin     Total
       1     H     0.28056  0.28056  0.00000  0.43887
       2     O     4.36969  4.36969  0.00000 -0.73939
       3     C     2.99701  2.99701  0.00000  0.00599
       4     C     3.16139  3.16139  0.00000 -0.32278
       5     H     0.42921  0.42921  0.00000  0.14158
       6     H     0.43252  0.43252  0.00000  0.13496
       7     C     3.15588  3.15588  0.00000 -0.31176
       8     H     0.41522  0.41522  0.00000  0.16957
       9     H     0.42286  0.42286  0.00000  0.15429
      10     C     3.15413  3.15413  0.00000 -0.30826
      11     H     0.40539  0.40539  0.00000  0.18923
      12     H     0.42803  0.42803  0.00000  0.14395
      13     C     3.24010  3.24010  0.00000 -0.48020
      14     H     0.42060  0.42060  0.00000  0.15879
      15     H     0.42309  0.42309  0.00000  0.15382
      16     H     0.42255  0.42255  0.00000  0.15489
      17     H     0.41971  0.41971  0.00000  0.16058
      18     H     0.42206  0.42206  0.00000  0.15588

   Total alpha = 25.00000, Total beta = 25.00000, Total charge = -0.00000
