  ==> Input File <==

--------------------------------------------------------------------------
set {
	reference rhf
	basis 6-31G*
}

set_num_threads( 4 )
memory 2 gb

molecule MOL {
0 1

H	 -0.688294	 1.759638	 4.778321
C	 -0.295151	 1.471935	 3.819441
C	 -0.569254	 2.243493	 2.700194
C	 0.483806	 0.331123	 3.706718
H	 -1.173504	 3.128005	 2.788999
C	 -0.063399	 1.872923	 1.467606
H	 0.695226	 -0.265730	 4.575438
C	 0.991238	 -0.041756	 2.473897
H	 -0.265244	 2.457885	 0.590822
C	 0.718333	 0.729401	 1.350242
H	 1.594486	 -0.923787	 2.382055
C	 1.239129	 0.373821	 0.000060
O	 1.970282	 -0.730723	 0.000018
O	 1.026107	 1.009977	 -0.984209
C	 3.377318	 -0.566646	 -0.000065
H	 3.695437	 -0.028981	 -0.881264
H	 3.789299	 -1.563704	 0.000236
H	 3.695516	 -0.028316	 0.880770

	symmetry c1
}
set optking {
	frozen_dihedral = ("
		10 12 13 15
	")
}

ee = optimize('scf')
oeprop('DIPOLE', 'QUADRUPOLE', 'MULLIKEN_CHARGES')
f=open( 'psi4out.xyz', 'w' )
f.write( "18  " )
f.write( str(ee) + "\n" )
f.write( MOL.save_string_xyz() )
f.close()
--------------------------------------------------------------------------

    Molecular point group: c1
  Charge       = 0
  Multiplicity = 1
  Basis Set: 6-31G*
  Basis Set:
  @DF-RHF Final Energy:  -457.33160711512653
    Total Energy =                       -457.3316071151267579
    Molecular point group: c1
  Basis Set: 6-31G*
  Basis Set:
  Basis Set: 6-31G*
  Basis Set:
  @DF-RHF Final Energy:  -457.33219628955209
    Total Energy =                       -457.3321962895521438
  Basis Set: 6-31G*
  Basis Set:
  Basis Set: 6-31G*
  Basis Set:
  @DF-RHF Final Energy:  -457.33264198790852
    Total Energy =                       -457.3326419879086870
  Basis Set: 6-31G*
  Basis Set:
  Basis Set: 6-31G*
  Basis Set:
  @DF-RHF Final Energy:  -457.33274489728200
    Total Energy =                       -457.3327448972816001
  Basis Set: 6-31G*
  Basis Set:
  Basis Set: 6-31G*
  Basis Set:
  @DF-RHF Final Energy:  -457.33274752979338
    Total Energy =                       -457.3327475297942328
  Basis Set: 6-31G*
  Basis Set:
  Charge       = 0
  Multiplicity = 1
  Basis Set: 6-31G*
  Basis Set:

    Orbital Energies (a.u.)
    -----------------------

    Doubly Occupied:

       1A    -20.588213     2A    -20.555112     3A    -11.379573
       4A    -11.290119     5A    -11.249593     6A    -11.249442
       7A    -11.248049     8A    -11.245708     9A    -11.241566
      10A    -11.240637    11A     -1.461167    12A     -1.366883
      13A     -1.168691    14A     -1.046209    15A     -1.028798
      16A     -0.973749    17A     -0.869928    18A     -0.838920
      19A     -0.778533    20A     -0.737646    21A     -0.684757
      22A     -0.675379    23A     -0.661785    24A     -0.638389
      25A     -0.627163    26A     -0.608004    27A     -0.597791
      28A     -0.558801    29A     -0.527390    30A     -0.521192
      31A     -0.503887    32A     -0.494873    33A     -0.460658
      34A     -0.442688    35A     -0.348755    36A     -0.345018

  @DF-RHF Final Energy:  -457.33274789778130

   => Energetics <=

    Nuclear Repulsion Energy =            495.3464081021165271
    One-Electron Energy =               -1604.8481814537603896
    Two-Electron Energy =                 652.1690254538623321
    DFT Exchange-Correlation Energy =       0.0000000000000000
    Empirical Dispersion Energy =           0.0000000000000000
    PCM Polarization Energy =               0.0000000000000000
    EFP Energy =                            0.0000000000000000
    Total Energy =                       -457.3327478977814735
    Molecular point group: c1
  Basis Set: 6-31G*
  Basis Set:

  -Total Gradient:
     Atom            X                  Y                   Z
    ------   -----------------  -----------------  -----------------
       1       -0.000007884564     0.000001227348    -0.000004778896
       2        0.000004454717     0.000019539835    -0.000005667788
       3       -0.000018527031    -0.000008682812     0.000014366619
       4        0.000027579328     0.000005293173    -0.000005247282
       5        0.000001922099     0.000005704913     0.000002499279
       6        0.000010242838    -0.000008509173    -0.000004708325
       7       -0.000005804929    -0.000003890914    -0.000004925910
       8       -0.000016560334    -0.000033796764     0.000002835819
       9       -0.000003357388     0.000004440833    -0.000000558627
      10        0.002797838592     0.002057830403     0.000474527370
      11        0.000004529491     0.000012164276     0.000000397614
      12       -0.004015750375    -0.002985552755     0.000988256675
      13        0.001131665824     0.000848790200    -0.005175695602
      14       -0.000001593791     0.000007106843     0.000001834837
      15        0.000091029707     0.000083908183     0.003719250690
      16       -0.000001097804    -0.000004255620     0.000000750944
      17       -0.000001332342    -0.000001755541    -0.000002416918
      18        0.000002645959     0.000000437576    -0.000000720498

  **** Optimization is complete! (in 6 steps) ****
    Final optimized geometry and variables:
    Molecular point group: c1

    Geometry (in Angstrom), charge = 0, multiplicity = 1:

    H           -1.619955688464     1.192792413746     3.411153614072
    C           -1.239062865722     0.882617902899     2.454434755727
    C           -1.478602852469     1.660502982194     1.330053433212
    C           -0.514217959644    -0.292913179750     2.348560008122
    H           -2.043336787066     2.571154803611     1.414696607651
    C           -0.991306506161     1.261359827900     0.100274189168
    H           -0.335128706808    -0.897127920327     3.219371573923
    C           -0.022187002772    -0.692834553046     1.116995815363
    H           -1.169998812578     1.849070174916    -0.779762612087
    C           -0.255489800091     0.084913940408    -0.010712736551
    H            0.531279954871    -1.607377599282     1.027230774101
    C            0.265368073232    -0.304538957575    -1.351844215651
    O            1.067238659159    -1.390488554909    -1.352920568719
    O            0.028512389124     0.294668132174    -2.346178507785
    C            2.456597968903    -1.127909857247    -1.398583759522
    H            2.707216446050    -0.565699612416    -2.288447328343
    H            2.948620714360    -2.087648505355    -1.422557570266
    H            2.772007370524    -0.581002234125    -0.516848515822

  Mulliken Charges: (a.u.)
   Center  Symbol    Alpha    Beta     Spin     Total
       1     H     0.39443  0.39443  0.00000  0.21114
       2     C     3.08985  3.08985  0.00000 -0.17970
       3     C     3.10671  3.10671  0.00000 -0.21341
       4     C     3.10629  3.10629  0.00000 -0.21258
       5     H     0.39441  0.39441  0.00000  0.21118
       6     C     3.08528  3.08528  0.00000 -0.17055
       7     H     0.39543  0.39543  0.00000  0.20915
       8     C     3.09201  3.09201  0.00000 -0.18402
       9     H     0.37598  0.37598  0.00000  0.24804
      10     C     3.07689  3.07689  0.00000 -0.15377
      11     H     0.38238  0.38238  0.00000  0.23525
      12     C     2.59280  2.59280  0.00000  0.81441
      13     O     4.32302  4.32302  0.00000 -0.64603
      14     O     4.26163  4.26163  0.00000 -0.52327
      15     C     3.09459  3.09459  0.00000 -0.18919
      16     H     0.40577  0.40577  0.00000  0.18847
      17     H     0.40386  0.40386  0.00000  0.19229
      18     H     0.41870  0.41870  0.00000  0.16259

   Total alpha = 36.00000, Total beta = 36.00000, Total charge =  0.00000
