  ==> Input File <==

--------------------------------------------------------------------------
set {
	reference rhf
	basis 6-31G*
}

set_num_threads( 4 )
memory 2 gb

molecule MOL {
0 1

O	 0.837380	 1.136635	 0.578650
C	 0.576249	 0.131685	 -0.000108
C	 -0.766779	 -0.556801	 -0.000461
O	 1.456510	 -0.530618	 -0.739810
C	 -1.945214	 0.412366	 0.000161
H	 -0.796911	 -1.211249	 -0.867467
H	 -0.796854	 -1.212390	 0.865687
C	 -3.287791	 -0.317055	 0.000105
H	 -1.876087	 1.060580	 -0.866812
H	 -1.875822	 1.059691	 0.867761
H	 -3.394745	 -0.949193	 -0.877058
H	 -4.111778	 0.388953	 0.000015
H	 -3.394954	 -0.949187	 0.877259
C	 2.762076	 0.011222	 -0.824150
H	 2.735378	 1.001259	 -1.256189
H	 3.319233	 -0.659250	 -1.459689
H	 3.216039	 0.063030	 0.155004

	symmetry c1
}
set optking {
	frozen_dihedral = ("
		1 2 3 6
	")
}

ee = optimize('scf')
oeprop('DIPOLE', 'QUADRUPOLE', 'MULLIKEN_CHARGES')
f=open( 'psi4out.xyz', 'w' )
f.write( "17  " )
f.write( str(ee) + "\n" )
f.write( MOL.save_string_xyz() )
f.close()
--------------------------------------------------------------------------

    Molecular point group: c1
  Charge       = 0
  Multiplicity = 1
  Basis Set: 6-31G*
  Basis Set:
  @DF-RHF Final Energy:  -344.90569660611538
    Total Energy =                       -344.9056966061153844
    Molecular point group: c1
  Basis Set: 6-31G*
  Basis Set:
  Basis Set: 6-31G*
  Basis Set:
  @DF-RHF Final Energy:  -344.90505617827171
    Total Energy =                       -344.9050561782718205
  Basis Set: 6-31G*
  Basis Set:
  Basis Set: 6-31G*
  Basis Set:
  @DF-RHF Final Energy:  -344.90587387310001
    Total Energy =                       -344.9058738730998357
  Basis Set: 6-31G*
  Basis Set:
  Basis Set: 6-31G*
  Basis Set:
  @DF-RHF Final Energy:  -344.90606221237812
    Total Energy =                       -344.9060622123781741
  Basis Set: 6-31G*
  Basis Set:
  Charge       = 0
  Multiplicity = 1
  Basis Set: 6-31G*
  Basis Set:

    Orbital Energies (a.u.)
    -----------------------

    Doubly Occupied:

       1A    -20.605655     2A    -20.544050     3A    -11.372547
       4A    -11.281153     5A    -11.235374     6A    -11.224568
       7A    -11.215469     8A     -1.470149     9A     -1.362531
      10A     -1.080925    11A     -1.001216    12A     -0.940648
      13A     -0.827911    14A     -0.769474    15A     -0.699681
      16A     -0.682266    17A     -0.672406    18A     -0.636752
      19A     -0.594720    20A     -0.579373    21A     -0.564382
      22A     -0.530489    23A     -0.523491    24A     -0.500258
      25A     -0.486087    26A     -0.479122    27A     -0.456234
      28A     -0.436371

  @DF-RHF Final Energy:  -344.90606290474437

   => Energetics <=

    Nuclear Repulsion Energy =            312.5003138815901025
    One-Electron Energy =               -1089.2661483887111444
    Two-Electron Energy =                 431.8597716023770090
    DFT Exchange-Correlation Energy =       0.0000000000000000
    Empirical Dispersion Energy =           0.0000000000000000
    PCM Polarization Energy =               0.0000000000000000
    EFP Energy =                            0.0000000000000000
    Total Energy =                       -344.9060629047440898
    Molecular point group: c1
  Basis Set: 6-31G*
  Basis Set:

  -Total Gradient:
     Atom            X                  Y                   Z
    ------   -----------------  -----------------  -----------------
       1        0.000316969581    -0.000702435459     0.000788498435
       2       -0.000421681888     0.000862218197    -0.001004294274
       3       -0.000401892214     0.000762478871    -0.000341523996
       4        0.000050590056    -0.000004451997    -0.000148166557
       5        0.000026361367    -0.000008788600     0.000077008925
       6        0.000438635878    -0.000820684239     0.000571323406
       7        0.000004468217    -0.000000379701     0.000009512177
       8       -0.000000836295    -0.000010452180    -0.000036699681
       9        0.000017208988    -0.000020725107    -0.000004945649
      10       -0.000008197935    -0.000001037090     0.000012745689
      11       -0.000010594556    -0.000010403451    -0.000000626988
      12        0.000006931256     0.000003880010    -0.000010307985
      13        0.000009357893     0.000009307341     0.000000608103
      14       -0.000037760955    -0.000121823819     0.000156410697
      15       -0.000039902768     0.000021916965    -0.000017393787
      16        0.000008816286     0.000018940220    -0.000023162664
      17        0.000041527092     0.000022440036    -0.000028985853

  **** Optimization is complete! (in 5 steps) ****
    Final optimized geometry and variables:
    Molecular point group: c1

    Geometry (in Angstrom), charge = 0, multiplicity = 1:

    O            0.830336427846     1.092538772942     0.697517510211
    C            0.590879638947     0.090645436888     0.102871054343
    C           -0.748320255025    -0.606913916145     0.094357678953
    O            1.498800683906    -0.567130966107    -0.604446241140
    C           -1.926301924232     0.365747390182     0.148939247604
    H           -0.802603871426    -1.260118263708    -0.768161014668
    H           -0.760184756208    -1.252712863238     0.970482384904
    C           -3.269133816588    -0.359914730228     0.209677734586
    H           -1.899668747386     1.010722051234    -0.725114097837
    H           -1.810824610795     1.011535255134     1.011150645495
    H           -3.415725572814    -0.996273238625    -0.658462589700
    H           -4.090467887426     0.348408821743     0.242414889693
    H           -3.337857088371    -0.986574735718     1.094463470234
    C            2.810743888988    -0.033654224706    -0.618897996394
    H            2.810160515581     0.962392114291    -1.037454622854
    H            3.392931145112    -0.699157320592    -1.237003998984
    H            3.217880483740     0.001561948488     0.381329060297

  Mulliken Charges: (a.u.)
   Center  Symbol    Alpha    Beta     Spin     Total
       1     O     4.28663  4.28663  0.00000 -0.57327
       2     C     2.60486  2.60486  0.00000  0.79028
       3     C     3.20708  3.20708  0.00000 -0.41416
       4     O     4.30584  4.30584  0.00000 -0.61169
       5     C     3.15664  3.15664  0.00000 -0.31328
       6     H     0.40071  0.40071  0.00000  0.19857
       7     H     0.40081  0.40081  0.00000  0.19838
       8     C     3.24217  3.24217  0.00000 -0.48434
       9     H     0.41645  0.41645  0.00000  0.16709
      10     H     0.40338  0.40338  0.00000  0.19325
      11     H     0.42091  0.42091  0.00000  0.15819
      12     H     0.41514  0.41514  0.00000  0.16972
      13     H     0.42042  0.42042  0.00000  0.15915
      14     C     3.09334  3.09334  0.00000 -0.18668
      15     H     0.40834  0.40834  0.00000  0.18332
      16     H     0.40831  0.40831  0.00000  0.18338
      17     H     0.40896  0.40896  0.00000  0.18208

   Total alpha = 28.00000, Total beta = 28.00000, Total charge = -0.00000
