  ==> Input File <==

--------------------------------------------------------------------------
set {
	reference rhf
	basis 6-31G*
}

set_num_threads( 1 )
memory 2 gb

molecule MOL {
0 1

O	 1.846825	 1.296220	 0.000415
C	 1.705091	 0.115954	 0.001797
C	 0.381791	 -0.609817	 0.001258
O	 2.721346	 -0.737485	 -0.000216
C	 -0.823008	 0.326187	 0.001381
H	 0.371250	 -1.265087	 -0.865474
H	 0.370908	 -1.265746	 0.867490
C	 -2.112910	 -0.388042	 -0.404932
H	 -0.631993	 1.154969	 -0.673025
H	 -0.937601	 0.761478	 0.989156
C	 -3.331599	 0.536415	 -0.411025
H	 -1.990387	 -0.825423	 -1.394721
H	 -2.297666	 -1.219472	 0.273647
C	 -4.620340	 -0.178062	 -0.815897
H	 -3.149661	 1.366171	 -1.090396
H	 -3.455832	 0.973426	 0.577269
H	 -4.539599	 -0.596727	 -1.815104
H	 -5.465616	 0.503062	 -0.810443
H	 -4.847962	 -0.992948	 -0.134385
C	 4.024888	 -0.184556	 -0.001949
H	 4.179030	 0.422472	 -0.882452
H	 4.701782	 -1.024608	 -0.003642
H	 4.181981	 0.421185	 0.878906

	symmetry c1
}
set optking {
	frozen_dihedral = ("
		15 11 8 12,
		9 5 8 12,
		1 2 3 6,
		1 2 4 20
	")
}

ee = energy('scf')
oeprop('DIPOLE', 'QUADRUPOLE', 'MULLIKEN_CHARGES')
f=open( 'psi4out.xyz', 'w' )
f.write( "23  " )
f.write( str(ee) + "\n" )
f.write( MOL.save_string_xyz() )
f.close()
--------------------------------------------------------------------------

    Molecular point group: c1

    Geometry (in Angstrom), charge = 0, multiplicity = 1:

       Center              X                  Y                   Z               Mass
    ------------   -----------------  -----------------  -----------------  -----------------
           O          1.830396264941     1.275050042387     0.182309379790    15.994914619560
           C          1.688662264941     0.094784042387     0.183691379790    12.000000000000
           C          0.365362264941    -0.630986957613     0.183152379790    12.000000000000
           O          2.704917264941    -0.758654957613     0.181678379790    15.994914619560
           C         -0.839436735059     0.305017042387     0.183275379790    12.000000000000
           H          0.354821264941    -1.286256957613    -0.683579620210     1.007825032070
           H          0.354479264941    -1.286915957613     1.049384379790     1.007825032070
           C         -2.129338735059    -0.409211957613    -0.223037620210    12.000000000000
           H         -0.648421735059     1.133799042387    -0.491130620210     1.007825032070
           H         -0.954029735059     0.740308042387     1.171050379790     1.007825032070
           C         -3.348027735059     0.515245042387    -0.229130620210    12.000000000000
           H         -2.006815735059    -0.846592957613    -1.212826620210     1.007825032070
           H         -2.314094735059    -1.240641957613     0.455541379790     1.007825032070
           C         -4.636768735059    -0.199231957613    -0.634002620210    12.000000000000
           H         -3.166089735059     1.345001042387    -0.908501620210     1.007825032070
           H         -3.472260735059     0.952256042387     0.759163379790     1.007825032070
           H         -4.556027735059    -0.617896957613    -1.633209620210     1.007825032070
           H         -5.482044735059     0.481892042387    -0.628548620210     1.007825032070
           H         -4.864390735059    -1.014117957613     0.047509379790     1.007825032070
           C          4.008459264941    -0.205725957613     0.179945379790    12.000000000000
           H          4.162601264941     0.401302042387    -0.700557620210     1.007825032070
           H          4.685353264941    -1.045777957613     0.178252379790     1.007825032070
           H          4.165552264941     0.400015042387     1.060800379790     1.007825032070

  Charge       = 0
  Multiplicity = 1
  Basis Set: 6-31G*
  Basis Set:

    Orbital Energies (a.u.)
    -----------------------

    Doubly Occupied:

       1A    -20.603738     2A    -20.545563     3A    -11.372400
       4A    -11.280884     5A    -11.235266     6A    -11.218524
       7A    -11.217649     8A    -11.216228     9A    -11.209451
      10A     -1.469448    11A     -1.362944    12A     -1.093009
      13A     -1.043508    14A     -0.986988    15A     -0.931961
      16A     -0.843451    17A     -0.795059    18A     -0.767220
      19A     -0.697771    20A     -0.683389    21A     -0.671706
      22A     -0.650884    23A     -0.609588    24A     -0.599516
      25A     -0.572337    26A     -0.557902    27A     -0.557043
      28A     -0.524135    29A     -0.521984    30A     -0.506401
      31A     -0.484276    32A     -0.469607    33A     -0.465569
      34A     -0.460661    35A     -0.455825    36A     -0.435839

  @DF-RHF Final Energy:  -422.97541441900904

   => Energetics <=

    Nuclear Repulsion Energy =            452.4275655167840000
    One-Electron Energy =               -1472.5705270802870928
    Two-Electron Energy =                 597.1675471444946197
    DFT Exchange-Correlation Energy =       0.0000000000000000
    Empirical Dispersion Energy =           0.0000000000000000
    PCM Polarization Energy =               0.0000000000000000
    EFP Energy =                            0.0000000000000000
    Total Energy =                       -422.9754144190085299

  Mulliken Charges: (a.u.)
   Center  Symbol    Alpha    Beta     Spin     Total
       1     O     4.28575  4.28575  0.00000 -0.57150
       2     C     2.60623  2.60623  0.00000  0.78754
       3     C     3.20862  3.20862  0.00000 -0.41725
       4     O     4.30704  4.30704  0.00000 -0.61407
       5     C     3.15400  3.15400  0.00000 -0.30799
       6     H     0.40049  0.40049  0.00000  0.19902
       7     H     0.39979  0.39979  0.00000  0.20042
       8     C     3.15391  3.15391  0.00000 -0.30782
       9     H     0.40594  0.40594  0.00000  0.18812
      10     H     0.41522  0.41522  0.00000  0.16956
      11     C     3.15170  3.15170  0.00000 -0.30340
      12     H     0.42357  0.42357  0.00000  0.15287
      13     H     0.42434  0.42434  0.00000  0.15132
      14     C     3.23955  3.23955  0.00000 -0.47909
      15     H     0.42090  0.42090  0.00000  0.15820
      16     H     0.42180  0.42180  0.00000  0.15640
      17     H     0.42177  0.42177  0.00000  0.15646
      18     H     0.41853  0.41853  0.00000  0.16294
      19     H     0.42191  0.42191  0.00000  0.15618
      20     C     3.09240  3.09240  0.00000 -0.18480
      21     H     0.40907  0.40907  0.00000  0.18187
      22     H     0.40842  0.40842  0.00000  0.18316
      23     H     0.40906  0.40906  0.00000  0.18187

   Total alpha = 36.00000, Total beta = 36.00000, Total charge = -0.00000
