  ==> Input File <==

--------------------------------------------------------------------------
set {
	reference rhf
	basis 6-31G*
}

set_num_threads( 4 )
memory 2 gb

molecule MOL {
0 1

H	 -2.098997	 -0.674324	 -0.616650
O	 -2.035884	 -0.060112	 0.102722
C	 -0.955155	 0.788182	 -0.092531
C	 0.353668	 0.040312	 -0.004810
H	 -0.985057	 1.290372	 -1.054184
H	 -0.974469	 1.533190	 0.688632
F	 0.450238	 -0.598359	 1.155942
F	 0.435990	 -0.863039	 -0.968334
F	 1.397893	 0.837121	 -0.106002

	symmetry c1
}
set optking {
	frozen_dihedral = ("
		7 4 3 5
	")
}

ee = optimize('scf')
oeprop('DIPOLE', 'QUADRUPOLE', 'MULLIKEN_CHARGES')
f=open( 'psi4out.xyz', 'w' )
f.write( "9  " )
f.write( str(ee) + "\n" )
f.write( MOL.save_string_xyz() )
f.close()
--------------------------------------------------------------------------

    Molecular point group: c1
  Charge       = 0
  Multiplicity = 1
  Basis Set: 6-31G*
  Basis Set:
  @DF-RHF Final Energy:  -450.66224866392463
    Total Energy =                       -450.6622486639245153
    Molecular point group: c1
  Basis Set: 6-31G*
  Basis Set:
  Basis Set: 6-31G*
  Basis Set:
  @DF-RHF Final Energy:  -450.66260937012180
    Total Energy =                       -450.6626093701217997
  Basis Set: 6-31G*
  Basis Set:
  Basis Set: 6-31G*
  Basis Set:
  @DF-RHF Final Energy:  -450.66266834908521
    Total Energy =                       -450.6626683490852088
  Basis Set: 6-31G*
  Basis Set:
  Basis Set: 6-31G*
  Basis Set:
  @DF-RHF Final Energy:  -450.66267214726815
    Total Energy =                       -450.6626721472681538
  Basis Set: 6-31G*
  Basis Set:
  Charge       = 0
  Multiplicity = 1
  Basis Set: 6-31G*
  Basis Set:

    Orbital Energies (a.u.)
    -----------------------

    Doubly Occupied:

       1A    -26.343747     2A    -26.342662     3A    -26.338895
       4A    -20.590359     5A    -11.499852     6A    -11.309833
       7A     -1.739890     8A     -1.639023     9A     -1.636145
      10A     -1.402320    11A     -1.047993    12A     -0.923456
      13A     -0.830037    14A     -0.828707    15A     -0.804899
      16A     -0.727616    17A     -0.711634    18A     -0.696692
      19A     -0.664427    20A     -0.658451    21A     -0.642265
      22A     -0.628857    23A     -0.614018    24A     -0.531413
      25A     -0.480357

  @DF-RHF Final Energy:  -450.66267286533446

   => Energetics <=

    Nuclear Repulsion Energy =            277.1066509182788877
    One-Electron Energy =               -1176.2715535225022450
    Two-Electron Energy =                 448.5022297388889001
    DFT Exchange-Correlation Energy =       0.0000000000000000
    Empirical Dispersion Energy =           0.0000000000000000
    PCM Polarization Energy =               0.0000000000000000
    EFP Energy =                            0.0000000000000000
    Total Energy =                       -450.6626728653344571
    Molecular point group: c1
  Basis Set: 6-31G*
  Basis Set:

  -Total Gradient:
     Atom            X                  Y                   Z
    ------   -----------------  -----------------  -----------------
       1        0.000000049640    -0.000011531414    -0.000006458122
       2       -0.000000832844     0.000022089008    -0.000016039789
       3        0.000676513826     0.001246418675     0.000664884310
       4        0.000659748306     0.001256385231     0.000597290442
       5       -0.000725784785    -0.001361585940    -0.000659465785
       6        0.000001812047     0.000008275585     0.000002001240
       7       -0.000617565429    -0.001128668695    -0.000574071959
       8        0.000017771082    -0.000008496363    -0.000007805303
       9       -0.000011711838    -0.000022886084    -0.000000335034

  **** Optimization is complete! (in 5 steps) ****
    Final optimized geometry and variables:
    Molecular point group: c1

    Geometry (in Angstrom), charge = 0, multiplicity = 1:

    H           -2.102889432727    -0.652397463402    -0.642289068710
    O           -2.035396712634    -0.048304768088     0.085347571157
    C           -0.948574866103     0.796041395670    -0.098392597175
    C            0.354679035694     0.039711762863    -0.000338720783
    H           -0.970312872874     1.288928715818    -1.064846272092
    H           -0.973287755970     1.542441741749     0.681059346282
    F            0.481820579960    -0.599070569867     1.144232062132
    F            0.439630979280    -0.866558509044    -0.969152736708
    F            1.381947313840     0.862818903034    -0.130141139628

  Mulliken Charges: (a.u.)
   Center  Symbol    Alpha    Beta     Spin     Total
       1     H     0.27278  0.27278  0.00000  0.45445
       2     O     4.36155  4.36155  0.00000 -0.72310
       3     C     3.05249  3.05249  0.00000 -0.10498
       4     C     2.46538  2.46538  0.00000  1.06924
       5     H     0.40965  0.40965  0.00000  0.18069
       6     H     0.39557  0.39557  0.00000  0.20887
       7     F     4.67464  4.67464  0.00000 -0.34927
       8     F     4.68668  4.68668  0.00000 -0.37336
       9     F     4.68126  4.68126  0.00000 -0.36253

   Total alpha = 25.00000, Total beta = 25.00000, Total charge =  0.00000
