  ==> Input File <==

--------------------------------------------------------------------------
set {
	reference rhf
	basis 6-31G*
}

set_num_threads( 4 )
memory 2 gb

molecule MOL {
0 1

H	 -4.031818	 -0.453427	 -0.000094
C	 -2.967712	 -0.297022	 -0.000064
C	 -2.458620	 0.992929	 0.000032
C	 -2.109895	 -1.385637	 -0.000122
H	 -3.124998	 1.836319	 0.000077
C	 -1.090278	 1.193236	 0.000070
H	 -2.506361	 -2.384847	 -0.000198
C	 -0.739812	 -1.187531	 -0.000085
H	 -0.678594	 2.184290	 0.000146
C	 -0.226438	 0.104061	 0.000012
H	 -0.072310	 -2.027032	 -0.000131
C	 1.239129	 0.373821	 0.000060
O	 1.580668	 1.385859	 0.783471
O	 2.030690	 -0.249905	 -0.634965
C	 2.957876	 1.711976	 0.843615
H	 3.529134	 0.874151	 1.215783
H	 3.032471	 2.547768	 1.521656
H	 3.324481	 1.987645	 -0.134407

	symmetry c1
}
set optking {
	frozen_dihedral = ("
		13 12 10 6
	")
}

ee = optimize('scf')
oeprop('DIPOLE', 'QUADRUPOLE', 'MULLIKEN_CHARGES')
f=open( 'psi4out.xyz', 'w' )
f.write( "18  " )
f.write( str(ee) + "\n" )
f.write( MOL.save_string_xyz() )
f.close()
--------------------------------------------------------------------------

    Molecular point group: c1
  Charge       = 0
  Multiplicity = 1
  Basis Set: 6-31G*
  Basis Set:
  @DF-RHF Final Energy:  -457.34534205902452
    Total Energy =                       -457.3453420590242331
    Molecular point group: c1
  Basis Set: 6-31G*
  Basis Set:
  Basis Set: 6-31G*
  Basis Set:
  @DF-RHF Final Energy:  -457.34587134412305
    Total Energy =                       -457.3458713441232248
  Basis Set: 6-31G*
  Basis Set:
  Basis Set: 6-31G*
  Basis Set:
  @DF-RHF Final Energy:  -457.34664821587944
    Total Energy =                       -457.3466482158793269
  Basis Set: 6-31G*
  Basis Set:
  Basis Set: 6-31G*
  Basis Set:
  @DF-RHF Final Energy:  -457.34679558801491
    Total Energy =                       -457.3467955880151976
  Basis Set: 6-31G*
  Basis Set:
  Basis Set: 6-31G*
  Basis Set:
  @DF-RHF Final Energy:  -457.34679710597629
    Total Energy =                       -457.3467971059762931
  Basis Set: 6-31G*
  Basis Set:
  Charge       = 0
  Multiplicity = 1
  Basis Set: 6-31G*
  Basis Set:

    Orbital Energies (a.u.)
    -----------------------

    Doubly Occupied:

       1A    -20.608617     2A    -20.546695     3A    -11.378469
       4A    -11.283149     5A    -11.247393     6A    -11.244789
       7A    -11.243634     8A    -11.242665     9A    -11.238463
      10A    -11.237764    11A     -1.473432    12A     -1.365381
      13A     -1.165974    14A     -1.048539    15A     -1.025365
      16A     -0.978821    17A     -0.860075    18A     -0.836146
      19A     -0.778726    20A     -0.738467    21A     -0.683965
      22A     -0.677872    23A     -0.674223    24A     -0.630438
      25A     -0.626800    26A     -0.597432    27A     -0.588127
      28A     -0.555771    29A     -0.532404    30A     -0.516425
      31A     -0.504998    32A     -0.501073    33A     -0.458593
      34A     -0.445093    35A     -0.343943    36A     -0.341576

  @DF-RHF Final Energy:  -457.34679682109606

   => Energetics <=

    Nuclear Repulsion Energy =            492.5385939193895410
    One-Electron Energy =               -1599.3281832990442126
    Two-Electron Energy =                 649.4427925585588355
    DFT Exchange-Correlation Energy =       0.0000000000000000
    Empirical Dispersion Energy =           0.0000000000000000
    PCM Polarization Energy =               0.0000000000000000
    EFP Energy =                            0.0000000000000000
    Total Energy =                       -457.3467968210958361
    Molecular point group: c1
  Basis Set: 6-31G*
  Basis Set:

  -Total Gradient:
     Atom            X                  Y                   Z
    ------   -----------------  -----------------  -----------------
       1        0.000002751305     0.000014403160     0.000005898593
       2        0.000015021721    -0.000196770399     0.000072991714
       3        0.000180344255     0.000146281002    -0.000233686511
       4       -0.000209602108     0.000129827509    -0.000000327762
       5       -0.000034087628    -0.000004750378     0.000025505326
       6       -0.000034321273    -0.000258431917    -0.004667070938
       7        0.000028107076     0.000010401162    -0.000011387862
       8       -0.000027851996    -0.000106236913     0.000087489192
       9       -0.000035922379    -0.000022203960    -0.000004110280
      10        0.000274801716    -0.000737853923     0.008463563849
      11        0.000030328775    -0.000057518953    -0.000023694190
      12       -0.000755817296     0.004098192015    -0.007556735671
      13        0.000474044036    -0.002954722890     0.003830339548
      14        0.000080775490    -0.000071666814     0.000067218766
      15        0.000013496110     0.000035098732    -0.000083905015
      16       -0.000022443614    -0.000014366130    -0.000003048199
      17       -0.000010993392    -0.000014717743     0.000015900605
      18        0.000031369204     0.000005036441     0.000015058834

  **** Optimization is complete! (in 6 steps) ****
    Final optimized geometry and variables:
    Molecular point group: c1

    Geometry (in Angstrom), charge = 0, multiplicity = 1:

    H           -3.973469696677    -0.792876398560    -0.197120616590
    C           -2.914005143188    -0.612201718902    -0.160477527600
    C           -2.435412141525     0.688212011772    -0.133230702847
    C           -2.030145138104    -1.680352763396    -0.149142008345
    H           -3.120917218441     1.515997458919    -0.155298629054
    C           -1.072194893607     0.922388587694    -0.075357705451
    H           -2.401584642233    -2.688644537286    -0.178317239743
    C           -0.666585754117    -1.448077018244    -0.115820762604
    H           -0.697141330848     1.928045139143    -0.042428449682
    C           -0.186070336190    -0.146410133071    -0.052825030446
    H            0.029370726405    -2.265627584616    -0.138512177370
    C            1.289108178561     0.070990950877    -0.086101605468
    O            1.668471147639     1.099261010073     0.657633014225
    O            2.052748473725    -0.627009081149    -0.674293373566
    C            3.053778424917     1.396430752327     0.679899537398
    H            3.611445086278     0.561716111144     1.078572410595
    H            3.158884025769     2.258097821596     1.320273823053
    H            3.411006892041     1.621165748181    -0.314757595853

  Mulliken Charges: (a.u.)
   Center  Symbol    Alpha    Beta     Spin     Total
       1     H     0.39574  0.39574  0.00000  0.20852
       2     C     3.09229  3.09229  0.00000 -0.18459
       3     C     3.10476  3.10476  0.00000 -0.20951
       4     C     3.10521  3.10521  0.00000 -0.21042
       5     H     0.39613  0.39613  0.00000  0.20774
       6     C     3.09154  3.09154  0.00000 -0.18308
       7     H     0.39542  0.39542  0.00000  0.20916
       8     C     3.09041  3.09041  0.00000 -0.18081
       9     H     0.38555  0.38555  0.00000  0.22891
      10     C     3.04327  3.04327  0.00000 -0.08653
      11     H     0.38132  0.38132  0.00000  0.23736
      12     C     2.61162  2.61162  0.00000  0.77675
      13     O     4.30434  4.30434  0.00000 -0.60867
      14     O     4.28603  4.28603  0.00000 -0.57206
      15     C     3.09365  3.09365  0.00000 -0.18730
      16     H     0.40704  0.40704  0.00000  0.18592
      17     H     0.40727  0.40727  0.00000  0.18546
      18     H     0.40841  0.40841  0.00000  0.18317

   Total alpha = 36.00000, Total beta = 36.00000, Total charge = -0.00000
