  ==> Input File <==

--------------------------------------------------------------------------
set {
	reference rhf
	basis 6-31G*
}

set_num_threads( 4 )
memory 2 gb

molecule MOL {
0 1

H	 -2.499100	 -0.730091	 -0.745082
O	 -2.347518	 -0.290803	 0.079804
C	 -1.184022	 0.487508	 -0.006784
C	 0.062599	 -0.378592	 0.031606
H	 -1.176523	 1.099369	 -0.904519
H	 -1.187323	 1.153111	 0.844927
O	 1.171513	 0.459272	 -0.058250
H	 0.050699	 -1.089204	 -0.797170
H	 0.078739	 -0.954914	 0.954740
C	 1.742183	 0.527642	 -1.326636
H	 1.035664	 0.910557	 -2.060690
H	 2.586647	 1.200306	 -1.269121
H	 2.090035	 -0.448310	 -1.658762

	symmetry c1
}
set optking {
	frozen_dihedral = ("
		10 7 4 8
	")
}

ee = optimize('scf')
oeprop('DIPOLE', 'QUADRUPOLE', 'MULLIKEN_CHARGES')
f=open( 'psi4out.xyz', 'w' )
f.write( "13  " )
f.write( str(ee) + "\n" )
f.write( MOL.save_string_xyz() )
f.close()
--------------------------------------------------------------------------

    Molecular point group: c1
  Charge       = 0
  Multiplicity = 1
  Basis Set: 6-31G*
  Basis Set:
  @DF-RHF Final Energy:  -267.94629873259629
    Total Energy =                       -267.9462987325965173
    Molecular point group: c1
  Basis Set: 6-31G*
  Basis Set:
  Basis Set: 6-31G*
  Basis Set:
  @DF-RHF Final Energy:  -267.94695455394822
    Total Energy =                       -267.9469545539481601
  Basis Set: 6-31G*
  Basis Set:
  Basis Set: 6-31G*
  Basis Set:
  @DF-RHF Final Energy:  -267.94714444849330
    Total Energy =                       -267.9471444484933613
  Basis Set: 6-31G*
  Basis Set:
  Basis Set: 6-31G*
  Basis Set:
  @DF-RHF Final Energy:  -267.94714640843608
    Total Energy =                       -267.9471464084360832
  Basis Set: 6-31G*
  Basis Set:
  Charge       = 0
  Multiplicity = 1
  Basis Set: 6-31G*
  Basis Set:

    Orbital Energies (a.u.)
    -----------------------

    Doubly Occupied:

       1A    -20.561314     2A    -20.560908     3A    -11.272467
       4A    -11.271231     5A    -11.269539     6A     -1.385677
       7A     -1.365740     8A     -1.015850     9A     -0.922623
      10A     -0.839811    11A     -0.710318    12A     -0.669104
      13A     -0.661495    14A     -0.640595    15A     -0.590827
      16A     -0.576871    17A     -0.544395    18A     -0.490285
      19A     -0.474365    20A     -0.466069    21A     -0.405337

  @DF-RHF Final Energy:  -267.94714649891790

   => Energetics <=

    Nuclear Repulsion Energy =            191.2720119226497104
    One-Electron Energy =                -745.0486790361314888
    Two-Electron Energy =                 285.8295206145640464
    DFT Exchange-Correlation Energy =       0.0000000000000000
    Empirical Dispersion Energy =           0.0000000000000000
    PCM Polarization Energy =               0.0000000000000000
    EFP Energy =                            0.0000000000000000
    Total Energy =                       -267.9471464989177889
    Molecular point group: c1
  Basis Set: 6-31G*
  Basis Set:

  -Total Gradient:
     Atom            X                  Y                   Z
    ------   -----------------  -----------------  -----------------
       1       -0.000000293309     0.000003018374     0.000001465939
       2        0.000015605026     0.000007665840    -0.000002135298
       3       -0.000005262799    -0.000005120932     0.000002888692
       4        0.000786168078    -0.001035962469     0.000687802631
       5       -0.000003897661     0.000001321433     0.000001958385
       6       -0.000006123291     0.000008120242     0.000000485719
       7       -0.000741585411     0.001001392040    -0.000346072254
       8       -0.000460861020     0.000596988039    -0.000500958006
       9        0.000004768013     0.000006550649     0.000000119969
      10        0.000408933425    -0.000581716771     0.000162669455
      11        0.000005651210    -0.000000302969    -0.000007296949
      12       -0.000003898127    -0.000003038747     0.000000370825
      13        0.000000795871     0.000001085271    -0.000001299111

  **** Optimization is complete! (in 5 steps) ****
    Final optimized geometry and variables:
    Molecular point group: c1

    Geometry (in Angstrom), charge = 0, multiplicity = 1:

    H           -2.392202801357    -0.905941201006    -0.417036385766
    O           -2.231493450805    -0.447188794609     0.395507496632
    C           -1.077504361187     0.341315221376     0.275510319279
    C            0.183195911864    -0.512540354763     0.275538694572
    H           -1.112322836702     0.961282372597    -0.617799565631
    H           -1.060707204884     1.003334177669     1.129839548593
    O            1.321838240273     0.296905896930     0.197989184261
    H            0.150621354723    -1.220553821394    -0.551726861440
    H            0.230924675592    -1.082099675378     1.195348608108
    C            1.928184819583     0.374181279623    -1.054865316589
    H            1.247179509331     0.750173680373    -1.815619971311
    H            2.761127772778     1.058196718136    -0.968953985202
    H            2.302079021366    -0.595857670767    -1.374419998286

  Mulliken Charges: (a.u.)
   Center  Symbol    Alpha    Beta     Spin     Total
       1     H     0.28182  0.28182  0.00000  0.43637
       2     O     4.36974  4.36974  0.00000 -0.73949
       3     C     3.00432  3.00432  0.00000 -0.00863
       4     C     3.00430  3.00430  0.00000 -0.00860
       5     H     0.42929  0.42929  0.00000  0.14141
       6     H     0.40775  0.40775  0.00000  0.18450
       7     O     4.30766  4.30766  0.00000 -0.61532
       8     H     0.43635  0.43635  0.00000  0.12730
       9     H     0.40929  0.40929  0.00000  0.18141
      10     C     3.08056  3.08056  0.00000 -0.16111
      11     H     0.43163  0.43163  0.00000  0.13673
      12     H     0.41025  0.41025  0.00000  0.17950
      13     H     0.42703  0.42703  0.00000  0.14594

   Total alpha = 21.00000, Total beta = 21.00000, Total charge = -0.00000
