  ==> Input File <==

--------------------------------------------------------------------------
set {
	reference rhf
	basis 6-31G*
}

set_num_threads( 4 )
memory 2 gb

molecule MOL {
0 1

O	 2.862325	 1.357334	 0.000267
C	 2.843464	 0.164689	 -0.000222
C	 1.546494	 -0.624492	 -0.000609
C	 4.124123	 -0.644674	 -0.000428
C	 0.291004	 0.242674	 0.000989
H	 1.557904	 -1.283758	 -0.867573
H	 1.558622	 -1.285963	 0.864672
C	 -0.994322	 -0.586602	 0.000262
H	 0.309117	 0.896430	 -0.865270
H	 0.309661	 0.894078	 0.869017
C	 -2.259874	 0.272531	 0.000494
H	 -1.004862	 -1.240012	 -0.870939
H	 -1.005220	 -1.241071	 0.870675
C	 -3.326317	 -0.220828	 0.979937
H	 -2.678387	 0.296251	 -1.004147
H	 -1.996523	 1.300303	 0.244067
C	 -4.587525	 0.642310	 0.974250
H	 -3.591244	 -1.247709	 0.736724
H	 -2.909608	 -0.243537	 1.984774
H	 -5.047399	 0.657857	 -0.009835
H	 -5.324561	 0.267291	 1.677699
H	 -4.361146	 1.668885	 1.248185
H	 4.165367	 -1.288615	 -0.874074
H	 4.976217	 0.020734	 -0.001915
H	 4.166763	 -1.286207	 0.874930

	symmetry c1
}
set optking {
	frozen_dihedral = ("
		15 11 8 12
	")
}

ee = optimize('scf')
oeprop('DIPOLE', 'QUADRUPOLE', 'MULLIKEN_CHARGES')
f=open( 'psi4out.xyz', 'w' )
f.write( "25  " )
f.write( str(ee) + "\n" )
f.write( MOL.save_string_xyz() )
f.close()
--------------------------------------------------------------------------

    Molecular point group: c1
  Charge       = 0
  Multiplicity = 1
  Basis Set: 6-31G*
  Basis Set:
  @DF-RHF Final Energy:  -387.13187210289226
    Total Energy =                       -387.1318721028912933
    Molecular point group: c1
  Basis Set: 6-31G*
  Basis Set:
  Basis Set: 6-31G*
  Basis Set:
  @DF-RHF Final Energy:  -387.13209723041234
    Total Energy =                       -387.1320972304126826
  Basis Set: 6-31G*
  Basis Set:
  Basis Set: 6-31G*
  Basis Set:
  @DF-RHF Final Energy:  -387.13216357222234
    Total Energy =                       -387.1321635722215433
  Basis Set: 6-31G*
  Basis Set:
  Basis Set: 6-31G*
  Basis Set:
  @DF-RHF Final Energy:  -387.13202168858373
    Total Energy =                       -387.1320216885840182
  Basis Set: 6-31G*
  Basis Set:
  Basis Set: 6-31G*
  Basis Set:
  @DF-RHF Final Energy:  -387.13218886597696
    Total Energy =                       -387.1321888659767865
  Basis Set: 6-31G*
  Basis Set:
  Charge       = 0
  Multiplicity = 1
  Basis Set: 6-31G*
  Basis Set:

    Orbital Energies (a.u.)
    -----------------------

    Doubly Occupied:

       1A    -20.550411     2A    -11.326285     3A    -11.231634
       4A    -11.228307     5A    -11.217065     6A    -11.216439
       7A    -11.215301     8A    -11.213312     9A    -11.207913
      10A     -1.395719    11A     -1.092224    12A     -1.055788
      13A     -1.014159    14A     -0.968000    15A     -0.890781
      16A     -0.815344    17A     -0.790008    18A     -0.730166
      19A     -0.656974    20A     -0.651787    21A     -0.633654
      22A     -0.621843    23A     -0.599465    24A     -0.582291
      25A     -0.565504    26A     -0.562247    27A     -0.538584
      28A     -0.529558    29A     -0.510443    30A     -0.489262
      31A     -0.485973    32A     -0.477359    33A     -0.464219
      34A     -0.456891    35A     -0.448799    36A     -0.399256

  @DF-RHF Final Energy:  -387.13218897563831

   => Energetics <=

    Nuclear Repulsion Energy =            438.9319395669343749
    One-Electron Energy =               -1394.4623279422585256
    Two-Electron Energy =                 568.3981993996860638
    DFT Exchange-Correlation Energy =       0.0000000000000000
    Empirical Dispersion Energy =           0.0000000000000000
    PCM Polarization Energy =               0.0000000000000000
    EFP Energy =                            0.0000000000000000
    Total Energy =                       -387.1321889756380870
    Molecular point group: c1
  Basis Set: 6-31G*
  Basis Set:

  -Total Gradient:
     Atom            X                  Y                   Z
    ------   -----------------  -----------------  -----------------
       1       -0.000001269823    -0.000001859371    -0.000014911214
       2        0.000004257161    -0.000003112299     0.000042791564
       3        0.000002302885    -0.000005497535    -0.000015623710
       4        0.000000745250     0.000001449265    -0.000021516892
       5       -0.000015662867     0.000000775324     0.000011244901
       6        0.000000911489    -0.000001211900    -0.000000278707
       7        0.000005215245     0.000000798746    -0.000000905604
       8       -0.002408636723    -0.003496007888     0.002330235292
       9       -0.000005911804     0.000010044638     0.000002533277
      10        0.000005318679    -0.000002482044     0.000000340082
      11        0.002646629748     0.003861779891    -0.001276066075
      12        0.001608183433     0.002320609832    -0.001757154987
      13       -0.000012184955     0.000018535653     0.000004107581
      14        0.000014588488    -0.000006315550    -0.000012064962
      15       -0.001845039659    -0.002688502824     0.000687523802
      16        0.000010418521    -0.000014996671     0.000003032729
      17       -0.000006359484     0.000010584057     0.000006988658
      18        0.000001595527    -0.000004716502     0.000001138288
      19       -0.000001042258    -0.000002391294     0.000001733647
      20        0.000003852136    -0.000000434730     0.000001946140
      21       -0.000002468905     0.000001076728     0.000000774386
      22       -0.000005099540     0.000002205585    -0.000000947748
      23        0.000001512754    -0.000002507922     0.000002415954
      24        0.000000146551     0.000000142508     0.000000029174
      25       -0.000002001862     0.000002034304     0.000002634424

  **** Optimization is complete! (in 6 steps) ****
    Final optimized geometry and variables:
    Molecular point group: c1

    Geometry (in Angstrom), charge = 0, multiplicity = 1:

    O            2.828211729785     1.276505048530    -0.223811412331
    C            2.804693020681     0.084006234332    -0.235704345380
    C            1.504809031945    -0.700347389952    -0.221064278166
    C            4.082006982757    -0.730026709595    -0.266696839859
    C            0.252979384859     0.170987459638    -0.190668742407
    H            1.499318635105    -1.352332349869    -1.093623799927
    H            1.528926915279    -1.369438464348     0.638243735861
    C           -1.037515712122    -0.653355303927    -0.168441329420
    H            0.254909949819     0.828713879518    -1.054413266522
    H            0.290124852418     0.818846753161     0.679454681762
    C           -2.308403899569     0.219809910056    -0.186248364604
    H           -1.036945443914    -1.311227739886    -1.034498515357
    H           -1.037699114246    -1.293135195674     0.711205107286
    C           -3.402911869493    -0.286595023455     0.757905277364
    H           -2.718414204485     0.244999943510    -1.192863286752
    H           -2.060833194378     1.244926947700     0.077762413633
    C           -4.676654081608     0.555348106386     0.703309394173
    H           -3.641027264934    -1.319389280875     0.510849142658
    H           -3.020138871519    -0.297849888142     1.776394116815
    H           -5.105144430927     0.554365160369    -0.295062679930
    H           -5.429927654872     0.175189031659     1.386529260203
    H           -4.475512081338     1.588086283407     0.974102186178
    H            4.105634695776    -1.364628876343    -1.147798381334
    H            4.936540457378    -0.067822346658    -0.275838405487
    H            4.137270766670    -1.381158372427     0.600843261586

  Mulliken Charges: (a.u.)
   Center  Symbol    Alpha    Beta     Spin     Total
       1     O     4.26116  4.26116  0.00000 -0.52233
       2     C     2.73563  2.73563  0.00000  0.52874
       3     C     3.21130  3.21130  0.00000 -0.42260
       4     C     3.28665  3.28665  0.00000 -0.57331
       5     C     3.15020  3.15020  0.00000 -0.30041
       6     H     0.41015  0.41015  0.00000  0.17969
       7     H     0.41005  0.41005  0.00000  0.17991
       8     C     3.15579  3.15579  0.00000 -0.31158
       9     H     0.41189  0.41189  0.00000  0.17621
      10     H     0.41223  0.41223  0.00000  0.17554
      11     C     3.15313  3.15313  0.00000 -0.30626
      12     H     0.42292  0.42292  0.00000  0.15416
      13     H     0.42242  0.42242  0.00000  0.15515
      14     C     3.15331  3.15331  0.00000 -0.30662
      15     H     0.42148  0.42148  0.00000  0.15704
      16     H     0.41866  0.41866  0.00000  0.16268
      17     C     3.24000  3.24000  0.00000 -0.48001
      18     H     0.42341  0.42341  0.00000  0.15318
      19     H     0.42330  0.42330  0.00000  0.15340
      20     H     0.42187  0.42187  0.00000  0.15626
      21     H     0.41947  0.41947  0.00000  0.16107
      22     H     0.42102  0.42102  0.00000  0.15797
      23     H     0.40874  0.40874  0.00000  0.18252
      24     H     0.39648  0.39648  0.00000  0.20704
      25     H     0.40873  0.40873  0.00000  0.18255

   Total alpha = 36.00000, Total beta = 36.00000, Total charge =  0.00000
