  ==> Input File <==

--------------------------------------------------------------------------
set {
	reference rhf
	basis 6-31G*
}

set_num_threads( 4 )
memory 2 gb

molecule MOL {
0 1

H	 3.037589	 3.007092	 -3.854658
C	 3.300940	 2.473319	 -2.946774
C	 2.105947	 2.370970	 -1.999835
H	 3.655861	 1.487878	 -3.233617
H	 4.128771	 3.001091	 -2.480993
C	 2.445094	 1.629045	 -0.705099
H	 1.290922	 1.862929	 -2.505038
H	 1.751697	 3.371966	 -1.758575
C	 1.272806	 1.526557	 0.270864
H	 2.796610	 0.630483	 -0.939519
H	 3.262478	 2.143301	 -0.204633
C	 0.169600	 0.576866	 -0.172154
H	 1.627207	 1.162082	 1.233843
H	 0.843911	 2.506651	 0.467439
C	 -1.181045	 0.701995	 0.511084
O	 0.356728	 -0.251084	 -1.012325
C	 -2.285934	 -0.139295	 -0.145128
H	 -1.449051	 1.751551	 0.493206
H	 -1.071135	 0.403303	 1.551943
C	 -3.651768	 0.085446	 0.506485
H	 -2.346596	 0.110469	 -1.202272
H	 -2.034737	 -1.195320	 -0.088721
C	 -4.759797	 -0.746382	 -0.137905
H	 -3.908762	 1.140117	 0.445781
H	 -3.588286	 -0.154158	 1.565709
H	 -4.868882	 -0.505166	 -1.191300
H	 -4.548009	 -1.809175	 -0.062213
H	 -5.715422	 -0.564821	 0.343442

	symmetry c1
}
set optking {
	frozen_dihedral = ("
		16 12 15 17
	")
}

ee = optimize('scf')
oeprop('DIPOLE', 'QUADRUPOLE', 'MULLIKEN_CHARGES')
f=open( 'psi4out.xyz', 'w' )
f.write( "28  " )
f.write( str(ee) + "\n" )
f.write( MOL.save_string_xyz() )
f.close()
--------------------------------------------------------------------------

    Molecular point group: c1
  Charge       = 0
  Multiplicity = 1
  Basis Set: 6-31G*
  Basis Set:
  @DF-RHF Final Energy:  -426.17057976490776
    Total Energy =                       -426.1705797649076430
    Molecular point group: c1
  Basis Set: 6-31G*
  Basis Set:
  Basis Set: 6-31G*
  Basis Set:
  @DF-RHF Final Energy:  -426.17005543752600
    Total Energy =                       -426.1700554375262300
  Basis Set: 6-31G*
  Basis Set:
  Basis Set: 6-31G*
  Basis Set:
  @DF-RHF Final Energy:  -426.17035846132251
    Total Energy =                       -426.1703584613228486
  Basis Set: 6-31G*
  Basis Set:
  Basis Set: 6-31G*
  Basis Set:
  @DF-RHF Final Energy:  -426.17123930965442
    Total Energy =                       -426.1712393096546521
  Basis Set: 6-31G*
  Basis Set:
  @DF-RHF Final Energy:  -426.17128211853867
    Total Energy =                       -426.1712821185386701
  Basis Set: 6-31G*
  Basis Set:
  @DF-RHF Final Energy:  -426.17129617910632
    Total Energy =                       -426.1712961791063208
  Basis Set: 6-31G*
  Basis Set:
  Basis Set: 6-31G*
  Basis Set:
  @DF-RHF Final Energy:  -426.17131037596437
    Total Energy =                       -426.1713103759643673
  Basis Set: 6-31G*
  Basis Set:
  Basis Set: 6-31G*
  Basis Set:
  @DF-RHF Final Energy:  -426.17131422046248
    Total Energy =                       -426.1713142204625910
  Basis Set: 6-31G*
  Basis Set:
  Charge       = 0
  Multiplicity = 1
  Basis Set: 6-31G*
  Basis Set:

    Orbital Energies (a.u.)
    -----------------------

    Doubly Occupied:

       1A    -20.550639     2A    -11.324369     3A    -11.231086
       4A    -11.231056     5A    -11.219095     6A    -11.216877
       7A    -11.216797     8A    -11.211332     9A    -11.209863
      10A    -11.205297    11A     -1.396014    12A     -1.088135
      13A     -1.077035    14A     -1.022048    15A     -0.990343
      16A     -0.910518    17A     -0.864795    18A     -0.805537
      19A     -0.791305    20A     -0.724311    21A     -0.668167
      22A     -0.656280    23A     -0.626613    24A     -0.617293
      25A     -0.608841    26A     -0.580849    27A     -0.580336
      28A     -0.573591    29A     -0.534128    30A     -0.530190
      31A     -0.518844    32A     -0.506964    33A     -0.490760
      34A     -0.482282    35A     -0.473926    36A     -0.468983
      37A     -0.468498    38A     -0.465307    39A     -0.456712
      40A     -0.394894

  @DF-RHF Final Energy:  -426.17131426113485

   => Energetics <=

    Nuclear Repulsion Energy =            529.6489347924790536
    One-Electron Energy =               -1627.6606747250903027
    Two-Electron Energy =                 671.8404256714763960
    DFT Exchange-Correlation Energy =       0.0000000000000000
    Empirical Dispersion Energy =           0.0000000000000000
    PCM Polarization Energy =               0.0000000000000000
    EFP Energy =                            0.0000000000000000
    Total Energy =                       -426.1713142611349667
    Molecular point group: c1
  Basis Set: 6-31G*
  Basis Set:

  -Total Gradient:
     Atom            X                  Y                   Z
    ------   -----------------  -----------------  -----------------
       1        0.000005281426     0.000004931830     0.000000805954
       2       -0.000001052588     0.000014752396    -0.000006167250
       3        0.000011939914    -0.000015802675    -0.000031671239
       4       -0.000008107855     0.000003688801     0.000001653048
       5        0.000008519047     0.000001497693     0.000000813714
       6       -0.000011467385     0.000025412138     0.000004007024
       7        0.000000233829    -0.000005668404    -0.000008568537
       8       -0.000007156923    -0.000012843104     0.000009100124
       9        0.000027160947    -0.000031425148     0.000038177274
      10       -0.000015245378     0.000003000802     0.000000644798
      11        0.000006458011    -0.000005723041    -0.000002390308
      12       -0.000414756499     0.000921275517    -0.000865864420
      13       -0.000015844296     0.000009792464     0.000026376487
      14       -0.000024105569    -0.000009201087    -0.000018929531
      15        0.000343288091    -0.000865585271     0.000645532656
      16        0.000235367610    -0.000504681962     0.000526915281
      17       -0.000147143363     0.000377231287    -0.000241812387
      18        0.000003298285    -0.000008892977    -0.000005298124
      19       -0.000001712893    -0.000017003510    -0.000002071499
      20       -0.000032352084     0.000110383564    -0.000051625311
      21       -0.000028374539     0.000022211722     0.000020928837
      22        0.000024764796    -0.000012947501    -0.000015334493
      23        0.000021761506    -0.000023833565    -0.000001589062
      24       -0.000040135028     0.000016715149     0.000010521232
      25        0.000051916775     0.000016351737    -0.000038662942
      26       -0.000004991181     0.000004435935     0.000005070882
      27       -0.000000954670    -0.000011544483    -0.000009807469
      28        0.000013410007    -0.000006528311     0.000009245259

  **** Optimization is complete! (in 9 steps) ****
    Final optimized geometry and variables:
    Molecular point group: c1

    Geometry (in Angstrom), charge = 0, multiplicity = 1:

    H            3.607238979302     2.095119032110    -3.178959966617
    C            3.759471569570     1.561805865331    -2.245724573656
    C            2.482384811994     1.541469294308    -1.406840010922
    H            4.081104805068     0.553661918872    -2.489933968061
    H            4.572613995346     2.049609114217    -1.714850872851
    C            2.665852780955     0.805825540686    -0.077361500597
    H            1.686852082430     1.070364195770    -1.973717565205
    H            2.166212006985     2.564593982543    -1.209311026704
    C            1.409986086422     0.782841624302     0.793690494532
    H            2.984413378157    -0.213571827432    -0.267062024738
    H            3.462983343649     1.285795845008     0.485920310035
    C            0.312566773948    -0.149567615786     0.304445037044
    H            1.658836568286     0.465709918897     1.805815516750
    H            0.994724939867     1.783119767740     0.897862205841
    C           -0.992384664486    -0.112417312467     1.082697863714
    O            0.476766658037    -0.897843061455    -0.610909097853
    C           -2.118306101498    -0.921507384890     0.444487131380
    H           -1.290364764418     0.926522978013     1.208244901541
    H           -0.780880574811    -0.477559013259     2.087381369473
    C           -3.412572369404    -0.869427908733     1.257930102453
    H           -2.301125099333    -0.548169488656    -0.559014629564
    H           -1.796562011195    -1.951028153182     0.328053437804
    C           -4.540985274086    -1.682210981078     0.624327733998
    H           -3.732550506297     0.164817963898     1.369098536856
    H           -3.223770934088    -1.239354108493     2.263815890300
    H           -4.778672850346    -1.313607570374    -0.369356320236
    H           -4.264499939630    -2.728324987695     0.530250730825
    H           -5.445784706947    -1.630864742464     1.221961734280

  Mulliken Charges: (a.u.)
   Center  Symbol    Alpha    Beta     Spin     Total
       1     H     0.41937  0.41937  0.00000  0.16126
       2     C     3.24027  3.24027  0.00000 -0.48055
       3     C     3.15631  3.15631  0.00000 -0.31262
       4     H     0.41860  0.41860  0.00000  0.16279
       5     H     0.42390  0.42390  0.00000  0.15219
       6     C     3.14892  3.14892  0.00000 -0.29785
       7     H     0.40798  0.40798  0.00000  0.18403
       8     H     0.42801  0.42801  0.00000  0.14399
       9     C     3.20822  3.20822  0.00000 -0.41645
      10     H     0.40862  0.40862  0.00000  0.18277
      11     H     0.42184  0.42184  0.00000  0.15632
      12     C     2.73454  2.73454  0.00000  0.53091
      13     H     0.40634  0.40634  0.00000  0.18732
      14     H     0.41064  0.41064  0.00000  0.17871
      15     C     3.20698  3.20698  0.00000 -0.41396
      16     O     4.26723  4.26723  0.00000 -0.53445
      17     C     3.14725  3.14725  0.00000 -0.29449
      18     H     0.41128  0.41128  0.00000  0.17745
      19     H     0.40800  0.40800  0.00000  0.18400
      20     C     3.15361  3.15361  0.00000 -0.30722
      21     H     0.41525  0.41525  0.00000  0.16949
      22     H     0.41007  0.41007  0.00000  0.17987
      23     C     3.23925  3.23925  0.00000 -0.47849
      24     H     0.42416  0.42416  0.00000  0.15168
      25     H     0.42386  0.42386  0.00000  0.15228
      26     H     0.42035  0.42035  0.00000  0.15931
      27     H     0.41988  0.41988  0.00000  0.16023
      28     H     0.41926  0.41926  0.00000  0.16148

   Total alpha = 40.00000, Total beta = 40.00000, Total charge =  0.00000
