  ==> Input File <==

--------------------------------------------------------------------------
set {
	reference rhf
	basis cc-pvtz
}

set_num_threads( 4 )
memory 2 gb

molecule MOL {
0 1

H	 -2.638475	 0.037887	 0.291822
C	 -1.653024	 -0.409042	 0.302425
C	 -0.600949	 0.658697	 -0.000002
H	 -1.626295	 -1.198149	 -0.436952
H	 -1.486954	 -0.850272	 1.275987
C	 0.763408	 0.112229	 -0.000006
H	 -0.775744	 1.106993	 -0.969233
H	 -0.637189	 1.452912	 0.734057
N	 1.806008	 -0.317179	 0.000007

	symmetry c1
}
set optking {
	frozen_dihedral = ("
		7 3 6 9
	")
}

ee = optimize('scf')
oeprop('DIPOLE', 'QUADRUPOLE', 'MULLIKEN_CHARGES')
f=open( 'psi4out.xyz', 'w' )
f.write( "9  " )
f.write( str(ee) + "\n" )
f.write( MOL.save_string_xyz() )
f.close()
--------------------------------------------------------------------------

    Molecular point group: c1
  Charge       = 0
  Multiplicity = 1
  Basis Set: CC-PVTZ
  Basis Set:
  @DF-RHF Final Energy:  -171.02346156178317
    Total Energy =                       -171.0234615617831651
    Molecular point group: c1
  Basis Set: CC-PVTZ
  Basis Set:
  Basis Set: CC-PVTZ
  Basis Set:
  @DF-RHF Final Energy:  -170.98777509391999
    Total Energy =                       -170.9877750939199359
  Basis Set: CC-PVTZ
  Basis Set:
  Basis Set: CC-PVTZ
  Basis Set:
  @DF-RHF Final Energy:  -171.01291290821726
    Total Energy =                       -171.0129129082172881
  Basis Set: CC-PVTZ
  Basis Set:
  Basis Set: CC-PVTZ
  Basis Set:
  @DF-RHF Final Energy:  -171.02322619000716
    Total Energy =                       -171.0232261900070228
  Basis Set: CC-PVTZ
  Basis Set:
  @DF-RHF Final Energy:  -171.02289677919822
    Total Energy =                       -171.0228967791982484
  @DF-RHF Final Energy:  -171.02300782628845
    Total Energy =                       -171.0230078262885627
  @DF-RHF Final Energy:  -171.02178558795202
    Total Energy =                       -171.0217855879520243
  @DF-RHF Final Energy:  -171.02313213863803
    Total Energy =                       -171.0231321386382035
  @DF-RHF Final Energy:  -171.02300203003708
    Total Energy =                       -171.0230020300370484
  @DF-RHF Final Energy:  -171.02309466424398
    Total Energy =                       -171.0230946642440131
  @DF-RHF Final Energy:  -171.02300434674908
    Total Energy =                       -171.0230043467491896
  @DF-RHF Final Energy:  -171.02068092841219
    Total Energy =                       -171.0206809284121618
  @DF-RHF Final Energy:  -171.02064988195741
    Total Energy =                       -171.0206498819574676
  @DF-RHF Final Energy:  -171.02253008745475
    Total Energy =                       -171.0225300874546974
  @DF-RHF Final Energy:  -171.02335836220917
    Total Energy =                       -171.0233583622091373
  @DF-RHF Final Energy:  -171.02332885611821
    Total Energy =                       -171.0233288561180984
  @DF-RHF Final Energy:  -171.02329470332978
    Total Energy =                       -171.0232947033298387
  @DF-RHF Final Energy:  -171.02334539603550
    Total Energy =                       -171.0233453960355519
  @DF-RHF Final Energy:  -171.02342398197771
    Total Energy =                       -171.0234239819777144
  @DF-RHF Final Energy:  -171.02330878479063
    Total Energy =                       -171.0233087847906290
  @DF-RHF Final Energy:  -171.02209975626027
    Total Energy =                       -171.0220997562602747
  @DF-RHF Final Energy:  -171.02245227528363
    Total Energy =                       -171.0224522752835696
  @DF-RHF Final Energy:  -171.02307622807430
    Total Energy =                       -171.0230762280742454
  @DF-RHF Final Energy:  -171.02253125718866
    Total Energy =                       -171.0225312571886320
  @DF-RHF Final Energy:  -171.02304336712979
    Total Energy =                       -171.0230433671298442
  @DF-RHF Final Energy:  -171.02335859187235
    Total Energy =                       -171.0233585918722952
  @DF-RHF Final Energy:  -171.02325515541116
    Total Energy =                       -171.0232551554111069
  @DF-RHF Final Energy:  -171.02296976673429
    Total Energy =                       -171.0229697667342919
  @DF-RHF Final Energy:  -171.02309284865322
    Total Energy =                       -171.0230928486532207
  @DF-RHF Final Energy:  -171.02330659857989
    Total Energy =                       -171.0233065985798646
  @DF-RHF Final Energy:  -171.02337629659127
    Total Energy =                       -171.0233762965912661
  @DF-RHF Final Energy:  -171.02336991973192
    Total Energy =                       -171.0233699197319197
  @DF-RHF Final Energy:  -171.02337498993319
    Total Energy =                       -171.0233749899333020
  @DF-RHF Final Energy:  -171.02337972840917
    Total Energy =                       -171.0233797284091679
  @DF-RHF Final Energy:  -171.02336027914157
    Total Energy =                       -171.0233602791415137
  @DF-RHF Final Energy:  -171.02331793392329
    Total Energy =                       -171.0233179339232947
  Basis Set: CC-PVTZ
  Basis Set:
  @DF-RHF Final Energy:  -171.02329654987980
    Total Energy =                       -171.0232965498798308
  Basis Set: CC-PVTZ
  Basis Set:
  Basis Set: CC-PVTZ
  Basis Set:
  @DF-RHF Final Energy:  -171.02334228289573
    Total Energy =                       -171.0233422828956407
  Basis Set: CC-PVTZ
  Basis Set:
  Basis Set: CC-PVTZ
  Basis Set:
  @DF-RHF Final Energy:  -171.02342015719148
    Total Energy =                       -171.0234201571915378
  Basis Set: CC-PVTZ
  Basis Set:
  Charge       = 0
  Multiplicity = 1
  Basis Set: CC-PVTZ
  Basis Set:

    Orbital Energies (a.u.)
    -----------------------

    Doubly Occupied:

       1A    -15.556403     2A    -11.282495     3A    -11.260969
       4A    -11.244389     5A     -1.229327     6A     -1.084491
       7A     -0.913062     8A     -0.700769     9A     -0.661188
      10A     -0.589606    11A     -0.563115    12A     -0.545174
      13A     -0.540117    14A     -0.464077    15A     -0.464019

  @DF-RHF Final Energy:  -171.02343288386939

   => Energetics <=

    Nuclear Repulsion Energy =            103.7926560749945963
    One-Electron Energy =                -435.4337724972767205
    Two-Electron Energy =                 160.6176835384127912
    DFT Exchange-Correlation Energy =       0.0000000000000000
    Empirical Dispersion Energy =           0.0000000000000000
    PCM Polarization Energy =               0.0000000000000000
    EFP Energy =                            0.0000000000000000
    Total Energy =                       -171.0234328838693614
    Molecular point group: c1
  Basis Set: CC-PVTZ
  Basis Set:

  -Total Gradient:
     Atom            X                  Y                   Z
    ------   -----------------  -----------------  -----------------
       1        0.000054063159     0.000171160871    -0.000006706173
       2        0.000583006218    -0.000151434964    -0.000105911937
       3        0.000020429323     0.000259834546     0.000920977315
       4       -0.000015398566     0.000016848981     0.000007427913
       5        0.000054144825    -0.000053832053    -0.000013371533
       6        0.000945325742    -0.001067066934    -0.001620827024
       7       -0.000213114985     0.000120491756    -0.000015396366
       8       -0.000284978903     0.000198602535    -0.000124043444
       9       -0.001143476816     0.000505395263     0.000957851249

    Molecular point group: c1

    Geometry (in Angstrom), charge = 0, multiplicity = 1:

    H           -2.642485691860     0.033755919762     0.200153597210
    C           -1.658193047465    -0.416542733586     0.211098860901
    C           -0.604529508364     0.647185652730    -0.095583869628
    H           -1.635123449131    -1.207229954391    -0.526876632815
    H           -1.493307005227    -0.856530098890     1.185633034812
    C            0.758367580622     0.096745722609    -0.087182771606
    H           -0.778696124728     1.092911110777    -1.066540361017
    H           -0.640162366070     1.444963143837     0.634807140436
    N            1.806624356051    -0.317109508998    -0.055024067313

  Mulliken Charges: (a.u.)
   Center  Symbol    Alpha    Beta     Spin     Total
       1     H     0.44627  0.44627  0.00000  0.10746
       2     C     3.13534  3.13534  0.00000 -0.27068
       3     C     3.07950  3.07950  0.00000 -0.15899
       4     H     0.44496  0.44496  0.00000  0.11008
       5     H     0.44478  0.44478  0.00000  0.11044
       6     C     3.04258  3.04258  0.00000 -0.08516
       7     H     0.43230  0.43230  0.00000  0.13540
       8     H     0.43192  0.43192  0.00000  0.13616
       9     N     3.54235  3.54235  0.00000 -0.08470

   Total alpha = 15.00000, Total beta = 15.00000, Total charge = -0.00000
