  ==> Input File <==

--------------------------------------------------------------------------
set {
	reference rhf
	basis 6-31G*
}

set_num_threads( 1 )
memory 2 gb

molecule MOL {
0 1

H	 -2.381799	 -2.668004	 -2.086386
O	 -2.407575	 -1.943395	 -1.477960
C	 -1.098246	 -1.558924	 -1.145649
C	 -1.177863	 -0.397191	 -0.171080
H	 -0.558421	 -2.389396	 -0.692645
H	 -0.548590	 -1.260457	 -2.037352
C	 0.198102	 0.111031	 0.262842
H	 -1.749476	 -0.716889	 0.695973
H	 -1.743041	 0.403856	 -0.639454
C	 1.331804	 -0.827780	 -0.158768
H	 0.361943	 1.100838	 -0.156218
H	 0.217265	 0.229072	 1.345532
C	 2.723619	 -0.410569	 0.329459
H	 1.342964	 -0.912588	 -1.244120
H	 1.116806	 -1.824343	 0.220779
C	 3.243875	 0.895854	 -0.272975
H	 3.424222	 -1.207124	 0.091250
H	 2.714788	 -0.329854	 1.414619
H	 3.251977	 0.848779	 -1.358681
H	 2.637085	 1.747371	 0.016682
H	 4.259473	 1.094070	 0.055697

	symmetry c1
}
set optking {
	frozen_dihedral = ("
		2 3 4 8,
		4 7 10 14,
		16 13 10 14,
		1 2 3 5
	")
}

ee = energy('scf')
oeprop('DIPOLE', 'QUADRUPOLE', 'MULLIKEN_CHARGES')
f=open( 'psi4out.xyz', 'w' )
f.write( "21  " )
f.write( str(ee) + "\n" )
f.write( MOL.save_string_xyz() )
f.close()
--------------------------------------------------------------------------

    Molecular point group: c1

    Geometry (in Angstrom), charge = 0, multiplicity = 1:

       Center              X                  Y                   Z               Mass
    ------------   -----------------  -----------------  -----------------  -----------------
           H         -2.740141144635    -2.048382695699    -1.675802102336     1.007825032070
           O         -2.765917144635    -1.323773695699    -1.067376102336    15.994914619560
           C         -1.456588144635    -0.939302695699    -0.735065102336    12.000000000000
           C         -1.536205144635     0.222430304301     0.239503897664    12.000000000000
           H         -0.916763144635    -1.769774695699    -0.282061102336     1.007825032070
           H         -0.906932144635    -0.640835695699    -1.626768102336     1.007825032070
           C         -0.160240144635     0.730652304301     0.673425897664    12.000000000000
           H         -2.107818144635    -0.097267695699     1.106556897664     1.007825032070
           H         -2.101383144635     1.023477304301    -0.228870102336     1.007825032070
           C          0.973461855365    -0.208158695699     0.251815897664    12.000000000000
           H          0.003600855365     1.720459304301     0.254365897664     1.007825032070
           H         -0.141077144635     0.848693304301     1.756115897664     1.007825032070
           C          2.365276855365     0.209052304301     0.740042897664    12.000000000000
           H          0.984621855365    -0.292966695699    -0.833536102336     1.007825032070
           H          0.758463855365    -1.204721695699     0.631362897664     1.007825032070
           C          2.885532855365     1.515475304301     0.137608897664    12.000000000000
           H          3.065879855365    -0.587502695699     0.501833897664     1.007825032070
           H          2.356445855365     0.289767304301     1.825202897664     1.007825032070
           H          2.893634855365     1.468400304301    -0.948097102336     1.007825032070
           H          2.278742855365     2.366992304301     0.427265897664     1.007825032070
           H          3.901130855365     1.713691304301     0.466280897664     1.007825032070

  Charge       = 0
  Multiplicity = 1
  Basis Set: 6-31G*
  Basis Set:

    Orbital Energies (a.u.)
    -----------------------

    Doubly Occupied:

       1A    -20.549802     2A    -11.264627     3A    -11.216300
       4A    -11.215295     5A    -11.214217     6A    -11.209169
       7A    -11.209041     8A     -1.356880     9A     -1.090895
      10A     -1.032049    11A     -0.946717    12A     -0.889763
      13A     -0.818503    14A     -0.758902    15A     -0.695854
      16A     -0.665153    17A     -0.617197    18A     -0.606075
      19A     -0.591717    20A     -0.566970    21A     -0.543279
      22A     -0.524126    23A     -0.513391    24A     -0.491957
      25A     -0.480694    26A     -0.462644    27A     -0.450788
      28A     -0.441698    29A     -0.422777

  @DF-RHF Final Energy:  -310.19861239237298

   => Energetics <=

    Nuclear Repulsion Energy =            320.4491331765628956
    One-Electron Energy =               -1055.6029557581962308
    Two-Electron Energy =                 424.9552101892611518
    DFT Exchange-Correlation Energy =       0.0000000000000000
    Empirical Dispersion Energy =           0.0000000000000000
    PCM Polarization Energy =               0.0000000000000000
    EFP Energy =                            0.0000000000000000
    Total Energy =                       -310.1986123923721834

  Mulliken Charges: (a.u.)
   Center  Symbol    Alpha    Beta     Spin     Total
       1     H     0.28171  0.28171  0.00000  0.43658
       2     O     4.37506  4.37506  0.00000 -0.75012
       3     C     2.99227  2.99227  0.00000  0.01545
       4     C     3.16259  3.16259  0.00000 -0.32519
       5     H     0.43013  0.43013  0.00000  0.13974
       6     H     0.43147  0.43147  0.00000  0.13705
       7     C     3.16028  3.16028  0.00000 -0.32056
       8     H     0.41285  0.41285  0.00000  0.17430
       9     H     0.41206  0.41206  0.00000  0.17588
      10     C     3.16639  3.16639  0.00000 -0.33278
      11     H     0.41762  0.41762  0.00000  0.16476
      12     H     0.41915  0.41915  0.00000  0.16169
      13     C     3.14869  3.14869  0.00000 -0.29738
      14     H     0.42247  0.42247  0.00000  0.15506
      15     H     0.41983  0.41983  0.00000  0.16033
      16     C     3.24141  3.24141  0.00000 -0.48281
      17     H     0.42165  0.42165  0.00000  0.15670
      18     H     0.42307  0.42307  0.00000  0.15387
      19     H     0.42279  0.42279  0.00000  0.15443
      20     H     0.41948  0.41948  0.00000  0.16103
      21     H     0.41902  0.41902  0.00000  0.16196

   Total alpha = 29.00000, Total beta = 29.00000, Total charge = -0.00000
