                              Psi4 1.0.54 Driver

  ==> Input File <==

--------------------------------------------------------------------------
set {
	reference rhf
	basis cc-pvtz
}

set_num_threads( 4 )
memory 2 gb

molecule MOL {
0 1

H	 3.273419	 0.176595	 -0.102789
N	 2.433987	 -0.362316	 -0.080024
C	 1.263552	 0.494993	 0.021953
H	 2.497638	 -0.973615	 0.707122
C	 -0.016533	 -0.325589	 -0.026925
H	 1.280915	 1.180773	 -0.818522
H	 1.263064	 1.106893	 0.925038
C	 -1.280353	 0.525521	 0.047747
H	 -0.016686	 -0.912532	 -0.939714
H	 -0.014099	 -1.037598	 0.796369
C	 -1.013932	 2.010296	 -0.176872
H	 -1.748578	 0.388213	 1.018766
H	 -1.998439	 0.174452	 -0.688443
H	 -0.324721	 2.400096	 0.564595
H	 -1.929104	 2.587754	 -0.113998
H	 -0.578635	 2.185961	 -1.155054

	symmetry c1
}
set optking {
	frozen_dihedral = ("
		12 8 5 9
	")
}

ee,wfn = optimize('scf', return_wfn=True)
oeprop( wfn, 'DIPOLE', 'QUADRUPOLE', 'MULLIKEN_CHARGES')
f=open( 'psi4out.xyz', 'w' )
f.write( "16  " )
f.write( str(ee) + "\n" )
f.write( MOL.save_string_xyz() )
f.close()
--------------------------------------------------------------------------

    Molecular point group: c1
  Charge       = 0
  Multiplicity = 1
  Basis Set: CC-PVTZ
  Basis Set:
  @DF-RHF Final Energy:  -212.38753630513381
    Total Energy =                       -212.3875363051339491
    Molecular point group: c1
  Basis Set: CC-PVTZ
  Basis Set:
  Basis Set: CC-PVTZ
  Basis Set:
  @DF-RHF Final Energy:  -212.38721108498069
    Total Energy =                       -212.3872110849808337
  Basis Set: CC-PVTZ
  Basis Set:
  Basis Set: CC-PVTZ
  Basis Set:
  @DF-RHF Final Energy:  -212.39142631760350
    Total Energy =                       -212.3914263176037025
  Basis Set: CC-PVTZ
  Basis Set:
  Basis Set: CC-PVTZ
  Basis Set:
  @DF-RHF Final Energy:  -212.39176781141109
    Total Energy =                       -212.3917678114110572
  Basis Set: CC-PVTZ
  Basis Set:
  Basis Set: CC-PVTZ
  Basis Set:
  @DF-RHF Final Energy:  -212.39181415282425
    Total Energy =                       -212.3918141528243950
  Basis Set: CC-PVTZ
  Basis Set:
  Basis Set: CC-PVTZ
  Basis Set:
  @DF-RHF Final Energy:  -212.39181787799967
    Total Energy =                       -212.3918178779996424
  Basis Set: CC-PVTZ
  Basis Set:
  Charge       = 0
  Multiplicity = 1
  Basis Set: CC-PVTZ
  Basis Set:

    Orbital Energies (a.u.)
    -----------------------

    Doubly Occupied:

       1A    -15.526270     2A    -11.237807     3A    -11.213434
       4A    -11.208235     5A    -11.206679     6A     -1.178202
       7A     -1.055669     8A     -0.955517     9A     -0.864991
      10A     -0.774319    11A     -0.663161    12A     -0.636505
      13A     -0.611091    14A     -0.584558    15A     -0.546870
      16A     -0.531582    17A     -0.517166    18A     -0.467877
      19A     -0.461223    20A     -0.450601    21A     -0.383468

  @DF-RHF Final Energy:  -212.39181801760682

   => Energetics <=

    Nuclear Repulsion Energy =            189.1409270207334714
    One-Electron Energy =                -660.9150397684718428
    Two-Electron Energy =                 259.3822947301315480
    DFT Exchange-Correlation Energy =       0.0000000000000000
    Empirical Dispersion Energy =           0.0000000000000000
    PCM Polarization Energy =               0.0000000000000000
    EFP Energy =                            0.0000000000000000
    Total Energy =                       -212.3918180176068518
    Molecular point group: c1
  Basis Set: CC-PVTZ
  Basis Set:

  -Total Gradient:
     Atom            X                  Y                   Z
    ------   -----------------  -----------------  -----------------
       1        0.000006777890     0.000000442696    -0.000000585585
       2        0.000002289515     0.000002404620    -0.000006862070
       3       -0.000002498791     0.000005549826     0.000015999465
       4       -0.000002439345     0.000002119690     0.000001255038
       5        0.002311500863     0.004113290836    -0.003707013177
       6        0.000005820497    -0.000009237438     0.000006387909
       7        0.000000716409     0.000005943922     0.000000496462
       8        0.002951557212     0.004111309696     0.002996246458
       9       -0.002415631000    -0.004096091241     0.002629699928
      10        0.000007326830     0.000001830333    -0.000002115581
      11        0.000002287705    -0.000002282641    -0.000017457276
      12       -0.002874379608    -0.004152408806    -0.001925509336
      13        0.000003301217    -0.000002375962    -0.000001634134
      14        0.000030153050     0.000003406352     0.000008868777
      15       -0.000009652330     0.000009456132     0.000010054122
      16       -0.000017130115     0.000006641986    -0.000007831000

  **** Optimization is complete! (in 7 steps) ****
    Final optimized geometry and variables:
    Molecular point group: c1

    Geometry (in Angstrom), charge = 0, multiplicity = 1:

    H            3.013343266523    -0.448136664263    -0.018776504530
    N            2.139222618444    -0.928793810193    -0.041491840934
    C            1.027566339977     0.000926661888     0.085467208646
    H            2.143763676452    -1.585061367767     0.711248475691
    C           -0.292717600094    -0.750125040459    -0.011694525298
    H            1.109124806670     0.720142133261    -0.720170428084
    H            1.056886475557     0.566975614736     1.016822259480
    C           -1.586008795661     0.088492878268     0.112068929133
    H           -0.308071017703    -1.329045472012    -0.927650961676
    H           -0.302635727024    -1.497185414966     0.778860474845
    C           -1.476819222251     1.582102707078    -0.185315971901
    H           -2.023517887839    -0.063249980704     1.093202171315
    H           -2.316165076816    -0.332314272731    -0.572174992815
    H           -0.809542334164     2.089643959229     0.500704388334
    H           -2.450523416663     2.050590162940    -0.099450350275
    H           -1.116920684916     1.761709137467    -1.192371073415

  Mulliken Charges: (a.u.)
   Center  Symbol    Alpha    Beta     Spin     Total
       1     H     0.43020  0.43020  0.00000  0.13960
       2     N     3.68994  3.68994  0.00000 -0.37988
       3     C     3.02786  3.02786  0.00000 -0.05573
       4     H     0.43099  0.43099  0.00000  0.13802
       5     C     3.08989  3.08989  0.00000 -0.17979
       6     H     0.45444  0.45444  0.00000  0.09111
       7     H     0.46600  0.46600  0.00000  0.06800
       8     C     3.09162  3.09162  0.00000 -0.18323
       9     H     0.44671  0.44671  0.00000  0.10657
      10     H     0.45905  0.45905  0.00000  0.08190
      11     C     3.15813  3.15813  0.00000 -0.31625
      12     H     0.45286  0.45286  0.00000  0.09429
      13     H     0.45155  0.45155  0.00000  0.09691
      14     H     0.45368  0.45368  0.00000  0.09264
      15     H     0.44463  0.44463  0.00000  0.11074
      16     H     0.45244  0.45244  0.00000  0.09511

   Total alpha = 21.00000, Total beta = 21.00000, Total charge = -0.00000

*** Psi4 exiting successfully. Buy a developer a beer!
