                              Psi4 1.0.54 Driver

  ==> Input File <==

--------------------------------------------------------------------------
set {
	reference rhf
	basis cc-pvtz
}

set_num_threads( 4 )
memory 2 gb

molecule MOL {
0 1

H	 -2.686779	 0.067600	 -0.569950
O	 -2.041679	 -0.058866	 0.103463
C	 -0.959304	 0.780994	 -0.094939
C	 0.354905	 0.037902	 -0.006215
H	 -0.985899	 1.279578	 -1.057596
H	 -0.969809	 1.529522	 0.682889
F	 0.412060	 -0.931028	 -0.902708
F	 1.359641	 0.856111	 -0.239961
F	 0.545380	 -0.506387	 1.171682

	symmetry c1
}
set optking {
	frozen_dihedral = ("
		1 2 3 5
	")
}

ee,wfn = optimize('scf', return_wfn=True)
oeprop( wfn, 'DIPOLE', 'QUADRUPOLE', 'MULLIKEN_CHARGES')
f=open( 'psi4out.xyz', 'w' )
f.write( "9  " )
f.write( str(ee) + "\n" )
f.write( MOL.save_string_xyz() )
f.close()
--------------------------------------------------------------------------

    Molecular point group: c1
  Charge       = 0
  Multiplicity = 1
  Basis Set: CC-PVTZ
  Basis Set:
  @DF-RHF Final Energy:  -450.84369392076599
    Total Energy =                       -450.8436939207658725
    Molecular point group: c1
  Basis Set: CC-PVTZ
  Basis Set:
  Basis Set: CC-PVTZ
  Basis Set:
  @DF-RHF Final Energy:  -450.84439839232289
    Total Energy =                       -450.8443983923231144
  Basis Set: CC-PVTZ
  Basis Set:
  Basis Set: CC-PVTZ
  Basis Set:
  @DF-RHF Final Energy:  -450.84457909510763
    Total Energy =                       -450.8445790951076901
  Basis Set: CC-PVTZ
  Basis Set:
  Basis Set: CC-PVTZ
  Basis Set:
  @DF-RHF Final Energy:  -450.84458735792651
    Total Energy =                       -450.8445873579265708
  Basis Set: CC-PVTZ
  Basis Set:
  Charge       = 0
  Multiplicity = 1
  Basis Set: CC-PVTZ
  Basis Set:

    Orbital Energies (a.u.)
    -----------------------

    Doubly Occupied:

       1A    -26.333945     2A    -26.331191     3A    -26.330250
       4A    -20.582492     5A    -11.489406     6A    -11.310334
       7A     -1.742000     8A     -1.638417     9A     -1.636969
      10A     -1.405902    11A     -1.050259    12A     -0.924379
      13A     -0.833003    14A     -0.831473    15A     -0.792277
      16A     -0.742175    17A     -0.713449    18A     -0.703847
      19A     -0.670034    20A     -0.658358    21A     -0.642840
      22A     -0.639158    23A     -0.601111    24A     -0.534700
      25A     -0.483002

  @DF-RHF Final Energy:  -450.84458817799867

   => Energetics <=

    Nuclear Repulsion Energy =            277.5820257607032886
    One-Electron Energy =               -1177.6112849784290120
    Two-Electron Energy =                 449.1846710397269931
    DFT Exchange-Correlation Energy =       0.0000000000000000
    Empirical Dispersion Energy =           0.0000000000000000
    PCM Polarization Energy =               0.0000000000000000
    EFP Energy =                            0.0000000000000000
    Total Energy =                       -450.8445881779986735
    Molecular point group: c1
  Basis Set: CC-PVTZ
  Basis Set:

  -Total Gradient:
     Atom            X                  Y                   Z
    ------   -----------------  -----------------  -----------------
       1       -0.000367055652     0.000538752206     0.000422215365
       2        0.000562474987    -0.000794716934    -0.000652232317
       3       -0.000548310220     0.000745371907     0.000487696899
       4        0.000084989511     0.000201606184     0.000138688940
       5        0.000333997338    -0.000527999923    -0.000249698665
       6        0.000001747775    -0.000021242712    -0.000027074311
       7        0.000006880685    -0.000012174813    -0.000008259116
       8       -0.000054780824    -0.000108726479    -0.000044759948
       9       -0.000019943602    -0.000020869438    -0.000066576845

  **** Optimization is complete! (in 5 steps) ****
    Final optimized geometry and variables:
    Molecular point group: c1

    Geometry (in Angstrom), charge = 0, multiplicity = 1:

    H           -2.653494346495     0.003574047936    -0.553509584307
    O           -2.010096808612    -0.071351073007     0.124937894793
    C           -0.947330459422     0.792336453220    -0.100557469439
    C            0.352628777854     0.026376937639    -0.015037206238
    H           -0.978175945257     1.248655664980    -1.081829442655
    H           -0.916802216950     1.574067481986     0.648014033024
    F            0.434012814229    -0.904150006120    -0.940306722209
    F            1.366874741157     0.852120352738    -0.190238308874
    F            0.508349223321    -0.554953959644     1.150747570598

  Mulliken Charges: (a.u.)
   Center  Symbol    Alpha    Beta     Spin     Total
       1     H     0.38605  0.38605  0.00000  0.22790
       2     O     4.19082  4.19082  0.00000 -0.38164
       3     C     2.98940  2.98940  0.00000  0.02119
       4     C     2.67683  2.67683  0.00000  0.64634
       5     H     0.46317  0.46317  0.00000  0.07365
       6     H     0.45937  0.45937  0.00000  0.08127
       7     F     4.61178  4.61178  0.00000 -0.22356
       8     F     4.61461  4.61461  0.00000 -0.22921
       9     F     4.60797  4.60797  0.00000 -0.21594

   Total alpha = 25.00000, Total beta = 25.00000, Total charge =  0.00000

*** Psi4 exiting successfully. Buy a developer a beer!
