  ==> Input File <==

--------------------------------------------------------------------------
set {
	reference rhf
	basis 6-31G*
}

set_num_threads( 4 )
memory 2 gb

molecule MOL {
0 1

O	 -2.042549	 -1.228399	 -0.269030
C	 -1.653912	 -0.146171	 0.050137
C	 -0.332303	 0.024011	 0.778412
C	 -2.438579	 1.106236	 -0.272369
C	 0.845713	 -0.001731	 -0.208243
H	 -0.323783	 0.953829	 1.340327
H	 -0.235459	 -0.796807	 1.480410
C	 0.925690	 1.263975	 -1.063009
H	 0.760959	 -0.869568	 -0.859977
H	 1.766147	 -0.124141	 0.354748
C	 2.101525	 1.244971	 -2.038846
H	 -0.002622	 1.385470	 -1.616996
H	 1.009826	 2.130729	 -0.411682
H	 2.027660	 0.407392	 -2.726637
H	 3.046749	 1.157053	 -1.511337
H	 2.135041	 2.155274	 -2.628974
H	 -3.277823	 0.863061	 -0.908988
H	 -1.806773	 1.843019	 -0.759671
H	 -2.802853	 1.554979	 0.648059

	symmetry c1
}
set optking {
	frozen_dihedral = ("
		9 5 3 2
	")
}

ee = optimize('scf')
oeprop('DIPOLE', 'QUADRUPOLE', 'MULLIKEN_CHARGES')
f=open( 'psi4out.xyz', 'w' )
f.write( "19  " )
f.write( str(ee) + "\n" )
f.write( MOL.save_string_xyz() )
f.close()
--------------------------------------------------------------------------

    Molecular point group: c1
  Charge       = 0
  Multiplicity = 1
  Basis Set: 6-31G*
  Basis Set:
  @DF-RHF Final Energy:  -309.06130783273159
    Total Energy =                       -309.0613078327316998
    Molecular point group: c1
  Basis Set: 6-31G*
  Basis Set:
  Basis Set: 6-31G*
  Basis Set:
  @DF-RHF Final Energy:  -309.06319181793606
    Total Energy =                       -309.0631918179359445
  Basis Set: 6-31G*
  Basis Set:
  Basis Set: 6-31G*
  Basis Set:
  @DF-RHF Final Energy:  -309.06121229937781
    Total Energy =                       -309.0612122993782691
  Basis Set: 6-31G*
  Basis Set:
  Basis Set: 6-31G*
  Basis Set:
  @DF-RHF Final Energy:  -309.06394956326523
    Total Energy =                       -309.0639495632651119
  Basis Set: 6-31G*
  Basis Set:
  @DF-RHF Final Energy:  -309.06436919323107
    Total Energy =                       -309.0643691932310730
  @DF-RHF Final Energy:  -309.06502426061888
    Total Energy =                       -309.0650242606188272
  @DF-RHF Final Energy:  -309.06585925927351
    Total Energy =                       -309.0658592592734522
  @DF-RHF Final Energy:  -309.06649102718268
    Total Energy =                       -309.0664910271824510
  @DF-RHF Final Energy:  -309.06660573386631
    Total Energy =                       -309.0666057338663677
  @DF-RHF Final Energy:  -309.06666414497840
    Total Energy =                       -309.0666641449785743
  @DF-RHF Final Energy:  -309.06669012096444
    Total Energy =                       -309.0666901209643811
  @DF-RHF Final Energy:  -309.06669295670366
    Total Energy =                       -309.0666929567038324
  Basis Set: 6-31G*
  Basis Set:
  @DF-RHF Final Energy:  -309.06669502357039
    Total Energy =                       -309.0666950235703894
  Basis Set: 6-31G*
  Basis Set:
  Basis Set: 6-31G*
  Basis Set:
  @DF-RHF Final Energy:  -309.06669959191743
    Total Energy =                       -309.0666995919172564
  Basis Set: 6-31G*
  Basis Set:
  Basis Set: 6-31G*
  Basis Set:
  @DF-RHF Final Energy:  -309.06670223775166
    Total Energy =                       -309.0667022377516560
  Basis Set: 6-31G*
  Basis Set:
  Charge       = 0
  Multiplicity = 1
  Basis Set: 6-31G*
  Basis Set:

    Orbital Energies (a.u.)
    -----------------------

    Doubly Occupied:

       1A    -20.551168     2A    -11.327536     3A    -11.232562
       4A    -11.229107     5A    -11.217799     6A    -11.213043
       7A    -11.206312     8A     -1.396701     9A     -1.083540
      10A     -1.028615    11A     -0.982411    12A     -0.884361
      13A     -0.802177    14A     -0.728175    15A     -0.666677
      16A     -0.630566    17A     -0.625353    18A     -0.613142
      19A     -0.578612    20A     -0.571161    21A     -0.560464
      22A     -0.522899    23A     -0.515373    24A     -0.494253
      25A     -0.474263    26A     -0.467277    27A     -0.458572
      28A     -0.401086

  @DF-RHF Final Energy:  -309.06670298060340

   => Energetics <=

    Nuclear Repulsion Energy =            306.9482171493198166
    One-Electron Energy =               -1027.1034237116716668
    Two-Electron Energy =                 411.0885035817481139
    DFT Exchange-Correlation Energy =       0.0000000000000000
    Empirical Dispersion Energy =           0.0000000000000000
    PCM Polarization Energy =               0.0000000000000000
    EFP Energy =                            0.0000000000000000
    Total Energy =                       -309.0667029806037363
    Molecular point group: c1
  Basis Set: 6-31G*
  Basis Set:

  -Total Gradient:
     Atom            X                  Y                   Z
    ------   -----------------  -----------------  -----------------
       1       -0.000003129596     0.000003705214    -0.000000943039
       2       -0.000006275391    -0.000101871378     0.000036534410
       3        0.000005492789     0.000145445007    -0.000096334774
       4        0.000021365195    -0.000024975549    -0.000000172239
       5        0.000049192167    -0.000108536504     0.000157579044
       6       -0.000004221173     0.000005820731     0.000002973303
       7       -0.000003505043     0.000000424850     0.000004987323
       8       -0.000012967970     0.000001059231     0.000004423647
       9       -0.000049993182     0.000059648847    -0.000110995793
      10       -0.000001086616     0.000000206853     0.000000756840
      11        0.000000277016    -0.000001323699    -0.000001186548
      12       -0.000000476954    -0.000002187519     0.000001934207
      13        0.000002921508    -0.000000090942     0.000003227985
      14       -0.000000408619     0.000000822389     0.000001163163
      15        0.000004862736    -0.000000476214    -0.000001624335
      16       -0.000002057458     0.000000695419     0.000000943810
      17       -0.000002962470     0.000007403242    -0.000002340152
      18        0.000003803752     0.000005685353    -0.000001829216
      19       -0.000000830693     0.000008544669     0.000000902365

  **** Optimization is complete! (in 16 steps) ****
    Final optimized geometry and variables:
    Molecular point group: c1

    Geometry (in Angstrom), charge = 0, multiplicity = 1:

    O           -1.394652026570    -0.781373738409    -0.725560361525
    C           -1.385803081102    -0.247059464299     0.341137442825
    C           -0.113223148631    -0.071891945767     1.152693509397
    C           -2.658909137104     0.280480605850     0.968814622284
    C            1.177320972392    -0.352155921226     0.384080749619
    H           -0.103752874870     0.929228887456     1.579227376470
    H           -0.199248622593    -0.748629823118     2.002509545550
    C            1.530265742933     0.729173428882    -0.639776932282
    H            1.088763270890    -1.310336669055    -0.116153676836
    H            1.990524995951    -0.442584385069     1.100503904717
    C            2.830272280017     0.428878801431    -1.384623840595
    H            0.720749091118     0.826841096664    -1.355559502840
    H            1.620062835722     1.688482257691    -0.132489396472
    H            2.758977559469    -0.507238287836    -1.930464753900
    H            3.668714985044     0.349178694700    -0.697951421602
    H            3.062195574375     1.211774400651    -2.099980241080
    H           -3.514778021298    -0.054875654816     0.399677686616
    H           -2.638027845808     1.366995922791     0.974306327242
    H           -2.750555453488    -0.045472196569     2.000254154789

  Mulliken Charges: (a.u.)
   Center  Symbol    Alpha    Beta     Spin     Total
       1     O     4.26295  4.26295  0.00000 -0.52590
       2     C     2.73500  2.73500  0.00000  0.53000
       3     C     3.21197  3.21197  0.00000 -0.42393
       4     C     3.28718  3.28718  0.00000 -0.57435
       5     C     3.14952  3.14952  0.00000 -0.29904
       6     H     0.41182  0.41182  0.00000  0.17635
       7     H     0.40504  0.40504  0.00000  0.18993
       8     C     3.15640  3.15640  0.00000 -0.31280
       9     H     0.40713  0.40713  0.00000  0.18574
      10     H     0.42148  0.42148  0.00000  0.15705
      11     C     3.24020  3.24020  0.00000 -0.48039
      12     H     0.40954  0.40954  0.00000  0.18093
      13     H     0.42766  0.42766  0.00000  0.14467
      14     H     0.41826  0.41826  0.00000  0.16347
      15     H     0.42360  0.42360  0.00000  0.15280
      16     H     0.41918  0.41918  0.00000  0.16164
      17     H     0.39661  0.39661  0.00000  0.20679
      18     H     0.40626  0.40626  0.00000  0.18747
      19     H     0.41022  0.41022  0.00000  0.17956

   Total alpha = 28.00000, Total beta = 28.00000, Total charge =  0.00000
