                              Psi4 1.0.54 Driver

  ==> Input File <==

--------------------------------------------------------------------------
set {
	reference rhf
	basis cc-pvtz
}

set_num_threads( 4 )
memory 2 gb

molecule MOL {
0 1

H	 1.485046	 0.343060	 -2.024469
O	 0.654623	 0.205389	 -1.608429
C	 0.700177	 0.619554	 -0.266242
C	 -0.713111	 0.588314	 0.266177
H	 1.094278	 1.628401	 -0.189843
H	 1.327037	 -0.044005	 0.323769
O	 -1.421673	 -0.521378	 -0.196983
H	 -1.244794	 1.469161	 -0.069059
H	 -0.685100	 0.604721	 1.352683
H	 -0.933408	 -1.297830	 0.014544

	symmetry c1
}
set optking {
	frozen_dihedral = ("
		5 3 4 7
	")
}

ee,wfn = optimize('scf', return_wfn=True)
oeprop( wfn, 'DIPOLE', 'QUADRUPOLE', 'MULLIKEN_CHARGES')
f=open( 'psi4out.xyz', 'w' )
f.write( "10  " )
f.write( str(ee) + "\n" )
f.write( MOL.save_string_xyz() )
f.close()
--------------------------------------------------------------------------

    Molecular point group: c1
  Charge       = 0
  Multiplicity = 1
  Basis Set: CC-PVTZ
  Basis Set:
  @DF-RHF Final Energy:  -229.01950388177752
    Total Energy =                       -229.0195038817774957
    Molecular point group: c1
  Basis Set: CC-PVTZ
  Basis Set:
  Basis Set: CC-PVTZ
  Basis Set:
  @DF-RHF Final Energy:  -229.02038939982717
    Total Energy =                       -229.0203893998272804
  Basis Set: CC-PVTZ
  Basis Set:
  Basis Set: CC-PVTZ
  Basis Set:
  @DF-RHF Final Energy:  -229.02067724001500
    Total Energy =                       -229.0206772400150612
  Basis Set: CC-PVTZ
  Basis Set:
  Basis Set: CC-PVTZ
  Basis Set:
  @DF-RHF Final Energy:  -229.02074389400227
    Total Energy =                       -229.0207438940021518
  Basis Set: CC-PVTZ
  Basis Set:
  @DF-RHF Final Energy:  -229.02081131947523
    Total Energy =                       -229.0208113194752002
  @DF-RHF Final Energy:  -229.02100018201136
    Total Energy =                       -229.0210001820113064
  @DF-RHF Final Energy:  -229.00078621491465
    Total Energy =                       -229.0007862149145410
  @DF-RHF Final Energy:  -229.01869946760235
    Total Energy =                       -229.0186994676023460
  @DF-RHF Final Energy:  -229.02134686852355
    Total Energy =                       -229.0213468685236649
  @DF-RHF Final Energy:  -229.02072435381368
    Total Energy =                       -229.0207243538137618
  @DF-RHF Final Energy:  -229.01986145163917
    Total Energy =                       -229.0198614516390876
  @DF-RHF Final Energy:  -229.02192235269808
    Total Energy =                       -229.0219223526977999
  @DF-RHF Final Energy:  -229.02114958241171
    Total Energy =                       -229.0211495824116525
  @DF-RHF Final Energy:  -229.02055477311310
    Total Energy =                       -229.0205547731130764
  @DF-RHF Final Energy:  -229.02021870908490
    Total Energy =                       -229.0202187090849009
  @DF-RHF Final Energy:  -229.02004252509153
    Total Energy =                       -229.0200425250915544
  @DF-RHF Final Energy:  -229.01995257445554
    Total Energy =                       -229.0199525744556581
  @DF-RHF Final Energy:  -229.01990715641185
    Total Energy =                       -229.0199071564118185
  @DF-RHF Final Energy:  -229.01900796548770
    Total Energy =                       -229.0190079654877024
  @DF-RHF Final Energy:  -229.02181527124824
    Total Energy =                       -229.0218152712481867
  @DF-RHF Final Energy:  -229.02240068544572
    Total Energy =                       -229.0224006854456604
  @DF-RHF Final Energy:  -229.02297988350858
    Total Energy =                       -229.0229798835086399
  @DF-RHF Final Energy:  -229.02337396996461
    Total Energy =                       -229.0233739699644957
  @DF-RHF Final Energy:  -229.02390797692459
    Total Energy =                       -229.0239079769247326
  @DF-RHF Final Energy:  -229.02284896148512
    Total Energy =                       -229.0228489614852094
  @DF-RHF Final Energy:  -229.02021360031631
    Total Energy =                       -229.0202136003165663
  @DF-RHF Final Energy:  -229.02453989667737
    Total Energy =                       -229.0245398966774246
  @DF-RHF Final Energy:  -229.02471515643271
    Total Energy =                       -229.0247151564327339
  @DF-RHF Final Energy:  -229.02480665294078
    Total Energy =                       -229.0248066529410380
  @DF-RHF Final Energy:  -229.02489632482525
    Total Energy =                       -229.0248963248251073
  @DF-RHF Final Energy:  -229.02505002542424
    Total Energy =                       -229.0250500254243207
  @DF-RHF Final Energy:  -229.02570890291466
    Total Energy =                       -229.0257089029146869
  @DF-RHF Final Energy:  -229.02593405800658
    Total Energy =                       -229.0259340580065555
  @DF-RHF Final Energy:  -229.02597723562897
    Total Energy =                       -229.0259772356290568
  @DF-RHF Final Energy:  -229.02599251765102
    Total Energy =                       -229.0259925176511047
  @DF-RHF Final Energy:  -229.02606356451039
    Total Energy =                       -229.0260635645103946
  Basis Set: CC-PVTZ
  Basis Set:
  @DF-RHF Final Energy:  -229.02610499514674
    Total Energy =                       -229.0261049951466532
  Basis Set: CC-PVTZ
  Basis Set:
  Basis Set: CC-PVTZ
  Basis Set:
  @DF-RHF Final Energy:  -229.02614352725121
    Total Energy =                       -229.0261435272512358
  Basis Set: CC-PVTZ
  Basis Set:
  Basis Set: CC-PVTZ
  Basis Set:
  @DF-RHF Final Energy:  -229.02616071493799
    Total Energy =                       -229.0261607149379870
  Basis Set: CC-PVTZ
  Basis Set:
  Charge       = 0
  Multiplicity = 1
  Basis Set: CC-PVTZ
  Basis Set:

    Orbital Energies (a.u.)
    -----------------------

    Doubly Occupied:

       1A    -20.563303     2A    -20.537940     3A    -11.277204
       4A    -11.267079     5A     -1.388392     6A     -1.352213
       7A     -1.002028     8A     -0.846049     9A     -0.729093
      10A     -0.682356    11A     -0.656741    12A     -0.600673
      13A     -0.580157    14A     -0.537427    15A     -0.490423
      16A     -0.459952    17A     -0.430552

  @DF-RHF Final Energy:  -229.02616205064413

   => Energetics <=

    Nuclear Repulsion Energy =            135.1830127362761687
    One-Electron Energy =                -581.6151894334489043
    Two-Electron Energy =                 217.4060146465286039
    DFT Exchange-Correlation Energy =       0.0000000000000000
    Empirical Dispersion Energy =           0.0000000000000000
    PCM Polarization Energy =               0.0000000000000000
    EFP Energy =                            0.0000000000000000
    Total Energy =                       -229.0261620506441318
    Molecular point group: c1
  Basis Set: CC-PVTZ
  Basis Set:

  -Total Gradient:
     Atom            X                  Y                   Z
    ------   -----------------  -----------------  -----------------
       1        0.000067981808    -0.000004277206    -0.000032376741
       2       -0.000068581716    -0.000049108228    -0.000052008818
       3        0.002200874915     0.000597849769     0.006184106028
       4        0.001914825213    -0.002548829064     0.004832818720
       5       -0.002330987497     0.000082063427    -0.006280777561
       6        0.000004595268    -0.000009511806     0.000014533196
       7       -0.001798328272     0.001831271589    -0.004716559638
       8        0.000006675782     0.000029138477     0.000012029960
       9       -0.000000437182     0.000030223722    -0.000008841417
      10        0.000003381676     0.000041179320     0.000047076270

  **** Optimization is complete! (in 35 steps) ****
    Final optimized geometry and variables:
    Molecular point group: c1

    Geometry (in Angstrom), charge = 0, multiplicity = 1:

    H            1.730198264165    -0.111061778424    -1.459049051235
    O            0.856176056125    -0.067997478585    -1.119028329379
    C            0.852070582899     0.516776762906     0.162553568666
    C           -0.574872358100     0.439473357458     0.686480091152
    H            1.139934578968     1.559451255632     0.070399957672
    H            1.539504163025    -0.004061869091     0.820288508188
    O           -1.172819935802    -0.790019206298     0.421108173235
    H           -1.156235082642     1.240046722369     0.234641954879
    H           -0.580697432807     0.591989015040     1.757561522021
    H           -0.947888111541    -1.044922271018    -0.456641879476

  Mulliken Charges: (a.u.)
   Center  Symbol    Alpha    Beta     Spin     Total
       1     H     0.39154  0.39154  0.00000  0.21692
       2     O     4.20732  4.20732  0.00000 -0.41463
       3     C     2.97167  2.97167  0.00000  0.05666
       4     C     2.95947  2.95947  0.00000  0.08107
       5     H     0.47077  0.47077  0.00000  0.05847
       6     H     0.47023  0.47023  0.00000  0.05955
       7     O     4.20990  4.20990  0.00000 -0.41981
       8     H     0.47533  0.47533  0.00000  0.04934
       9     H     0.46124  0.46124  0.00000  0.07751
      10     H     0.38254  0.38254  0.00000  0.23493

   Total alpha = 17.00000, Total beta = 17.00000, Total charge =  0.00000

*** Psi4 exiting successfully. Buy a developer a beer!
