                              Psi4 1.0.54 Driver

  ==> Input File <==

--------------------------------------------------------------------------
set {
	reference rhf
	basis cc-pvtz
}

set_num_threads( 4 )
memory 2 gb

molecule MOL {
0 1

H	 -2.710223	 -0.555449	 1.921180
O	 -1.875999	 -0.263520	 1.603556
C	 -2.021813	 0.336996	 0.342658
C	 -0.669613	 0.837286	 -0.127252
H	 -2.412475	 -0.381338	 -0.373653
H	 -2.725484	 1.165504	 0.395619
C	 0.490865	 -0.082543	 0.241244
H	 -0.708709	 0.967192	 -1.204587
H	 -0.507562	 1.822272	 0.303070
C	 1.839800	 0.429565	 -0.255472
H	 0.305636	 -1.070211	 -0.165276
H	 0.527397	 -0.195943	 1.322876
C	 3.001144	 -0.485193	 0.119072
H	 1.804373	 0.541073	 -1.335756
H	 2.020437	 1.423114	 0.146921
H	 2.866892	 -1.477297	 -0.298806
H	 3.943543	 -0.095749	 -0.249061
H	 3.085064	 -0.590459	 1.195790

	symmetry c1
}
set optking {
	frozen_dihedral = ("
		2 3 4 8
	")
}

ee,wfn = optimize('scf', return_wfn=True)
oeprop( wfn, 'DIPOLE', 'QUADRUPOLE', 'MULLIKEN_CHARGES')
f=open( 'psi4out.xyz', 'w' )
f.write( "18  " )
f.write( str(ee) + "\n" )
f.write( MOL.save_string_xyz() )
f.close()
--------------------------------------------------------------------------

    Molecular point group: c1
  Charge       = 0
  Multiplicity = 1
  Basis Set: CC-PVTZ
  Basis Set:
  @DF-RHF Final Energy:  -271.28341192274206
    Total Energy =                       -271.2834119227423457
    Molecular point group: c1
  Basis Set: CC-PVTZ
  Basis Set:
  Basis Set: CC-PVTZ
  Basis Set:
  @DF-RHF Final Energy:  -271.28391965594420
    Total Energy =                       -271.2839196559441461
  Basis Set: CC-PVTZ
  Basis Set:
  Basis Set: CC-PVTZ
  Basis Set:
  @DF-RHF Final Energy:  -271.28411275211278
    Total Energy =                       -271.2841127521129465
  Basis Set: CC-PVTZ
  Basis Set:
  Basis Set: CC-PVTZ
  Basis Set:
  @DF-RHF Final Energy:  -271.28411765909181
    Total Energy =                       -271.2841176590918622
  Basis Set: CC-PVTZ
  Basis Set:
  Charge       = 0
  Multiplicity = 1
  Basis Set: CC-PVTZ
  Basis Set:

    Orbital Energies (a.u.)
    -----------------------

    Doubly Occupied:

       1A    -20.546218     2A    -11.266518     3A    -11.211069
       4A    -11.207849     5A    -11.202739     6A    -11.201596
       7A     -1.364487     8A     -1.074790     9A     -1.008480
      10A     -0.914030    11A     -0.817879    12A     -0.782855
      13A     -0.703844    14A     -0.653517    15A     -0.620408
      16A     -0.583424    17A     -0.572681    18A     -0.556236
      19A     -0.521373    20A     -0.502250    21A     -0.491847
      22A     -0.465005    23A     -0.457782    24A     -0.444761
      25A     -0.432219

  @DF-RHF Final Energy:  -271.28411796809860

   => Energetics <=

    Nuclear Repulsion Energy =            250.0683780662817242
    One-Electron Energy =                -863.4972799781090771
    Two-Electron Energy =                 342.1447839437287257
    DFT Exchange-Correlation Energy =       0.0000000000000000
    Empirical Dispersion Energy =           0.0000000000000000
    PCM Polarization Energy =               0.0000000000000000
    EFP Energy =                            0.0000000000000000
    Total Energy =                       -271.2841179680985988
    Molecular point group: c1
  Basis Set: CC-PVTZ
  Basis Set:

  -Total Gradient:
     Atom            X                  Y                   Z
    ------   -----------------  -----------------  -----------------
       1       -0.000012136504    -0.000018005068     0.000013542470
       2        0.000821276004    -0.003939653179    -0.001977284884
       3       -0.000690765563     0.004093515837     0.002413260091
       4       -0.001897389085     0.005286567864     0.000185942262
       5       -0.000008247818    -0.000004042877     0.000010733335
       6       -0.000005037259    -0.000013947635     0.000037897060
       7       -0.000041891793     0.000018660554    -0.000061907470
       8        0.001818086192    -0.005404798816    -0.000641901881
       9       -0.000005364415     0.000005866994    -0.000004014854
      10        0.000014121538    -0.000019062768    -0.000014545805
      11        0.000009351027    -0.000011859880    -0.000003216011
      12       -0.000009607435    -0.000002958339     0.000020121546
      13        0.000009290549     0.000016021732     0.000014243261
      14       -0.000004457708    -0.000006397751     0.000001827510
      15       -0.000001276914    -0.000001263006    -0.000001133198
      16       -0.000005044035     0.000004874305    -0.000005818790
      17        0.000006006120     0.000001954949     0.000005220915
      18        0.000003087103    -0.000005472916     0.000007034445

  **** Optimization is complete! (in 5 steps) ****
    Final optimized geometry and variables:
    Molecular point group: c1

    Geometry (in Angstrom), charge = 0, multiplicity = 1:

    H           -2.829740017434    -0.619402973583     1.613452005898
    O           -1.982701857172    -0.347454153352     1.312778577961
    C           -2.093568567200     0.245606887610     0.045255406436
    C           -0.734250398141     0.754987230152    -0.417293513248
    H           -2.459494672890    -0.490452997524    -0.667822283657
    H           -2.807016084134     1.064857415458     0.063601193090
    C            0.421592309490    -0.195647291685    -0.105773617379
    H           -0.781343068181     0.868625936664    -1.496780573339
    H           -0.532279415910     1.728905464599     0.015850449706
    C            1.751437704153     0.292876539872    -0.673240216753
    H            0.196928724516    -1.179400271985    -0.511665447510
    H            0.508199288666    -0.323207700811     0.965711042530
    C            2.914087252786    -0.642253222334    -0.357489836304
    H            1.666668228827     0.409144553314    -1.750709126428
    H            1.969044376716     1.281583895460    -0.277644168538
    H            2.743354749317    -1.631315635273    -0.769703608898
    H            3.843988639273    -0.268040543225    -0.770636107433
    H            3.047528719424    -0.751343241568     0.713546436287

  Mulliken Charges: (a.u.)
   Center  Symbol    Alpha    Beta     Spin     Total
       1     H     0.39665  0.39665  0.00000  0.20670
       2     O     4.19554  4.19554  0.00000 -0.39108
       3     C     2.97295  2.97295  0.00000  0.05409
       4     C     3.09365  3.09365  0.00000 -0.18731
       5     H     0.47356  0.47356  0.00000  0.05288
       6     H     0.46646  0.46646  0.00000  0.06709
       7     C     3.08300  3.08300  0.00000 -0.16600
       8     H     0.45672  0.45672  0.00000  0.08656
       9     H     0.45311  0.45311  0.00000  0.09379
      10     C     3.08448  3.08448  0.00000 -0.16896
      11     H     0.45801  0.45801  0.00000  0.08397
      12     H     0.44338  0.44338  0.00000  0.11324
      13     C     3.14965  3.14965  0.00000 -0.29929
      14     H     0.45704  0.45704  0.00000  0.08591
      15     H     0.45576  0.45576  0.00000  0.08847
      16     H     0.45576  0.45576  0.00000  0.08848
      17     H     0.44975  0.44975  0.00000  0.10050
      18     H     0.45452  0.45452  0.00000  0.09096

   Total alpha = 25.00000, Total beta = 25.00000, Total charge =  0.00000

*** Psi4 exiting successfully. Buy a developer a beer!
