  ==> Input File <==

--------------------------------------------------------------------------
set {
	reference rhf
	basis cc-pvtz
}

set_num_threads( 4 )
memory 2 gb

molecule MOL {
0 1

H	 -2.999905	 -2.995059	 0.253309
O	 -2.774532	 -2.145290	 -0.077291
C	 -1.502619	 -1.770533	 0.381197
C	 -1.175688	 -0.398187	 -0.171891
H	 -1.481871	 -1.746303	 1.468743
H	 -0.753506	 -2.489216	 0.055385
C	 0.196029	 0.106276	 0.266738
H	 -1.947330	 0.294463	 0.149083
H	 -1.228109	 -0.442673	 -1.255030
C	 1.330220	 -0.826136	 -0.155230
H	 0.359542	 1.097229	 -0.145561
H	 0.212134	 0.218135	 1.348778
C	 2.719700	 -0.407669	 0.328325
H	 1.339388	 -0.911200	 -1.239363
H	 1.119001	 -1.821953	 0.224128
C	 3.241564	 0.893452	 -0.276737
H	 3.418299	 -1.204729	 0.093035
H	 2.711776	 -0.323368	 1.411960
H	 3.254204	 0.841071	 -1.360784
H	 2.634460	 1.745075	 0.005842
H	 4.254264	 1.092401	 0.054971

	symmetry c1
}
set optking {
	frozen_dihedral = ("
		8 4 7 10
	")
}

ee = optimize('scf')
oeprop('DIPOLE', 'QUADRUPOLE', 'MULLIKEN_CHARGES')
f=open( 'psi4out.xyz', 'w' )
f.write( "21  " )
f.write( str(ee) + "\n" )
f.write( MOL.save_string_xyz() )
f.close()
--------------------------------------------------------------------------

    Molecular point group: c1
  Charge       = 0
  Multiplicity = 1
  Basis Set: CC-PVTZ
  Basis Set:
  @DF-RHF Final Energy:  -310.32931436733145
    Total Energy =                       -310.3293143673317900
    Molecular point group: c1
  Basis Set: CC-PVTZ
  Basis Set:
  Basis Set: CC-PVTZ
  Basis Set:
  @DF-RHF Final Energy:  -310.33015965387398
    Total Energy =                       -310.3301596538737499
  Basis Set: CC-PVTZ
  Basis Set:
  Basis Set: CC-PVTZ
  Basis Set:
  @DF-RHF Final Energy:  -310.33081447721827
    Total Energy =                       -310.3308144772183255
  Basis Set: CC-PVTZ
  Basis Set:
  Basis Set: CC-PVTZ
  Basis Set:
  @DF-RHF Final Energy:  -310.33085705930210
    Total Energy =                       -310.3308570593022182
  Basis Set: CC-PVTZ
  Basis Set:
  Basis Set: CC-PVTZ
  Basis Set:
  @DF-RHF Final Energy:  -310.33085460727358
    Total Energy =                       -310.3308546072733520
  Basis Set: CC-PVTZ
  Basis Set:
  Basis Set: CC-PVTZ
  Basis Set:
  @DF-RHF Final Energy:  -310.33086439928741
    Total Energy =                       -310.3308643992878046
  Basis Set: CC-PVTZ
  Basis Set:
  Charge       = 0
  Multiplicity = 1
  Basis Set: CC-PVTZ
  Basis Set:

    Orbital Energies (a.u.)
    -----------------------

    Doubly Occupied:

       1A    -20.544987     2A    -11.264221     3A    -11.214268
       4A    -11.213309     5A    -11.212496     6A    -11.209236
       7A    -11.206397     8A     -1.362698     9A     -1.087513
      10A     -1.033101    11A     -0.952457    12A     -0.884868
      13A     -0.812053    14A     -0.770854    15A     -0.698920
      16A     -0.651874    17A     -0.631429    18A     -0.610415
      19A     -0.581043    20A     -0.574570    21A     -0.536197
      22A     -0.527379    23A     -0.515972    24A     -0.487926
      25A     -0.481477    26A     -0.460817    27A     -0.452017
      28A     -0.445628    29A     -0.434336

  @DF-RHF Final Energy:  -310.33086499077734

   => Energetics <=

    Nuclear Repulsion Energy =            316.2772789708994310
    One-Electron Energy =               -1047.4993729364664432
    Two-Electron Energy =                 420.8912289747896693
    DFT Exchange-Correlation Energy =       0.0000000000000000
    Empirical Dispersion Energy =           0.0000000000000000
    PCM Polarization Energy =               0.0000000000000000
    EFP Energy =                            0.0000000000000000
    Total Energy =                       -310.3308649907772860
    Molecular point group: c1
  Basis Set: CC-PVTZ
  Basis Set:

  -Total Gradient:
     Atom            X                  Y                   Z
    ------   -----------------  -----------------  -----------------
       1       -0.000007838476     0.000000439095     0.000006434545
       2       -0.000006059281    -0.000011410309    -0.000015510087
       3        0.000003778344     0.000004805706     0.000012259459
       4        0.000143337360     0.000632750452    -0.000962670007
       5        0.000004239832     0.000000624419    -0.000002340785
       6        0.000008676135    -0.000001531327    -0.000004323726
       7        0.000121014992     0.000568845218    -0.000861078510
       8       -0.000137361189    -0.000684071702     0.001052000685
       9       -0.000003216511    -0.000000575904    -0.000004407939
      10       -0.000120536703    -0.000521397384     0.000773624850
      11        0.000005286369     0.000003891190     0.000000858326
      12        0.000000543576    -0.000002049641     0.000002292410
      13       -0.000004203419     0.000011237779     0.000004193185
      14       -0.000001078869    -0.000006228025     0.000001199262
      15       -0.000011200054    -0.000000647564    -0.000000142086
      16        0.000006093080    -0.000000176640     0.000000163438
      17       -0.000001167845     0.000006046255    -0.000001779154
      18       -0.000000989620    -0.000004309823    -0.000000090850
      19       -0.000004016593    -0.000000193944     0.000003298740
      20        0.000000941444     0.000000150572     0.000000572662
      21        0.000003757427     0.000003801579    -0.000004554419

  **** Optimization is complete! (in 7 steps) ****
    Final optimized geometry and variables:
    Molecular point group: c1

    Geometry (in Angstrom), charge = 0, multiplicity = 1:

    H           -3.401324629609    -2.207598079803     0.125389919198
    O           -3.124861653777    -1.344792458843    -0.122037854372
    C           -1.795395220246    -1.131506584279     0.275707566485
    C           -1.378394051361     0.247081580019    -0.202602243227
    H           -1.708907639305    -1.187361796027     1.359552171424
    H           -1.151987437857    -1.897660253355    -0.145642801699
    C           -0.004678485357     0.705912392212     0.289207795421
    H           -2.130302736280     0.946268463716     0.146845815968
    H           -1.413384265915     0.263165815584    -1.287413268640
    C            1.163709223335    -0.188130883127    -0.128554411022
    H            0.157431051568     1.712641367247    -0.077929225000
    H           -0.019485629263     0.779569071829     1.374599154712
    C            2.539113283292     0.326761658363     0.302780759499
    H            1.152786666708    -0.315021670205    -1.209185968395
    H            1.028237453016    -1.178035330089     0.294190990828
    C            2.995645103783     1.602536808770    -0.400976729614
    H            3.270932366051    -0.452559309751     0.113625713816
    H            2.540440934325     0.487210627893     1.377837455168
    H            3.002075388690     1.471018408970    -1.478246624619
    H            2.354173624357     2.445417510233    -0.174805485675
    H            4.001101733592     1.869512344610    -0.096110829314

  Mulliken Charges: (a.u.)
   Center  Symbol    Alpha    Beta     Spin     Total
       1     H     0.39711  0.39711  0.00000  0.20578
       2     O     4.19615  4.19615  0.00000 -0.39230
       3     C     2.96401  2.96401  0.00000  0.07197
       4     C     3.09056  3.09056  0.00000 -0.18111
       5     H     0.47407  0.47407  0.00000  0.05186
       6     H     0.47214  0.47214  0.00000  0.05573
       7     C     3.11130  3.11130  0.00000 -0.22259
       8     H     0.44529  0.44529  0.00000  0.10942
       9     H     0.45070  0.45070  0.00000  0.09861
      10     C     3.09963  3.09963  0.00000 -0.19925
      11     H     0.44473  0.44473  0.00000  0.11054
      12     H     0.45325  0.45325  0.00000  0.09350
      13     C     3.08910  3.08910  0.00000 -0.17820
      14     H     0.45277  0.45277  0.00000  0.09446
      15     H     0.44907  0.44907  0.00000  0.10185
      16     C     3.15143  3.15143  0.00000 -0.30286
      17     H     0.44852  0.44852  0.00000  0.10296
      18     H     0.45488  0.45488  0.00000  0.09024
      19     H     0.45470  0.45470  0.00000  0.09060
      20     H     0.45385  0.45385  0.00000  0.09230
      21     H     0.44676  0.44676  0.00000  0.10649

   Total alpha = 29.00000, Total beta = 29.00000, Total charge = -0.00000
