  ==> Input File <==

--------------------------------------------------------------------------
set {
	reference rhf
	basis cc-pvtz
}

set_num_threads( 4 )
memory 2 gb

molecule MOL {
0 1

O	 0.893452	 0.008309	 -0.805918
C	 0.029490	 0.077183	 0.000078
C	 -1.232113	 -0.748027	 0.000015
O	 0.061630	 0.907683	 1.028897
C	 -2.501422	 0.088592	 -0.000052
H	 -1.188777	 -1.400384	 -0.865133
H	 -1.188857	 -1.400312	 0.865225
H	 -2.548170	 0.725504	 -0.873205
H	 -3.371613	 -0.556398	 -0.000040
H	 -2.548215	 0.725571	 0.873047
C	 1.193773	 1.744790	 1.151964
H	 2.093377	 1.156460	 1.255964
H	 1.031609	 2.336671	 2.038081
H	 1.289684	 2.385538	 0.287968

	symmetry c1
}
set optking {
	frozen_dihedral = ("
		4 2 3 6
	")
}

ee = optimize('scf')
oeprop('DIPOLE', 'QUADRUPOLE', 'MULLIKEN_CHARGES')
f=open( 'psi4out.xyz', 'w' )
f.write( "14  " )
f.write( str(ee) + "\n" )
f.write( MOL.save_string_xyz() )
f.close()
--------------------------------------------------------------------------

    Molecular point group: c1
  Charge       = 0
  Multiplicity = 1
  Basis Set: CC-PVTZ
  Basis Set:
  @DF-RHF Final Energy:  -305.98580561380720
    Total Energy =                       -305.9858056138072016
    Molecular point group: c1
  Basis Set: CC-PVTZ
  Basis Set:
  Basis Set: CC-PVTZ
  Basis Set:
  @DF-RHF Final Energy:  -305.98593847131281
    Total Energy =                       -305.9859384713125223
  Basis Set: CC-PVTZ
  Basis Set:
  Basis Set: CC-PVTZ
  Basis Set:
  @DF-RHF Final Energy:  -305.98603686563126
    Total Energy =                       -305.9860368656311493
  Basis Set: CC-PVTZ
  Basis Set:
  Basis Set: CC-PVTZ
  Basis Set:
  @DF-RHF Final Energy:  -305.98610411399102
    Total Energy =                       -305.9861041139910753
  Basis Set: CC-PVTZ
  Basis Set:
  Basis Set: CC-PVTZ
  Basis Set:
  @DF-RHF Final Energy:  -305.98610593845427
    Total Energy =                       -305.9861059384541591
  Basis Set: CC-PVTZ
  Basis Set:
  Charge       = 0
  Multiplicity = 1
  Basis Set: CC-PVTZ
  Basis Set:

    Orbital Energies (a.u.)
    -----------------------

    Doubly Occupied:

       1A    -20.597937     2A    -20.533707     3A    -11.364507
       4A    -11.279433     5A    -11.236516     6A    -11.223691
       7A     -1.473005     8A     -1.365637     9A     -1.068452
      10A     -0.976566    11A     -0.886456    12A     -0.776576
      13A     -0.698407    14A     -0.683222    15A     -0.676945
      16A     -0.620997    17A     -0.589867    18A     -0.570060
      19A     -0.546023    20A     -0.521133    21A     -0.514194
      22A     -0.503343    23A     -0.460525    24A     -0.437602

  @DF-RHF Final Energy:  -305.98610608296440

   => Energetics <=

    Nuclear Repulsion Energy =            248.7484657585900720
    One-Electron Energy =                -910.2595453422588889
    Two-Electron Energy =                 355.5249735007043910
    DFT Exchange-Correlation Energy =       0.0000000000000000
    Empirical Dispersion Energy =           0.0000000000000000
    PCM Polarization Energy =               0.0000000000000000
    EFP Energy =                            0.0000000000000000
    Total Energy =                       -305.9861060829643975
    Molecular point group: c1
  Basis Set: CC-PVTZ
  Basis Set:

  -Total Gradient:
     Atom            X                  Y                   Z
    ------   -----------------  -----------------  -----------------
       1       -0.000010206910    -0.000004815106    -0.000005318416
       2        0.000208252216    -0.000290666996     0.000198677917
       3        0.000182654891    -0.000265151177     0.000224393051
       4       -0.000183681846     0.000289477054    -0.000186129813
       5        0.000012606741    -0.000011443641    -0.000000518129
       6       -0.000196927825     0.000301096669    -0.000229523225
       7       -0.000000824072    -0.000002416534    -0.000010801676
       8       -0.000003198274     0.000002277114     0.000004793782
       9       -0.000006905671    -0.000002047637     0.000001433292
      10       -0.000001776762     0.000006375031    -0.000001869335
      11        0.000011615385    -0.000032472220     0.000011757817
      12        0.000003598028     0.000009900669     0.000001058226
      13       -0.000007772726    -0.000000329716    -0.000002005041
      14       -0.000007433172     0.000000216492    -0.000005948445

  **** Optimization is complete! (in 6 steps) ****
    Final optimized geometry and variables:
    Molecular point group: c1

    Geometry (in Angstrom), charge = 0, multiplicity = 1:

    O            1.124403967989    -0.356137398877    -1.047653327257
    C            0.267611275320    -0.287711653752    -0.233360304471
    C           -0.987166383917    -1.123066868594    -0.236129710911
    O            0.313780590042     0.539956718787     0.797324621642
    C           -2.269274090052    -0.290630426340    -0.244569071358
    H           -0.937194904352    -1.761865994015    -1.105118502388
    H           -0.963414697719    -1.751015400548     0.647823254078
    H           -2.308564955181     0.354543113032    -1.114529911831
    H           -3.132479340311    -0.943314919647    -0.276239343237
    H           -2.342208264010     0.327179058887     0.639522427828
    C            1.449696291322     1.373508442758     0.910017746951
    H            2.348205686346     0.781989442913     1.004131187120
    H            1.298108651524     1.964823444613     1.798425760425
    H            1.538707071901     2.014570402779     0.045637148967

  Mulliken Charges: (a.u.)
   Center  Symbol    Alpha    Beta     Spin     Total
       1     O     4.19874  4.19874  0.00000 -0.39748
       2     C     2.80152  2.80152  0.00000  0.39697
       3     C     3.08519  3.08519  0.00000 -0.17037
       4     O     4.14979  4.14979  0.00000 -0.29957
       5     C     3.14908  3.14908  0.00000 -0.29816
       6     H     0.43592  0.43592  0.00000  0.12815
       7     H     0.44746  0.44746  0.00000  0.10507
       8     H     0.45036  0.45036  0.00000  0.09928
       9     H     0.44787  0.44787  0.00000  0.10425
      10     H     0.44573  0.44573  0.00000  0.10854
      11     C     3.03536  3.03536  0.00000 -0.07071
      12     H     0.45306  0.45306  0.00000  0.09388
      13     H     0.44573  0.44573  0.00000  0.10854
      14     H     0.45420  0.45420  0.00000  0.09161

   Total alpha = 24.00000, Total beta = 24.00000, Total charge = -0.00000
