  ==> Input File <==

--------------------------------------------------------------------------
set {
	reference rhf
	basis 6-31G*
}

set_num_threads( 1 )
memory 2 gb

molecule MOL {
0 1

H	 3.089270	 -1.380733	 0.000000
O	 2.178328	 -1.639175	 0.000000
C	 1.368216	 -0.558384	 0.000000
C	 -0.002319	 -0.655652	 -0.203658
C	 1.949925	 0.679233	 0.212960
H	 -0.453023	 -1.619754	 -0.369208
C	 -0.789535	 0.483590	 -0.194246
H	 3.008429	 0.755766	 0.370400
C	 1.154664	 1.814819	 0.220850
H	 -1.848997	 0.395776	 -0.353014
C	 -0.216613	 1.724525	 0.017825
C	 1.773155	 3.147582	 0.449062
H	 -0.826189	 2.610732	 0.025540
O	 2.934121	 3.329764	 0.632131
H	 1.072977	 3.988356	 0.439189

	symmetry c1
}
set optking {
	frozen_dihedral = ("
		11 9 12 14
	")
}

ee = energy('scf')
oeprop('DIPOLE', 'QUADRUPOLE', 'MULLIKEN_CHARGES')
f=open( 'psi4out.xyz', 'w' )
f.write( "15  " )
f.write( str(ee) + "\n" )
f.write( MOL.save_string_xyz() )
f.close()
--------------------------------------------------------------------------

    Molecular point group: c1

    Geometry (in Angstrom), charge = 0, multiplicity = 1:

       Center              X                  Y                   Z               Mass
    ------------   -----------------  -----------------  -----------------  -----------------
           H          1.870807816891    -2.294037138738    -0.133223671995     1.007825032070
           O          0.959865816891    -2.552479138738    -0.133223671995    15.994914619560
           C          0.149753816891    -1.471688138738    -0.133223671995    12.000000000000
           C         -1.220781183109    -1.568956138738    -0.336881671995    12.000000000000
           C          0.731462816891    -0.234071138738     0.079736328005    12.000000000000
           H         -1.671485183109    -2.533058138738    -0.502431671995     1.007825032070
           C         -2.007997183109    -0.429714138738    -0.327469671995    12.000000000000
           H          1.789966816891    -0.157538138738     0.237176328005     1.007825032070
           C         -0.063798183109     0.901514861262     0.087626328005    12.000000000000
           H         -3.067459183109    -0.517528138738    -0.486237671995     1.007825032070
           C         -1.435075183109     0.811220861262    -0.115398671995    12.000000000000
           C          0.554692816891     2.234277861262     0.315838328005    12.000000000000
           H         -2.044651183109     1.697427861262    -0.107683671995     1.007825032070
           O          1.715658816891     2.416459861262     0.498907328005    15.994914619560
           H         -0.145485183109     3.075051861262     0.305965328005     1.007825032070

  Charge       = 0
  Multiplicity = 1
  Basis Set: 6-31G*
  Basis Set:

    Orbital Energies (a.u.)
    -----------------------

    Doubly Occupied:

       1A    -20.599307     2A    -20.567482     3A    -11.335468
       4A    -11.313543     5A    -11.253938     6A    -11.252767
       7A    -11.247532     8A    -11.247364     9A    -11.243923
      10A     -1.420455    11A     -1.408414    12A     -1.170411
      13A     -1.050084    14A     -1.026472    15A     -0.901279
      16A     -0.853408    17A     -0.797955    18A     -0.754139
      19A     -0.703497    20A     -0.669690    21A     -0.660353
      22A     -0.630715    23A     -0.615472    24A     -0.602414
      25A     -0.572627    26A     -0.553398    27A     -0.533161
      28A     -0.519999    29A     -0.486802    30A     -0.425874
      31A     -0.354315    32A     -0.327093

  @DF-RHF Final Energy:  -418.28523553308270

   => Energetics <=

    Nuclear Repulsion Energy =            403.5151953590863627
    One-Electron Energy =               -1369.4021390556802089
    Two-Electron Energy =                 547.6017081635100112
    DFT Exchange-Correlation Energy =       0.0000000000000000
    Empirical Dispersion Energy =           0.0000000000000000
    PCM Polarization Energy =               0.0000000000000000
    EFP Energy =                            0.0000000000000000
    Total Energy =                       -418.2852355330837781

  Mulliken Charges: (a.u.)
   Center  Symbol    Alpha    Beta     Spin     Total
       1     H     0.26700  0.26700  0.00000  0.46601
       2     O     4.38086  4.38086  0.00000 -0.76172
       3     C     2.78392  2.78392  0.00000  0.43215
       4     C     3.11687  3.11687  0.00000 -0.23375
       5     C     3.14003  3.14003  0.00000 -0.28006
       6     H     0.38664  0.38664  0.00000  0.22672
       7     C     3.09534  3.09534  0.00000 -0.19069
       8     H     0.38253  0.38253  0.00000  0.23494
       9     C     3.04645  3.04645  0.00000 -0.09291
      10     H     0.39174  0.39174  0.00000  0.21652
      11     C     3.11503  3.11503  0.00000 -0.23007
      12     C     2.83220  2.83220  0.00000  0.33559
      13     H     0.39293  0.39293  0.00000  0.21413
      14     O     4.24752  4.24752  0.00000 -0.49504
      15     H     0.42092  0.42092  0.00000  0.15816

   Total alpha = 32.00000, Total beta = 32.00000, Total charge =  0.00000
