  ==> Input File <==

--------------------------------------------------------------------------
set {
	reference rhf
	basis cc-pvtz
}

set_num_threads( 4 )
memory 2 gb

molecule MOL {
0 1

H	 -2.266619	 1.169943	 0.000098
O	 -1.438073	 1.611259	 0.000041
C	 -0.408657	 0.734701	 0.000005
C	 0.340411	 0.651023	 1.159015
C	 -0.105585	 -0.051861	 -1.105246
H	 0.074697	 1.274596	 1.989968
C	 1.405202	 -0.222043	 1.229334
C	 0.969549	 -0.920105	 -1.006419
C	 -0.924004	 0.040622	 -2.369303
H	 1.982215	 -0.281591	 2.132379
C	 1.726499	 -1.014436	 0.144295
H	 1.216689	 -1.534853	 -1.851981
H	 -0.895646	 1.039473	 -2.795697
H	 -0.546314	 -0.639523	 -3.119098
H	 -1.965113	 -0.216455	 -2.195150
H	 2.553406	 -1.695862	 0.191754

	symmetry c1
}
set optking {
	frozen_dihedral = ("
		4 3 2 1
	")
}

ee = optimize('scf')
oeprop('DIPOLE', 'QUADRUPOLE', 'MULLIKEN_CHARGES')
f=open( 'psi4out.xyz', 'w' )
f.write( "16  " )
f.write( str(ee) + "\n" )
f.write( MOL.save_string_xyz() )
f.close()
--------------------------------------------------------------------------

    Molecular point group: c1
  Charge       = 0
  Multiplicity = 1
  Basis Set: CC-PVTZ
  Basis Set:
  @DF-RHF Final Energy:  -344.71574937372935
    Total Energy =                       -344.7157493737296363
    Molecular point group: c1
  Basis Set: CC-PVTZ
  Basis Set:
  Basis Set: CC-PVTZ
  Basis Set:
  @DF-RHF Final Energy:  -344.71639941614529
    Total Energy =                       -344.7163994161459186
  Basis Set: CC-PVTZ
  Basis Set:
  Basis Set: CC-PVTZ
  Basis Set:
  @DF-RHF Final Energy:  -344.71646940629262
    Total Energy =                       -344.7164694062923900
  Basis Set: CC-PVTZ
  Basis Set:
  Basis Set: CC-PVTZ
  Basis Set:
  @DF-RHF Final Energy:  -344.71648329952234
    Total Energy =                       -344.7164832995219399
  Basis Set: CC-PVTZ
  Basis Set:
  Basis Set: CC-PVTZ
  Basis Set:
  @DF-RHF Final Energy:  -344.71648652914075
    Total Energy =                       -344.7164865291410365
  Basis Set: CC-PVTZ
  Basis Set:
  Charge       = 0
  Multiplicity = 1
  Basis Set: CC-PVTZ
  Basis Set:

    Orbital Energies (a.u.)
    -----------------------

    Doubly Occupied:

       1A    -20.571019     2A    -11.283312     3A    -11.234067
       4A    -11.226961     5A    -11.226682     6A    -11.222473
       7A    -11.221846     8A    -11.221824     9A     -1.397595
      10A     -1.153691    11A     -1.049081    12A     -1.007292
      13A     -0.937492    14A     -0.830423    15A     -0.812953
      16A     -0.730449    17A     -0.673217    18A     -0.656269
      19A     -0.625421    20A     -0.595095    21A     -0.574065
      22A     -0.570496    23A     -0.548698    24A     -0.524463
      25A     -0.503337    26A     -0.488125    27A     -0.467845
      28A     -0.333453    29A     -0.321422

  @DF-RHF Final Energy:  -344.71648717885375

   => Energetics <=

    Nuclear Repulsion Energy =            350.5385711256824379
    One-Electron Energy =               -1162.4919817231561865
    Two-Electron Energy =                 467.2369234186198241
    DFT Exchange-Correlation Energy =       0.0000000000000000
    Empirical Dispersion Energy =           0.0000000000000000
    PCM Polarization Energy =               0.0000000000000000
    EFP Energy =                            0.0000000000000000
    Total Energy =                       -344.7164871788539244
    Molecular point group: c1
  Basis Set: CC-PVTZ
  Basis Set:

  -Total Gradient:
     Atom            X                  Y                   Z
    ------   -----------------  -----------------  -----------------
       1       -0.000015120592     0.000063042843     0.001264271351
       2       -0.000321607670    -0.000334285537    -0.001417822558
       3        0.000937073507     0.000882363239    -0.000166894661
       4       -0.000646998357    -0.000560745444     0.000354098170
       5        0.000023472581    -0.000023042153    -0.000037682473
       6        0.000006202551    -0.000013784467    -0.000018896038
       7        0.000049595461    -0.000066554425    -0.000036548905
       8       -0.000082566436     0.000063627978    -0.000037404652
       9       -0.000005319178    -0.000016863701     0.000039688640
      10        0.000007816725    -0.000002984176     0.000009338553
      11        0.000034098498     0.000014436605     0.000077136316
      12        0.000003506803    -0.000008331119    -0.000008329356
      13        0.000014249240     0.000000451113    -0.000005597350
      14        0.000004352627    -0.000000036349    -0.000017136793
      15        0.000002800936     0.000001165164     0.000005508104
      16       -0.000011556699     0.000001540428    -0.000003728346

  **** Optimization is complete! (in 6 steps) ****
    Final optimized geometry and variables:
    Molecular point group: c1

    Geometry (in Angstrom), charge = 0, multiplicity = 1:

    H           -2.385119046136     1.052791018235     0.226073822992
    O           -1.551934192010     1.490534834263     0.221619216158
    C           -0.527357922828     0.585268682499     0.276747106870
    C            0.221512391837     0.507167897559     1.431751172555
    C           -0.230968121130    -0.204101612414    -0.827938661314
    H           -0.037550754339     1.140025300809     2.258039824114
    C            1.290047721514    -0.366622431706     1.506063611502
    C            0.839273764259    -1.076883099847    -0.729176788619
    C           -1.052009875441    -0.100447083465    -2.086967060596
    H            1.873009330442    -0.422333747884     2.405327935592
    C            1.598521699751    -1.163684971993     0.423587064157
    H            1.086635096260    -1.695616051842    -1.571542060746
    H           -1.106124395084     0.924168904375    -2.432232478156
    H           -0.624064732037    -0.705902763523    -2.874091201492
    H           -2.070732051822    -0.440891080245    -1.928407617540
    H            2.425327772395    -1.845986441562     0.470223817888

  Mulliken Charges: (a.u.)
   Center  Symbol    Alpha    Beta     Spin     Total
       1     H     0.38834  0.38834  0.00000  0.22333
       2     O     4.18842  4.18842  0.00000 -0.37683
       3     C     2.88433  2.88433  0.00000  0.23135
       4     C     3.10690  3.10690  0.00000 -0.21381
       5     C     2.99742  2.99742  0.00000  0.00516
       6     H     0.41756  0.41756  0.00000  0.16488
       7     C     3.07561  3.07561  0.00000 -0.15123
       8     C     3.09295  3.09295  0.00000 -0.18591
       9     C     3.15100  3.15100  0.00000 -0.30201
      10     H     0.42209  0.42209  0.00000  0.15581
      11     C     3.08015  3.08015  0.00000 -0.16030
      12     H     0.42470  0.42470  0.00000  0.15059
      13     H     0.43987  0.43987  0.00000  0.12025
      14     H     0.45052  0.45052  0.00000  0.09897
      15     H     0.45605  0.45605  0.00000  0.08790
      16     H     0.42408  0.42408  0.00000  0.15184

   Total alpha = 29.00000, Total beta = 29.00000, Total charge = -0.00000
