  ==> Input File <==

--------------------------------------------------------------------------
set {
	reference rhf
	basis 6-31G*
}

set_num_threads( 4 )
memory 2 gb

molecule MOL {
0 1

H	 5.268524	 0.192471	 1.070992
C	 4.673736	 -0.214914	 0.259335
C	 3.185378	 -0.203514	 0.605509
H	 4.871837	 0.380453	 -0.627026
H	 5.025590	 -1.224632	 0.065769
C	 2.317601	 -0.778379	 -0.516234
H	 2.874655	 0.814325	 0.817774
H	 3.023650	 -0.778480	 1.515976
C	 2.575167	 -0.141198	 -1.881857
H	 2.480298	 -1.847820	 -0.590193
H	 1.269463	 -0.634072	 -0.263997
C	 3.911064	 -0.516012	 -2.506467
H	 1.805337	 -0.455411	 -2.584994
H	 2.497517	 0.942330	 -1.826049
C	 4.422386	 0.350980	 -3.643827
O	 4.531376	 -1.466159	 -2.133858
C	 3.510795	 0.349618	 -4.880016
H	 5.407409	 -0.017081	 -3.904552
H	 4.532849	 1.370454	 -3.278923
C	 4.103181	 1.152690	 -6.039656
H	 3.344189	 -0.676319	 -5.201438
H	 2.536185	 0.758368	 -4.625989
C	 3.205104	 1.158846	 -7.275910
H	 5.075496	 0.741968	 -6.300373
H	 4.279634	 2.175836	 -5.714953
H	 3.036953	 0.150649	 -7.643319
H	 2.235588	 1.596416	 -7.055263
H	 3.651609	 1.733805	 -8.080853

	symmetry c1
}
set optking {
	frozen_dihedral = ("
		10 6 3 2
	")
}

ee = optimize('scf')
oeprop('DIPOLE', 'QUADRUPOLE', 'MULLIKEN_CHARGES')
f=open( 'psi4out.xyz', 'w' )
f.write( "28  " )
f.write( str(ee) + "\n" )
f.write( MOL.save_string_xyz() )
f.close()
--------------------------------------------------------------------------

    Molecular point group: c1
  Charge       = 0
  Multiplicity = 1
  Basis Set: 6-31G*
  Basis Set:
  @DF-RHF Final Energy:  -426.15520575237156
    Total Energy =                       -426.1552057523709891
    Molecular point group: c1
  Basis Set: 6-31G*
  Basis Set:
  Basis Set: 6-31G*
  Basis Set:
  @DF-RHF Final Energy:  -426.16183670581279
    Total Energy =                       -426.1618367058125614
  Basis Set: 6-31G*
  Basis Set:
  Basis Set: 6-31G*
  Basis Set:
  @DF-RHF Final Energy:  -426.16389660390712
    Total Energy =                       -426.1638966039070056
  Basis Set: 6-31G*
  Basis Set:
  Basis Set: 6-31G*
  Basis Set:
  @DF-RHF Final Energy:  -426.16462041028922
    Total Energy =                       -426.1646204102897855
  Basis Set: 6-31G*
  Basis Set:
  @DF-RHF Final Energy:  -426.16460874952020
    Total Energy =                       -426.1646087495205393
  @DF-RHF Final Energy:  -426.16559472464974
    Total Energy =                       -426.1655947246498499
  @DF-RHF Final Energy:  -426.16570287979630
    Total Energy =                       -426.1657028797962994
  @DF-RHF Final Energy:  -426.16572190890963
    Total Energy =                       -426.1657219089099726
  @DF-RHF Final Energy:  -426.16575140149575
    Total Energy =                       -426.1657514014960952
  Basis Set: 6-31G*
  Basis Set:
  @DF-RHF Final Energy:  -426.16570761240894
    Total Energy =                       -426.1657076124095056
  Basis Set: 6-31G*
  Basis Set:
  Basis Set: 6-31G*
  Basis Set:
  @DF-RHF Final Energy:  -426.16576384579957
    Total Energy =                       -426.1657638458000292
  Basis Set: 6-31G*
  Basis Set:
  Basis Set: 6-31G*
  Basis Set:
  @DF-RHF Final Energy:  -426.16576790050306
    Total Energy =                       -426.1657679005027148
  Basis Set: 6-31G*
  Basis Set:
  Charge       = 0
  Multiplicity = 1
  Basis Set: 6-31G*
  Basis Set:

    Orbital Energies (a.u.)
    -----------------------

    Doubly Occupied:

       1A    -20.546787     2A    -11.321766     3A    -11.232344
       4A    -11.229855     5A    -11.228650     6A    -11.225987
       7A    -11.216995     8A    -11.216324     9A    -11.216219
      10A    -11.205964    11A     -1.392377    12A     -1.095129
      13A     -1.077237    14A     -1.021223    15A     -0.988507
      16A     -0.911867    17A     -0.880635    18A     -0.808717
      19A     -0.791249    20A     -0.722548    21A     -0.667759
      22A     -0.648318    23A     -0.639052    24A     -0.624985
      25A     -0.600195    26A     -0.593588    27A     -0.579492
      28A     -0.556108    29A     -0.551014    30A     -0.537672
      31A     -0.518904    32A     -0.509243    33A     -0.506558
      34A     -0.484511    35A     -0.478010    36A     -0.474644
      37A     -0.470040    38A     -0.461943    39A     -0.453750
      40A     -0.391683

  @DF-RHF Final Energy:  -426.16576798014364

   => Energetics <=

    Nuclear Repulsion Energy =            541.4918661255227335
    One-Electron Energy =               -1651.1595668939612551
    Two-Electron Energy =                 683.5019327882948801
    DFT Exchange-Correlation Energy =       0.0000000000000000
    Empirical Dispersion Energy =           0.0000000000000000
    PCM Polarization Energy =               0.0000000000000000
    EFP Energy =                            0.0000000000000000
    Total Energy =                       -426.1657679801435279
    Molecular point group: c1
  Basis Set: 6-31G*
  Basis Set:

  -Total Gradient:
     Atom            X                  Y                   Z
    ------   -----------------  -----------------  -----------------
       1        0.000010038642     0.000014844322     0.000020965080
       2       -0.000223812023     0.001424098642    -0.000775113729
       3       -0.000056115113    -0.002212677936     0.001382040263
       4       -0.000005533046     0.000005261971     0.000009811736
       5       -0.000004750919     0.000009811406     0.000015892747
       6        0.002025385027     0.001227929539    -0.002018125335
       7       -0.000005180018    -0.000011802087    -0.000006778948
       8       -0.000003435919    -0.000000860124    -0.000004320346
       9       -0.000014274481    -0.000036966742    -0.000011709547
      10       -0.001706295688    -0.000466592562     0.001367240728
      11       -0.000004258093     0.000004693742    -0.000013116608
      12        0.000055700837     0.000001883552     0.000038770177
      13       -0.000011142706     0.000008170022     0.000006010598
      14        0.000005632856    -0.000001121673     0.000005893698
      15       -0.000101194030    -0.000013343114    -0.000060558961
      16       -0.000016319958     0.000026896887     0.000036651069
      17        0.000032409085     0.000038326945     0.000004918440
      18       -0.000015120713     0.000001764413     0.000006395648
      19        0.000017713791     0.000016781117     0.000026941725
      20        0.000011352192    -0.000034630387    -0.000022792459
      21        0.000015407658    -0.000008288827     0.000007676675
      22       -0.000001573639    -0.000007203651    -0.000027307532
      23       -0.000012403910     0.000029632418     0.000017917616
      24       -0.000002894902    -0.000011702042    -0.000017482734
      25        0.000012776809    -0.000011735119     0.000003739462
      26        0.000013394376     0.000001983901     0.000001166622
      27       -0.000012252271    -0.000005050427    -0.000002288453
      28       -0.000003253846     0.000009895815     0.000007562366

  **** Optimization is complete! (in 13 steps) ****
    Final optimized geometry and variables:
    Molecular point group: c1

    Geometry (in Angstrom), charge = 0, multiplicity = 1:

    H            1.447458691440     0.546989912779     4.190397773862
    C            1.014915567908     0.096960795158     3.301959053926
    C           -0.495970307505    -0.069511713727     3.471074958784
    H            1.258079981527     0.745695251198     2.465277174529
    H            1.504320949851    -0.855632837336     3.133113183193
    C           -1.222927586545    -0.772710768122     2.316475913657
    H           -0.940997252761     0.913220625426     3.618447974666
    H           -0.692263007551    -0.628240146864     4.382310856975
    C           -0.997135341444    -0.160840714048     0.930318709674
    H           -0.957088583396    -1.822940063067     2.292106549351
    H           -2.287778195307    -0.735656256739     2.531305121853
    C            0.246722494557    -0.654100256442     0.203879670124
    H           -1.834109897835    -0.419289494037     0.283388159655
    H           -0.988500840981     0.925328332632     0.977870159400
    C            0.807422423610     0.224856607265    -0.900121992305
    O            0.744454911145    -1.708724053205     0.460384196820
    C           -0.151448198708     0.397921154278    -2.087816092933
    H            1.733117578349    -0.230554078637    -1.230631644620
    H            1.044418174131     1.201831013138    -0.483207694173
    C            0.469948728715     1.214218695271    -3.222732211015
    H           -0.435560275509    -0.582607174398    -2.463607604919
    H           -1.067417314981     0.883386799019    -1.760655042789
    C           -0.476790662405     1.397113750428    -4.408116591428
    H            1.381016342046     0.725277609329    -3.558821157393
    H            0.767367293268     2.189231596194    -2.842884658426
    H           -0.764833607700     0.439108663539    -4.831141810675
    H           -1.384873769661     1.913422947995    -4.109906332986
    H           -0.009268763291     1.979187583775    -5.195859316908

  Mulliken Charges: (a.u.)
   Center  Symbol    Alpha    Beta     Spin     Total
       1     H     0.41987  0.41987  0.00000  0.16027
       2     C     3.24460  3.24460  0.00000 -0.48920
       3     C     3.15152  3.15152  0.00000 -0.30305
       4     H     0.42880  0.42880  0.00000  0.14241
       5     H     0.40774  0.40774  0.00000  0.18452
       6     C     3.15542  3.15542  0.00000 -0.31084
       7     H     0.42590  0.42590  0.00000  0.14820
       8     H     0.41890  0.41890  0.00000  0.16220
       9     C     3.21242  3.21242  0.00000 -0.42485
      10     H     0.40137  0.40137  0.00000  0.19726
      11     H     0.42039  0.42039  0.00000  0.15922
      12     C     2.72978  2.72978  0.00000  0.54044
      13     H     0.40207  0.40207  0.00000  0.19587
      14     H     0.41295  0.41295  0.00000  0.17409
      15     C     3.20148  3.20148  0.00000 -0.40296
      16     O     4.26815  4.26815  0.00000 -0.53629
      17     C     3.16416  3.16416  0.00000 -0.32831
      18     H     0.39981  0.39981  0.00000  0.20038
      19     H     0.41327  0.41327  0.00000  0.17346
      20     C     3.15176  3.15176  0.00000 -0.30352
      21     H     0.41328  0.41328  0.00000  0.17344
      22     H     0.41854  0.41854  0.00000  0.16293
      23     C     3.24034  3.24034  0.00000 -0.48068
      24     H     0.41833  0.41833  0.00000  0.16334
      25     H     0.42150  0.42150  0.00000  0.15701
      26     H     0.41955  0.41955  0.00000  0.16089
      27     H     0.42122  0.42122  0.00000  0.15757
      28     H     0.41690  0.41690  0.00000  0.16620

   Total alpha = 40.00000, Total beta = 40.00000, Total charge =  0.00000
