  ==> Input File <==

--------------------------------------------------------------------------
set {
	reference rhf
	basis 6-31G*
}

set_num_threads( 4 )
memory 2 gb

molecule MOL {
0 1

H	 2.700542	 -0.188243	 -0.753160
N	 1.721640	 0.018733	 -0.769668
C	 1.276574	 0.471595	 0.535531
C	 0.965984	 -1.137105	 -1.216585
H	 1.853880	 1.344568	 0.820848
H	 1.409476	 -0.288331	 1.309152
C	 -0.198102	 0.837691	 0.459793
H	 1.318368	 -1.429118	 -2.200111
H	 1.080075	 -1.994465	 -0.549083
C	 -0.508499	 -0.770013	 -1.291237
H	 -0.317969	 1.700970	 -0.201630
H	 -0.552194	 1.124070	 1.444756
N	 -0.975995	 -0.298722	 0.000000
H	 -1.086750	 -1.644662	 -1.570809
H	 -0.649162	 -0.014444	 -2.069972
C	 -2.393863	 -0.024976	 0.000000
H	 -2.854032	 -0.467193	 -0.876721
H	 -2.854032	 -0.467193	 0.876721
H	 -2.623281	 1.044943	 0.000000

	symmetry c1
}
set optking {
	frozen_dihedral = ("
		7 13 16 19
	")
}

ee = optimize('scf')
oeprop('DIPOLE', 'QUADRUPOLE', 'MULLIKEN_CHARGES')
f=open( 'psi4out.xyz', 'w' )
f.write( "19  " )
f.write( str(ee) + "\n" )
f.write( MOL.save_string_xyz() )
f.close()
--------------------------------------------------------------------------

    Molecular point group: c1
  Charge       = 0
  Multiplicity = 1
  Basis Set: 6-31G*
  Basis Set:
  @DF-RHF Final Energy:  -305.19396859356311
    Total Energy =                       -305.1939685935633406
    Molecular point group: c1
  Basis Set: 6-31G*
  Basis Set:
  Basis Set: 6-31G*
  Basis Set:
  @DF-RHF Final Energy:  -305.19427287423321
    Total Energy =                       -305.1942728742333202
  Basis Set: 6-31G*
  Basis Set:
  Basis Set: 6-31G*
  Basis Set:
  @DF-RHF Final Energy:  -305.19435963571061
    Total Energy =                       -305.1943596357103843
  Basis Set: 6-31G*
  Basis Set:
  Charge       = 0
  Multiplicity = 1
  Basis Set: 6-31G*
  Basis Set:

    Orbital Energies (a.u.)
    -----------------------

    Doubly Occupied:

       1A    -15.539050     2A    -15.535965     3A    -11.237863
       4A    -11.237809     5A    -11.236914     6A    -11.236882
       7A    -11.234692     8A     -1.244689     9A     -1.183437
      10A     -1.022137    11A     -0.963783    12A     -0.859751
      13A     -0.858004    14A     -0.757125    15A     -0.690376
      16A     -0.630406    17A     -0.623906    18A     -0.605404
      19A     -0.603274    20A     -0.579289    21A     -0.543916
      22A     -0.533051    23A     -0.512952    24A     -0.488514
      25A     -0.465118    26A     -0.455591    27A     -0.362579
      28A     -0.341935

  @DF-RHF Final Energy:  -305.19436088142015

   => Energetics <=

    Nuclear Repulsion Energy =            339.4216622961953362
    One-Electron Energy =               -1086.0632234107147269
    Two-Electron Energy =                 441.4472002330992382
    DFT Exchange-Correlation Energy =       0.0000000000000000
    Empirical Dispersion Energy =           0.0000000000000000
    PCM Polarization Energy =               0.0000000000000000
    EFP Energy =                            0.0000000000000000
    Total Energy =                       -305.1943608814201525
    Molecular point group: c1
  Basis Set: 6-31G*
  Basis Set:

  -Total Gradient:
     Atom            X                  Y                   Z
    ------   -----------------  -----------------  -----------------
       1       -0.000033220547    -0.000001421950     0.000012697578
       2       -0.000038994383     0.000009117627     0.000000119424
       3        0.000041417782     0.000004888790     0.000027848793
       4        0.000029735039    -0.000002012617    -0.000024006224
       5        0.000037327701    -0.000000093048    -0.000005169369
       6        0.000001356073     0.000003734554    -0.000007009615
       7        0.000174859670     0.000982311232    -0.002896719070
       8        0.000044749923    -0.000005716064    -0.000012454898
       9       -0.000011806754     0.000016512034    -0.000008900311
      10        0.000036258812    -0.000009891682     0.000081057510
      11       -0.000014599193     0.000004491030     0.000000733975
      12        0.000008633982    -0.000018456038    -0.000020275748
      13       -0.000324743623    -0.001398201629     0.005051986125
      14        0.000000407177     0.000019102078     0.000018716469
      15        0.000004343077    -0.000010114613     0.000007224721
      16        0.000049821497     0.000453590574    -0.006274506441
      17       -0.000027720856     0.000012904118    -0.000016455515
      18       -0.000000805479    -0.000012507139     0.000008954787
      19        0.000022980103    -0.000048237255     0.004056157809

  **** Optimization is complete! (in 4 steps) ****
    Final optimized geometry and variables:
    Molecular point group: c1

    Geometry (in Angstrom), charge = 0, multiplicity = 1:

    H            2.731656700274    -0.071853181441    -0.407680003203
    N            1.754409106860     0.141678898692    -0.434069787033
    C            1.299024289805     0.597719513419     0.866214946327
    C            0.995633818246    -1.009164730049    -0.888046029947
    H            1.875039126801     1.470710833909     1.154679735474
    H            1.423905414514    -0.160510243027     1.642763952057
    C           -0.174111807674     0.965374094893     0.776454371272
    H            1.355282921724    -1.303293859756    -1.868498675513
    H            1.098203166602    -1.867225778016    -0.219558614237
    C           -0.476562051475    -0.635902636418    -0.975825646197
    H           -0.288757838261     1.825337633907     0.110465255588
    H           -0.532761364614     1.257946578261     1.758275994399
    N           -0.953808025728    -0.170383589841     0.316374061097
    H           -1.050246286926    -1.510301661447    -1.263294384294
    H           -0.605458246161     0.120679268409    -1.755309794130
    C           -2.384294436633     0.094779939606     0.340048891234
    H           -2.876917377221    -0.343858915232    -0.519137480434
    H           -2.832886272229    -0.332084661094     1.233038481024
    H           -2.606145212846     1.160806010059     0.354475870115

  Mulliken Charges: (a.u.)
   Center  Symbol    Alpha    Beta     Spin     Total
       1     H     0.32963  0.32963  0.00000  0.34073
       2     N     3.85428  3.85428  0.00000 -0.70855
       3     C     3.06298  3.06298  0.00000 -0.12597
       4     C     3.06331  3.06331  0.00000 -0.12661
       5     H     0.41789  0.41789  0.00000  0.16422
       6     H     0.42770  0.42770  0.00000  0.14461
       7     C     3.05692  3.05692  0.00000 -0.11385
       8     H     0.41794  0.41794  0.00000  0.16413
       9     H     0.42773  0.42773  0.00000  0.14453
      10     C     3.05630  3.05630  0.00000 -0.11261
      11     H     0.42755  0.42755  0.00000  0.14490
      12     H     0.41814  0.41814  0.00000  0.16372
      13     N     3.79000  3.79000  0.00000 -0.57999
      14     H     0.41838  0.41838  0.00000  0.16324
      15     H     0.42821  0.42821  0.00000  0.14359
      16     C     3.14017  3.14017  0.00000 -0.28034
      17     H     0.41981  0.41981  0.00000  0.16038
      18     H     0.41647  0.41647  0.00000  0.16705
      19     H     0.42659  0.42659  0.00000  0.14682

   Total alpha = 28.00000, Total beta = 28.00000, Total charge =  0.00000
