  ==> Input File <==

--------------------------------------------------------------------------
set {
	reference rhf
	basis cc-pvtz
}

set_num_threads( 4 )
memory 2 gb

molecule MOL {
0 1

H	 2.759212	 0.384604	 0.772563
N	 2.326826	 -0.066186	 0.000000
C	 0.934676	 -0.005420	 0.000000
H	 2.751246	 0.202102	 -0.857270
C	 0.226436	 -0.001077	 -1.195129
C	 0.226436	 -0.001077	 1.195129
H	 0.759091	 -0.011439	 -2.128123
C	 -1.153391	 0.009141	 -1.189028
H	 0.759091	 -0.011439	 2.128123
C	 -1.153391	 0.009141	 1.189028
H	 -1.680905	 0.012964	 -2.124348
C	 -1.857876	 0.014675	 0.000000
H	 -1.680905	 0.012964	 2.124348
H	 -2.930222	 0.022904	 0.000000

	symmetry c1
}
set optking {
	frozen_dihedral = ("
		1 2 3 5
	")
}

ee = optimize('scf')
oeprop('DIPOLE', 'QUADRUPOLE', 'MULLIKEN_CHARGES')
f=open( 'psi4out.xyz', 'w' )
f.write( "14  " )
f.write( str(ee) + "\n" )
f.write( MOL.save_string_xyz() )
f.close()
--------------------------------------------------------------------------

    Molecular point group: c1
  Charge       = 0
  Multiplicity = 1
  Basis Set: CC-PVTZ
  Basis Set:
  @DF-RHF Final Energy:  -285.83362701616102
    Total Energy =                       -285.8336270161611310
    Molecular point group: c1
  Basis Set: CC-PVTZ
  Basis Set:
  Basis Set: CC-PVTZ
  Basis Set:
  @DF-RHF Final Energy:  -285.83364562215684
    Total Energy =                       -285.8336456221570074
  Basis Set: CC-PVTZ
  Basis Set:
  Basis Set: CC-PVTZ
  Basis Set:
  @DF-RHF Final Energy:  -285.83365094148166
    Total Energy =                       -285.8336509414817783
  Basis Set: CC-PVTZ
  Basis Set:
  Charge       = 0
  Multiplicity = 1
  Basis Set: CC-PVTZ
  Basis Set:

    Orbital Energies (a.u.)
    -----------------------

    Doubly Occupied:

       1A    -15.556139     2A    -11.270838     3A    -11.227328
       4A    -11.227247     5A    -11.215997     6A    -11.215652
       7A    -11.211381     8A     -1.227055     9A     -1.130813
      10A     -1.013668    11A     -0.988113    12A     -0.833035
      13A     -0.813578    14A     -0.708146    15A     -0.687031
      16A     -0.654842    17A     -0.599186    18A     -0.594421
      19A     -0.581808    20A     -0.535231    21A     -0.506527
      22A     -0.487514    23A     -0.449218    24A     -0.336416
      25A     -0.295289

  @DF-RHF Final Energy:  -285.83365174848393

   => Energetics <=

    Nuclear Repulsion Energy =            273.7281899199796271
    One-Electron Energy =                -928.3907373176414239
    Two-Electron Energy =                 368.8288956491779800
    DFT Exchange-Correlation Energy =       0.0000000000000000
    Empirical Dispersion Energy =           0.0000000000000000
    PCM Polarization Energy =               0.0000000000000000
    EFP Energy =                            0.0000000000000000
    Total Energy =                       -285.8336517484838168
    Molecular point group: c1
  Basis Set: CC-PVTZ
  Basis Set:

  -Total Gradient:
     Atom            X                  Y                   Z
    ------   -----------------  -----------------  -----------------
       1        0.000024744805     0.000709477184    -0.000434960513
       2       -0.000105909302    -0.000598270075     0.000540445231
       3        0.000073784030    -0.000749690919    -0.000121334469
       4        0.000043536911     0.000011748486    -0.000010169285
       5       -0.000024011604     0.000623531765    -0.000005149533
       6       -0.000038433653    -0.000007148156     0.000016428260
       7        0.000006999112     0.000002192483    -0.000009644476
       8        0.000056376733     0.000020742169    -0.000014964425
       9        0.000000224617    -0.000010500160    -0.000006725063
      10       -0.000031057785     0.000025835471    -0.000016951274
      11        0.000004126597    -0.000007179967     0.000002098944
      12       -0.000009814637    -0.000024270634     0.000056587937
      13       -0.000002408585     0.000006227758     0.000006104026
      14        0.000001842756    -0.000002695406    -0.000001765360

  **** Optimization is complete! (in 4 steps) ****
    Final optimized geometry and variables:
    Molecular point group: c1

    Geometry (in Angstrom), charge = 0, multiplicity = 1:

    H            2.753272832159     0.381633341940     0.779674373442
    N            2.328079624178    -0.069262140886     0.002541158413
    C            0.934403931323    -0.009594742587    -0.001395537172
    H            2.749567025938     0.224326584006    -0.848301688364
    C            0.225245145615    -0.002775453014    -1.195193233561
    C            0.227381378498    -0.001269739991     1.194856531104
    H            0.756351812026    -0.011058819587    -2.129173679000
    C           -1.155181093116     0.007780931125    -1.187818579835
    H            0.761909392479    -0.014801741398     2.126613711630
    C           -1.151907948230     0.014664022340     1.190397766648
    H           -1.683643307281     0.011488892435    -2.122584260579
    C           -1.857833517914     0.018062655852     0.001621564107
    H           -1.678567686800     0.022182677935     2.126170901626
    H           -2.930158437409     0.028672722315     0.002900755111

  Mulliken Charges: (a.u.)
   Center  Symbol    Alpha    Beta     Spin     Total
       1     H     0.42184  0.42184  0.00000  0.15633
       2     N     3.66735  3.66735  0.00000 -0.33470
       3     C     2.88959  2.88959  0.00000  0.22081
       4     H     0.42397  0.42397  0.00000  0.15205
       5     C     3.11779  3.11779  0.00000 -0.23559
       6     C     3.11642  3.11642  0.00000 -0.23284
       7     H     0.43447  0.43447  0.00000  0.13106
       8     C     3.05830  3.05830  0.00000 -0.11659
       9     H     0.43290  0.43290  0.00000  0.13420
      10     C     3.05810  3.05810  0.00000 -0.11621
      11     H     0.42470  0.42470  0.00000  0.15060
      12     C     3.10460  3.10460  0.00000 -0.20920
      13     H     0.42466  0.42466  0.00000  0.15069
      14     H     0.42531  0.42531  0.00000  0.14938

   Total alpha = 25.00000, Total beta = 25.00000, Total charge =  0.00000
