  ==> Input File <==

--------------------------------------------------------------------------
set {
	reference rhf
	basis cc-pvtz
}

set_num_threads( 4 )
memory 2 gb

molecule MOL {
0 1

O	 0.749630	 1.305591	 -0.000460
C	 0.576499	 0.134701	 -0.003900
C	 -0.765656	 -0.550508	 -0.002152
O	 1.564816	 -0.744612	 -0.000631
C	 -1.945526	 0.411052	 0.000603
H	 -0.794329	 -1.203792	 -0.868145
H	 -0.791555	 -1.205429	 0.862701
C	 -2.445012	 0.710901	 -1.408485
H	 -1.655547	 1.331015	 0.493526
H	 -2.747498	 -0.009209	 0.595245
H	 -1.667154	 1.162667	 -2.015241
H	 -3.283378	 1.396450	 -1.383429
H	 -2.772429	 -0.192760	 -1.911995
C	 2.884339	 -0.237801	 0.002883
H	 3.064150	 0.362814	 -0.876312
H	 3.533055	 -1.098529	 0.004958
H	 3.059365	 0.363432	 0.882614

	symmetry c1
}
set optking {
	frozen_dihedral = ("
		9 5 3 6
	")
}

ee = optimize('scf')
oeprop('DIPOLE', 'QUADRUPOLE', 'MULLIKEN_CHARGES')
f=open( 'psi4out.xyz', 'w' )
f.write( "17  " )
f.write( str(ee) + "\n" )
f.write( MOL.save_string_xyz() )
f.close()
--------------------------------------------------------------------------

    Molecular point group: c1
  Charge       = 0
  Multiplicity = 1
  Basis Set: CC-PVTZ
  Basis Set:
  @DF-RHF Final Energy:  -345.03264097688447
    Total Energy =                       -345.0326409768849771
    Molecular point group: c1
  Basis Set: CC-PVTZ
  Basis Set:
  Basis Set: CC-PVTZ
  Basis Set:
  @DF-RHF Final Energy:  -345.03284005840851
    Total Energy =                       -345.0328400584085102
  Basis Set: CC-PVTZ
  Basis Set:
  Basis Set: CC-PVTZ
  Basis Set:
  @DF-RHF Final Energy:  -345.03291552860441
    Total Energy =                       -345.0329155286044056
  Basis Set: CC-PVTZ
  Basis Set:
  Basis Set: CC-PVTZ
  Basis Set:
  @DF-RHF Final Energy:  -345.03302392230086
    Total Energy =                       -345.0330239223007993
  Basis Set: CC-PVTZ
  Basis Set:
  Basis Set: CC-PVTZ
  Basis Set:
  @DF-RHF Final Energy:  -345.03305406236314
    Total Energy =                       -345.0330540623629645
  Basis Set: CC-PVTZ
  Basis Set:
  Basis Set: CC-PVTZ
  Basis Set:
  @DF-RHF Final Energy:  -345.03305600278276
    Total Energy =                       -345.0330560027827005
  Basis Set: CC-PVTZ
  Basis Set:
  Basis Set: CC-PVTZ
  Basis Set:
  @DF-RHF Final Energy:  -345.03305709823934
    Total Energy =                       -345.0330570982396239
  Basis Set: CC-PVTZ
  Basis Set:
  Charge       = 0
  Multiplicity = 1
  Basis Set: CC-PVTZ
  Basis Set:

    Orbital Energies (a.u.)
    -----------------------

    Doubly Occupied:

       1A    -20.597176     2A    -20.535344     3A    -11.365649
       4A    -11.279157     5A    -11.234441     6A    -11.219109
       7A    -11.208090     8A     -1.473330     9A     -1.366866
      10A     -1.079573    11A     -1.001296    12A     -0.938752
      13A     -0.829110    14A     -0.768388    15A     -0.704129
      16A     -0.685349    17A     -0.676177    18A     -0.621664
      19A     -0.613491    20A     -0.569676    21A     -0.568169
      22A     -0.535348    23A     -0.525481    24A     -0.488195
      25A     -0.483204    26A     -0.481724    27A     -0.461234
      28A     -0.441988

  @DF-RHF Final Energy:  -345.03305756529056

   => Energetics <=

    Nuclear Repulsion Energy =            316.8409086463883000
    One-Electron Energy =               -1098.2437093141329569
    Two-Electron Energy =                 436.3697431024543789
    DFT Exchange-Correlation Energy =       0.0000000000000000
    Empirical Dispersion Energy =           0.0000000000000000
    PCM Polarization Energy =               0.0000000000000000
    EFP Energy =                            0.0000000000000000
    Total Energy =                       -345.0330575652903349
    Molecular point group: c1
  Basis Set: CC-PVTZ
  Basis Set:

  -Total Gradient:
     Atom            X                  Y                   Z
    ------   -----------------  -----------------  -----------------
       1       -0.000041131427     0.000001714539     0.000016276306
       2        0.000025811685     0.000031340400     0.000044416800
       3       -0.002157559764    -0.002842420727     0.001479943007
       4       -0.000025963209    -0.000014972499    -0.000015814486
       5       -0.000794349916    -0.000774166189     0.003269868367
       6        0.001904671501     0.002395880553    -0.001828560957
       7        0.000000386225     0.000065496469     0.000064707863
       8       -0.000069449781    -0.000082793645     0.000003824651
       9        0.001135096964     0.001292316087    -0.003006073312
      10        0.000039021030    -0.000063794796    -0.000045861857
      11       -0.000002630001    -0.000013467016     0.000030996989
      12        0.000001538727     0.000002242056    -0.000013336159
      13       -0.000012212843     0.000005825279    -0.000013423373
      14       -0.000002165057     0.000001115274     0.000017176468
      15       -0.000005327680    -0.000004241753     0.000003078578
      16       -0.000000903944     0.000000324445    -0.000001502121
      17        0.000005167487    -0.000000398479    -0.000005716762

  **** Optimization is complete! (in 8 steps) ****
    Final optimized geometry and variables:
    Molecular point group: c1

    Geometry (in Angstrom), charge = 0, multiplicity = 1:

    O            0.622334350024     1.152907413419     0.175035710619
    C            0.450082413642    -0.017851906129     0.208217276734
    C           -0.890260826991    -0.714222984509     0.236108472415
    O            1.440930772976    -0.893942356429     0.222292299723
    C           -2.083504473140     0.241918454457     0.212981812988
    H           -0.895233858072    -1.372549819836    -0.626213569550
    H           -0.895092976358    -1.350476330195     1.112823551541
    C           -2.547430461023     0.577795448051    -1.202318239944
    H           -1.805385598301     1.162659028091     0.707187504422
    H           -2.903276602835    -0.200142880418     0.766718283659
    H           -1.747300085631     1.034465977775    -1.773420005607
    H           -3.377260428769     1.274396828304    -1.182472178301
    H           -2.873889526663    -0.311721213910    -1.731485614585
    C            2.759091981438    -0.384630805081     0.196481086189
    H            2.927187422061     0.192617075118    -0.700577680780
    H            3.410241528291    -1.243426682254     0.213861578406
    H            2.943337668537     0.240445038819     1.057576411445

  Mulliken Charges: (a.u.)
   Center  Symbol    Alpha    Beta     Spin     Total
       1     O     4.19819  4.19819  0.00000 -0.39638
       2     C     2.80434  2.80434  0.00000  0.39132
       3     C     3.10369  3.10369  0.00000 -0.20737
       4     O     4.14686  4.14686  0.00000 -0.29371
       5     C     3.08755  3.08755  0.00000 -0.17510
       6     H     0.44130  0.44130  0.00000  0.11741
       7     H     0.43224  0.43224  0.00000  0.13552
       8     C     3.14935  3.14935  0.00000 -0.29870
       9     H     0.44271  0.44271  0.00000  0.11458
      10     H     0.44767  0.44767  0.00000  0.10466
      11     H     0.44907  0.44907  0.00000  0.10185
      12     H     0.44833  0.44833  0.00000  0.10333
      13     H     0.45809  0.45809  0.00000  0.08382
      14     C     3.03660  3.03660  0.00000 -0.07320
      15     H     0.45442  0.45442  0.00000  0.09116
      16     H     0.44536  0.44536  0.00000  0.10927
      17     H     0.45424  0.45424  0.00000  0.09153

   Total alpha = 28.00000, Total beta = 28.00000, Total charge =  0.00000
