  ==> Input File <==

--------------------------------------------------------------------------
set {
	reference rhf
	basis 6-31G*
}

set_num_threads( 4 )
memory 2 gb

molecule MOL {
0 1

H	 -3.561337	 0.445705	 -0.401055
O	 -3.107012	 -0.263293	 0.033141
C	 -1.775923	 -0.075050	 0.004252
C	 -1.197321	 1.037178	 -0.600040
C	 -0.981148	 -1.042110	 0.606907
H	 -1.820525	 1.782055	 -1.064891
C	 0.174545	 1.177903	 -0.599214
H	 -1.450996	 -1.890877	 1.066372
C	 0.389400	 -0.887252	 0.599539
H	 0.634414	 2.030954	 -1.061733
C	 0.984182	 0.218375	 0.000000
H	 1.005756	 -1.636377	 1.066422
C	 2.452467	 0.370529	 0.000000
O	 3.228994	 -0.533774	 0.000000
H	 2.809473	 1.405765	 0.000000

	symmetry c1
}
set optking {
	frozen_dihedral = ("
		7 11 13 14
	")
}

ee = optimize('scf')
oeprop('DIPOLE', 'QUADRUPOLE', 'MULLIKEN_CHARGES')
f=open( 'psi4out.xyz', 'w' )
f.write( "15  " )
f.write( str(ee) + "\n" )
f.write( MOL.save_string_xyz() )
f.close()
--------------------------------------------------------------------------

    Molecular point group: c1
  Charge       = 0
  Multiplicity = 1
  Basis Set: 6-31G*
  Basis Set:
  @DF-RHF Final Energy:  -418.28578146684589
    Total Energy =                       -418.2857814668460605
    Molecular point group: c1
  Basis Set: 6-31G*
  Basis Set:
  Basis Set: 6-31G*
  Basis Set:
  @DF-RHF Final Energy:  -418.28493551836470
    Total Energy =                       -418.2849355183648186
  Basis Set: 6-31G*
  Basis Set:
  Basis Set: 6-31G*
  Basis Set:
  @DF-RHF Final Energy:  -418.28638162493274
    Total Energy =                       -418.2863816249326874
  Basis Set: 6-31G*
  Basis Set:
  Basis Set: 6-31G*
  Basis Set:
  @DF-RHF Final Energy:  -418.28661579634678
    Total Energy =                       -418.2866157963472915
  Basis Set: 6-31G*
  Basis Set:
  Basis Set: 6-31G*
  Basis Set:
  @DF-RHF Final Energy:  -418.28662156293910
    Total Energy =                       -418.2866215629389899
  Basis Set: 6-31G*
  Basis Set:
  Charge       = 0
  Multiplicity = 1
  Basis Set: 6-31G*
  Basis Set:

    Orbital Energies (a.u.)
    -----------------------

    Doubly Occupied:

       1A    -20.609818     2A    -20.558496     3A    -11.329061
       4A    -11.322109     5A    -11.262496     6A    -11.253524
       7A    -11.244838     8A    -11.239734     9A    -11.237332
      10A     -1.430687    11A     -1.399188    12A     -1.170149
      13A     -1.042229    14A     -1.036557    15A     -0.892828
      16A     -0.858263    17A     -0.802809    18A     -0.755970
      19A     -0.696184    20A     -0.685213    21A     -0.640394
      22A     -0.625910    23A     -0.608375    24A     -0.607010
      25A     -0.584910    26A     -0.557929    27A     -0.543848
      28A     -0.506088    29A     -0.484874    30A     -0.419295
      31A     -0.356510    32A     -0.326230

  @DF-RHF Final Energy:  -418.28662324427995

   => Energetics <=

    Nuclear Repulsion Energy =            401.3429604365570071
    One-Electron Energy =               -1365.0814544486652267
    Two-Electron Energy =                 545.4518707678286091
    DFT Exchange-Correlation Energy =       0.0000000000000000
    Empirical Dispersion Energy =           0.0000000000000000
    PCM Polarization Energy =               0.0000000000000000
    EFP Energy =                            0.0000000000000000
    Total Energy =                       -418.2866232442796672
    Molecular point group: c1
  Basis Set: 6-31G*
  Basis Set:

  -Total Gradient:
     Atom            X                  Y                   Z
    ------   -----------------  -----------------  -----------------
       1       -0.000017130416     0.000000247836     0.000001796717
       2       -0.000003593063     0.000055082383     0.000000182523
       3        0.000039485945    -0.000146271589    -0.000028172894
       4        0.000055310018     0.000022415187    -0.000025386992
       5       -0.000084374696     0.000078824222     0.000021346486
       6       -0.000021551165    -0.000007300790     0.000013987379
       7       -0.000049231756    -0.002771310252    -0.004385790552
       8        0.000012610355     0.000004620973    -0.000003985637
       9        0.000061747675     0.000095316605     0.000002277752
      10        0.000004111764    -0.000023243217    -0.000003085026
      11       -0.000093114288     0.003859031658     0.003542738465
      12       -0.000001693855    -0.000001708640    -0.000012020807
      13        0.000377663896    -0.000859426340     0.007325638340
      14       -0.000265311687    -0.000302647839    -0.006443463428
      15       -0.000014928719    -0.000003630198    -0.000006062327

  **** Optimization is complete! (in 6 steps) ****
    Final optimized geometry and variables:
    Molecular point group: c1

    Geometry (in Angstrom), charge = 0, multiplicity = 1:

    H           -3.559042087077     0.434810655769    -0.447647043494
    O           -3.104120632747    -0.268569680447    -0.005257201582
    C           -1.774117843043    -0.065481310764    -0.014122527341
    C           -1.196087659609     1.048511644442    -0.603073043720
    C           -0.978752032188    -1.031722824883     0.598881337104
    H           -1.812200956931     1.787547060054    -1.085876819593
    C            0.179724309000     1.201070300867    -0.564253181201
    H           -1.451947224455    -1.887779889332     1.041607567867
    C            0.387397578734    -0.877015496171     0.610700942538
    H            0.624723826776     2.069762709532    -1.018532045221
    C            0.983084329561     0.253839145434     0.049400386644
    H            1.013074098972    -1.627274232356     1.057133295956
    C            2.456098013954     0.375635915931    -0.016724802644
    O            3.209217659125    -0.547153199746    -0.002776398774
    H            2.834608977336     1.395304151489    -0.143229559635

  Mulliken Charges: (a.u.)
   Center  Symbol    Alpha    Beta     Spin     Total
       1     H     0.26907  0.26907  0.00000  0.46186
       2     O     4.37309  4.37309  0.00000 -0.74618
       3     C     2.78612  2.78612  0.00000  0.42776
       4     C     3.14781  3.14781  0.00000 -0.29562
       5     C     3.12625  3.12625  0.00000 -0.25250
       6     H     0.39920  0.39920  0.00000  0.20160
       7     C     3.09288  3.09288  0.00000 -0.18576
       8     H     0.38570  0.38570  0.00000  0.22859
       9     C     3.07956  3.07956  0.00000 -0.15912
      10     H     0.39068  0.39068  0.00000  0.21863
      11     C     3.06126  3.06126  0.00000 -0.12252
      12     H     0.37782  0.37782  0.00000  0.24435
      13     C     2.83802  2.83802  0.00000  0.32396
      14     O     4.24602  4.24602  0.00000 -0.49204
      15     H     0.42652  0.42652  0.00000  0.14697

   Total alpha = 32.00000, Total beta = 32.00000, Total charge =  0.00000
