  ==> Input File <==

--------------------------------------------------------------------------
set {
	reference rhf
	basis cc-pvtz
}

set_num_threads( 4 )
memory 2 gb

molecule MOL {
0 1

H	 -1.088256	 -1.364742	 0.152233
O	 -1.432053	 -0.565244	 -0.200812
C	 -0.727158	 0.534527	 0.310686
C	 0.680222	 0.664433	 -0.252229
H	 -1.306802	 1.408001	 0.044211
H	 -0.690821	 0.490158	 1.397609
C	 1.774323	 0.662384	 0.811249
H	 0.848966	 -0.146260	 -0.953324
H	 0.729924	 1.589705	 -0.819725
H	 1.794617	 -0.272819	 1.359982
H	 2.751974	 0.790506	 0.362545
H	 1.631279	 1.468436	 1.524533

	symmetry c1
}
set optking {
	frozen_dihedral = ("
		8 4 3 2
	")
}

ee = optimize('scf')
oeprop('DIPOLE', 'QUADRUPOLE', 'MULLIKEN_CHARGES')
f=open( 'psi4out.xyz', 'w' )
f.write( "12  " )
f.write( str(ee) + "\n" )
f.write( MOL.save_string_xyz() )
f.close()
--------------------------------------------------------------------------

    Molecular point group: c1
  Charge       = 0
  Multiplicity = 1
  Basis Set: CC-PVTZ
  Basis Set:
  @DF-RHF Final Energy:  -193.18408490458918
    Total Energy =                       -193.1840849045890991
    Molecular point group: c1
  Basis Set: CC-PVTZ
  Basis Set:
  Basis Set: CC-PVTZ
  Basis Set:
  @DF-RHF Final Energy:  -193.18450307650838
    Total Energy =                       -193.1845030765084630
  Basis Set: CC-PVTZ
  Basis Set:
  Basis Set: CC-PVTZ
  Basis Set:
  @DF-RHF Final Energy:  -193.18458060001527
    Total Energy =                       -193.1845806000153516
  Basis Set: CC-PVTZ
  Basis Set:
  Basis Set: CC-PVTZ
  Basis Set:
  @DF-RHF Final Energy:  -193.18458538795278
    Total Energy =                       -193.1845853879527795
  Basis Set: CC-PVTZ
  Basis Set:
  Charge       = 0
  Multiplicity = 1
  Basis Set: CC-PVTZ
  Basis Set:

    Orbital Energies (a.u.)
    -----------------------

    Doubly Occupied:

       1A    -20.545574     2A    -11.265953     3A    -11.217024
       4A    -11.214650     5A     -1.363217     6A     -1.050726
       7A     -0.921026     8A     -0.818306     9A     -0.694114
      10A     -0.639186    11A     -0.596094    12A     -0.572986
      13A     -0.566571    14A     -0.509361    15A     -0.488405
      16A     -0.464433    17A     -0.432131

  @DF-RHF Final Energy:  -193.18458580626248

   => Energetics <=

    Nuclear Repulsion Energy =            131.1885328118979714
    One-Electron Energy =                -522.0267264798744691
    Two-Electron Energy =                 197.6536078617141641
    DFT Exchange-Correlation Energy =       0.0000000000000000
    Empirical Dispersion Energy =           0.0000000000000000
    PCM Polarization Energy =               0.0000000000000000
    EFP Energy =                            0.0000000000000000
    Total Energy =                       -193.1845858062623336
    Molecular point group: c1
  Basis Set: CC-PVTZ
  Basis Set:

  -Total Gradient:
     Atom            X                  Y                   Z
    ------   -----------------  -----------------  -----------------
       1       -0.000000328082    -0.000021809324    -0.000004930298
       2        0.000020947521    -0.000090660134     0.000124090334
       3       -0.000074683185     0.000152789677    -0.000172718009
       4        0.000132582439    -0.000119241028     0.000201580881
       5        0.000023107613     0.000012287662    -0.000009966180
       6       -0.000003625048    -0.000029804133    -0.000015278639
       7        0.000008906243    -0.000030591224    -0.000032682541
       8       -0.000057360836     0.000093678947    -0.000105669647
       9       -0.000031196949     0.000020072096     0.000014143883
      10       -0.000001635705     0.000009620833     0.000003713644
      11       -0.000002567743    -0.000014438564     0.000015578312
      12       -0.000014146272     0.000018095190    -0.000017861740

  **** Optimization is complete! (in 5 steps) ****
    Final optimized geometry and variables:
    Molecular point group: c1

    Geometry (in Angstrom), charge = 0, multiplicity = 1:

    H           -1.068935602505    -1.654026667126    -0.089585209313
    O           -1.484860640617    -0.855215904330    -0.358473094071
    C           -0.776557168933     0.247073098728     0.144891448228
    C            0.644460316633     0.380920849310    -0.431334499827
    H           -1.372419176072     1.111676525850    -0.110142677437
    H           -0.735618939301     0.197583623467     1.230151461507
    C            1.740887730107     0.374769464682     0.630006485389
    H            0.801622922036    -0.434230959827    -1.128684173559
    H            0.718919555169     1.291645767792    -1.015235299998
    H            1.722380569710    -0.542805820370     1.209773202387
    H            2.722835624803     0.461790980122     0.179977349518
    H            1.621433579619     1.201531401155     1.322222539190

  Mulliken Charges: (a.u.)
   Center  Symbol    Alpha    Beta     Spin     Total
       1     H     0.39501  0.39501  0.00000  0.20998
       2     O     4.20134  4.20134  0.00000 -0.40268
       3     C     2.97052  2.97052  0.00000  0.05896
       4     C     3.09720  3.09720  0.00000 -0.19439
       5     H     0.45429  0.45429  0.00000  0.09143
       6     H     0.47079  0.47079  0.00000  0.05842
       7     C     3.14943  3.14943  0.00000 -0.29886
       8     H     0.44964  0.44964  0.00000  0.10072
       9     H     0.45193  0.45193  0.00000  0.09613
      10     H     0.45753  0.45753  0.00000  0.08493
      11     H     0.44801  0.44801  0.00000  0.10399
      12     H     0.45432  0.45432  0.00000  0.09136

   Total alpha = 17.00000, Total beta = 17.00000, Total charge =  0.00000
