                              Psi4 1.0.54 Driver

  ==> Input File <==

--------------------------------------------------------------------------
set {
	reference rhf
	basis cc-pvtz
}

set_num_threads( 4 )
memory 2 gb

molecule MOL {
0 1

O	 3.219313	 0.959291	 -0.614106
C	 2.698710	 0.058177	 -0.050237
C	 1.246364	 -0.005813	 0.348416
O	 3.344101	 -1.038700	 0.312317
C	 0.453207	 1.232821	 -0.049003
H	 0.839270	 -0.907818	 -0.092281
H	 1.216683	 -0.160521	 1.422434
C	 -0.998367	 1.217982	 0.432195
H	 0.481498	 1.345443	 -1.127236
H	 0.951413	 2.105557	 0.354893
C	 -1.882951	 0.151251	 -0.211235
H	 -1.429490	 2.193659	 0.228843
H	 -1.019755	 1.099323	 1.513279
C	 -3.342450	 0.243269	 0.226009
H	 -1.826223	 0.246578	 -1.293162
H	 -1.508033	 -0.839650	 0.027695
C	 -3.837896	 -1.001937	 0.955919
H	 -3.967861	 0.419238	 -0.645906
H	 -3.470302	 1.109921	 0.870549
C	 -5.297148	 -0.903141	 1.387890
H	 -3.710971	 -1.868726	 0.313044
H	 -3.215567	 -1.177628	 1.829243
H	 -5.616518	 -1.802082	 1.902566
H	 -5.949715	 -0.762443	 0.532631
H	 -5.450512	 -0.065295	 2.059978
C	 4.720529	 -1.114346	 0.001449
H	 4.874321	 -1.055557	 -1.065852
H	 5.057824	 -2.067950	 0.373977
H	 5.264321	 -0.313596	 0.480350

	symmetry c1
}
set optking {
	frozen_dihedral = ("
		17 14 11 15
	")
}

ee,wfn = optimize('scf', return_wfn=True)
oeprop( wfn, 'DIPOLE', 'QUADRUPOLE', 'MULLIKEN_CHARGES')
f=open( 'psi4out.xyz', 'w' )
f.write( "29  " )
f.write( str(ee) + "\n" )
f.write( MOL.save_string_xyz() )
f.close()
--------------------------------------------------------------------------

    Molecular point group: c1
  Charge       = 0
  Multiplicity = 1
  Basis Set: CC-PVTZ
  Basis Set:
  @DF-RHF Final Energy:  -501.21927491926567
    Total Energy =                       -501.2192749192658994
    Molecular point group: c1
  Basis Set: CC-PVTZ
  Basis Set:
  Basis Set: CC-PVTZ
  Basis Set:
  @DF-RHF Final Energy:  -501.21950264376051
    Total Energy =                       -501.2195026437603929
  Basis Set: CC-PVTZ
  Basis Set:
  Basis Set: CC-PVTZ
  Basis Set:
  @DF-RHF Final Energy:  -501.21955318884670
    Total Energy =                       -501.2195531888469304
  Basis Set: CC-PVTZ
  Basis Set:
  Basis Set: CC-PVTZ
  Basis Set:
  @DF-RHF Final Energy:  -501.21945195365254
    Total Energy =                       -501.2194519536521966
  Basis Set: CC-PVTZ
  Basis Set:
  Basis Set: CC-PVTZ
  Basis Set:
  @DF-RHF Final Energy:  -501.21957616199040
    Total Energy =                       -501.2195761619905170
  Basis Set: CC-PVTZ
  Basis Set:
  Charge       = 0
  Multiplicity = 1
  Basis Set: CC-PVTZ
  Basis Set:

    Orbital Energies (a.u.)
    -----------------------

    Doubly Occupied:

       1A    -20.596014     2A    -20.533858     3A    -11.364281
       4A    -11.278264     5A    -11.232996     6A    -11.216941
       7A    -11.216033     8A    -11.214718     9A    -11.213434
      10A    -11.212062    11A    -11.207163    12A     -1.471895
      13A     -1.365489    14A     -1.098337    15A     -1.067183
      16A     -1.020218    17A     -0.977382    18A     -0.928864
      19A     -0.862790    20A     -0.804187    21A     -0.789294
      22A     -0.765820    23A     -0.702698    24A     -0.685441
      25A     -0.675929    26A     -0.638501    27A     -0.632959
      28A     -0.612453    29A     -0.596212    30A     -0.581498
      31A     -0.564309    32A     -0.555156    33A     -0.539321
      34A     -0.527134    35A     -0.518129    36A     -0.510548
      37A     -0.496230    38A     -0.478039    39A     -0.475217
      40A     -0.461397    41A     -0.458816    42A     -0.451823
      43A     -0.444224    44A     -0.437525

  @DF-RHF Final Energy:  -501.21957624735307

   => Energetics <=

    Nuclear Repulsion Energy =            613.6561907512131029
    One-Electron Energy =               -1898.7899727238377636
    Two-Electron Energy =                 783.9142057252718132
    DFT Exchange-Correlation Energy =       0.0000000000000000
    Empirical Dispersion Energy =           0.0000000000000000
    PCM Polarization Energy =               0.0000000000000000
    EFP Energy =                            0.0000000000000000
    Total Energy =                       -501.2195762473527338
    Molecular point group: c1
  Basis Set: CC-PVTZ
  Basis Set:

  -Total Gradient:
     Atom            X                  Y                   Z
    ------   -----------------  -----------------  -----------------
       1        0.000005175275     0.000057839865    -0.000001625415
       2       -0.000018279927    -0.000048535577    -0.000047943298
       3        0.000012888755     0.000003073283     0.000014110648
       4       -0.000012158827    -0.000015940551     0.000026933941
       5        0.000009500922    -0.000001882778    -0.000012944830
       6        0.000000035056    -0.000004226219     0.000000753560
       7       -0.000001980081     0.000001318859     0.000001212443
       8       -0.000007841771     0.000012791752     0.000016610661
       9        0.000008786796     0.000005263525    -0.000005392067
      10       -0.000002682843    -0.000007742240     0.000002638328
      11        0.000010632747     0.000251429524    -0.000018145590
      12       -0.000007251523     0.000001296847     0.000002118512
      13       -0.000003171868     0.000007646381     0.000008306289
      14        0.000057881507     0.000040236745     0.000173821724
      15       -0.000026229670    -0.000225787844    -0.000007583095
      16       -0.000000465836    -0.000009049579    -0.000000924884
      17       -0.000045022873    -0.000086781093    -0.000163138598
      18        0.000006872602    -0.000003929651     0.000001692950
      19        0.000002947749     0.000013617471    -0.000005085029
      20        0.000004926191     0.000017373729     0.000010467635
      21       -0.000006938757    -0.000003854554    -0.000002571942
      22        0.000008274393    -0.000010728764     0.000000990667
      23        0.000007247706     0.000001863730     0.000002669237
      24        0.000003318984    -0.000003298584    -0.000000365481
      25       -0.000006701678     0.000004129215     0.000000036317
      26        0.000001087571     0.000006239681     0.000000582120
      27       -0.000003339675    -0.000000884101    -0.000001664476
      28       -0.000002342204    -0.000004706776     0.000002215402
      29        0.000004831293     0.000003227698     0.000002224272

  **** Optimization is complete! (in 6 steps) ****
    Final optimized geometry and variables:
    Molecular point group: c1

    Geometry (in Angstrom), charge = 0, multiplicity = 1:

    O            3.163045458273     0.975192639898    -0.834431047157
    C            2.629430269817     0.086101760877    -0.263641533859
    C            1.170321538022     0.034383248541     0.111477956222
    O            3.264315336327    -1.006531055759     0.129062278033
    C            0.389183584714     1.269380737502    -0.319988997871
    H            0.767332130364    -0.873585479320    -0.320585960986
    H            1.121999052146    -0.101968853503     1.187297921914
    C           -1.070153857817     1.269458380601     0.136157021031
    H            0.436328589679     1.364151983817    -1.399355997981
    H            0.884477388264     2.146564057375     0.077905710603
    C           -1.953336400162     0.203769565211    -0.513558889596
    H           -1.491595472163     2.245864168794    -0.082942091274
    H           -1.112648163344     1.160029384513     1.218008223642
    C           -3.428262442058     0.279397976798    -0.068262269696
    H           -1.886328556549     0.305941156646    -1.592206079795
    H           -1.565017070901    -0.782823182516    -0.284195702594
    C           -3.916910693233    -0.973781328754     0.655038264209
    H           -4.065277910531     0.456141504718    -0.929135389056
    H           -3.568389999056     1.136261899939     0.584419197928
    C           -5.368876727916    -0.877197833447     1.109548203003
    H           -3.800190799871    -1.832859587147    -0.000023699784
    H           -3.280562942478    -1.160449782858     1.516484543715
    H           -5.683107931943    -1.781934728081     1.617257515971
    H           -6.033347304566    -0.723893028347     0.265606173578
    H           -5.510404405737    -0.047498211193     1.794244049306
    C            4.645462133715    -1.092704066151    -0.157217916252
    H            4.817322611801    -1.053275487296    -1.222656126281
    H            4.972722023077    -2.040841733116     0.237583752586
    H            5.184344987496    -0.285638730947     0.316632604064

  Mulliken Charges: (a.u.)
   Center  Symbol    Alpha    Beta     Spin     Total
       1     O     4.19700  4.19700  0.00000 -0.39399
       2     C     2.80485  2.80485  0.00000  0.39031
       3     C     3.10166  3.10166  0.00000 -0.20331
       4     O     4.14727  4.14727  0.00000 -0.29454
       5     C     3.09328  3.09328  0.00000 -0.18657
       6     H     0.43919  0.43919  0.00000  0.12163
       7     H     0.43978  0.43978  0.00000  0.12044
       8     C     3.10241  3.10241  0.00000 -0.20481
       9     H     0.44625  0.44625  0.00000  0.10750
      10     H     0.43956  0.43956  0.00000  0.12088
      11     C     3.10176  3.10176  0.00000 -0.20352
      12     H     0.44420  0.44420  0.00000  0.11161
      13     H     0.45349  0.45349  0.00000  0.09302
      14     C     3.09244  3.09244  0.00000 -0.18487
      15     H     0.44729  0.44729  0.00000  0.10542
      16     H     0.45304  0.45304  0.00000  0.09392
      17     C     3.08380  3.08380  0.00000 -0.16759
      18     H     0.44828  0.44828  0.00000  0.10345
      19     H     0.45482  0.45482  0.00000  0.09036
      20     C     3.15033  3.15033  0.00000 -0.30066
      21     H     0.45378  0.45378  0.00000  0.09243
      22     H     0.45514  0.45514  0.00000  0.08972
      23     H     0.44855  0.44855  0.00000  0.10289
      24     H     0.45490  0.45490  0.00000  0.09021
      25     H     0.45490  0.45490  0.00000  0.09020
      26     C     3.03821  3.03821  0.00000 -0.07643
      27     H     0.45435  0.45435  0.00000  0.09130
      28     H     0.44527  0.44527  0.00000  0.10945
      29     H     0.45420  0.45420  0.00000  0.09159

   Total alpha = 44.00000, Total beta = 44.00000, Total charge = -0.00000

*** Psi4 exiting successfully. Buy a developer a beer!
