                              Psi4 1.0.54 Driver

  ==> Input File <==

--------------------------------------------------------------------------
set {
	reference rhf
	basis cc-pvtz
}

set_num_threads( 4 )
memory 2 gb

molecule MOL {
0 1

H	 2.444424	 -0.671388	 -0.180783
C	 1.726677	 0.130716	 -0.216863
O	 0.462329	 -0.453336	 -0.000137
H	 1.774656	 0.607462	 -1.187754
H	 1.960490	 0.852187	 0.555827
C	 -0.590565	 0.341382	 0.000062
O	 -1.693898	 -0.053880	 0.000252
H	 -0.340426	 1.403822	 0.000200

	symmetry c1
}
set optking {
	frozen_dihedral = ("
		2 3 6 7
	")
}

ee,wfn = optimize('scf', return_wfn=True)
oeprop( wfn, 'DIPOLE', 'QUADRUPOLE', 'MULLIKEN_CHARGES')
f=open( 'psi4out.xyz', 'w' )
f.write( "8  " )
f.write( str(ee) + "\n" )
f.write( MOL.save_string_xyz() )
f.close()
--------------------------------------------------------------------------

    Molecular point group: c1
  Charge       = 0
  Multiplicity = 1
  Basis Set: CC-PVTZ
  Basis Set:
  @DF-RHF Final Energy:  -227.86982865920609
    Total Energy =                       -227.8698286592059503
    Molecular point group: c1
  Basis Set: CC-PVTZ
  Basis Set:
  Basis Set: CC-PVTZ
  Basis Set:
  @DF-RHF Final Energy:  -227.86984124519557
    Total Energy =                       -227.8698412451955164
  Basis Set: CC-PVTZ
  Basis Set:
  Basis Set: CC-PVTZ
  Basis Set:
  @DF-RHF Final Energy:  -227.86980432778310
    Total Energy =                       -227.8698043277831005
  Basis Set: CC-PVTZ
  Basis Set:
  Basis Set: CC-PVTZ
  Basis Set:
  @DF-RHF Final Energy:  -227.86990258068857
    Total Energy =                       -227.8699025806886596
  Basis Set: CC-PVTZ
  Basis Set:
  Basis Set: CC-PVTZ
  Basis Set:
  @DF-RHF Final Energy:  -227.86990918053601
    Total Energy =                       -227.8699091805360979
  Basis Set: CC-PVTZ
  Basis Set:
  Charge       = 0
  Multiplicity = 1
  Basis Set: CC-PVTZ
  Basis Set:

    Orbital Energies (a.u.)
    -----------------------

    Doubly Occupied:

       1A    -20.610011     2A    -20.547003     3A    -11.374382
       4A    -11.302168     5A     -1.480079     6A     -1.386215
       7A     -0.994315     8A     -0.849864     9A     -0.740685
      10A     -0.689176    11A     -0.685314    12A     -0.607817
      13A     -0.574144    14A     -0.542662    15A     -0.465805
      16A     -0.457381

  @DF-RHF Final Energy:  -227.86991027690743

   => Energetics <=

    Nuclear Repulsion Energy =            121.5100144420963346
    One-Electron Energy =                -552.1458096208211828
    Two-Electron Energy =                 202.7658849018174010
    DFT Exchange-Correlation Energy =       0.0000000000000000
    Empirical Dispersion Energy =           0.0000000000000000
    PCM Polarization Energy =               0.0000000000000000
    EFP Energy =                            0.0000000000000000
    Total Energy =                       -227.8699102769074329
    Molecular point group: c1
  Basis Set: CC-PVTZ
  Basis Set:

  -Total Gradient:
     Atom            X                  Y                   Z
    ------   -----------------  -----------------  -----------------
       1       -0.000072435081    -0.000010064489     0.000021691753
       2       -0.000089016389     0.000128379657    -0.001119308955
       3        0.000230257244    -0.000066570393     0.001014369368
       4       -0.000009480990    -0.000000545893    -0.000017243014
       5       -0.000002950619    -0.000047774079    -0.000022540712
       6       -0.000194784145    -0.000135495653     0.001527662954
       7        0.000127053639     0.000179525415    -0.001417286407
       8        0.000011356343    -0.000047454566     0.000012655014

  **** Optimization is complete! (in 6 steps) ****
    Final optimized geometry and variables:
    Molecular point group: c1

    Geometry (in Angstrom), charge = 0, multiplicity = 1:

    H            2.455151687321    -0.646586800377     0.015150661739
    C            1.731797556432     0.133386641963    -0.154061485309
    O            0.460111556341    -0.455911919756    -0.012886534892
    H            1.860287168722     0.530848818245    -1.152468111809
    H            1.883970163123     0.921103890550     0.573534551012
    C           -0.584057227437     0.341347284469     0.111286007673
    O           -1.691587448791    -0.038524936635     0.063805313695
    H           -0.320940416656     1.389130274126     0.264985212684

  Mulliken Charges: (a.u.)
   Center  Symbol    Alpha    Beta     Spin     Total
       1     H     0.44022  0.44022  0.00000  0.11956
       2     C     3.03108  3.03108  0.00000 -0.06216
       3     O     4.12122  4.12122  0.00000 -0.24244
       4     H     0.45615  0.45615  0.00000  0.08770
       5     H     0.46334  0.46334  0.00000  0.07332
       6     C     2.83605  2.83605  0.00000  0.32791
       7     O     4.17429  4.17429  0.00000 -0.34859
       8     H     0.47765  0.47765  0.00000  0.04471

   Total alpha = 16.00000, Total beta = 16.00000, Total charge =  0.00000

*** Psi4 exiting successfully. Buy a developer a beer!
