  ==> Input File <==

--------------------------------------------------------------------------
set {
	reference rhf
	basis 6-31G*
}

set_num_threads( 4 )
memory 2 gb

molecule MOL {
0 1

H	 2.453215	 -1.469276	 0.983212
N	 1.468891	 -1.290379	 1.004763
C	 0.806725	 -1.961988	 -0.098500
C	 1.212184	 0.138088	 0.987582
H	 1.010116	 -3.025707	 -0.036020
H	 1.154565	 -1.608641	 -1.072047
C	 -0.692422	 -1.722642	 0.000000
H	 1.709200	 0.595198	 1.836578
H	 1.584582	 0.618630	 0.079815
C	 -0.287214	 0.376133	 1.085409
H	 -1.072725	 -2.208290	 0.903667
H	 -1.189087	 -2.174717	 -0.852349
N	 -0.975995	 -0.298722	 0.000000
H	 -0.491252	 1.439723	 1.016905
H	 -0.640370	 0.031096	 2.061794
C	 -2.393863	 -0.024976	 0.000000
H	 -2.854032	 -0.467193	 -0.876721
H	 -2.854032	 -0.467193	 0.876721
H	 -2.623281	 1.044943	 0.000000

	symmetry c1
}
set optking {
	frozen_dihedral = ("
		7 13 16 19
	")
}

ee = optimize('scf')
oeprop('DIPOLE', 'QUADRUPOLE', 'MULLIKEN_CHARGES')
f=open( 'psi4out.xyz', 'w' )
f.write( "19  " )
f.write( str(ee) + "\n" )
f.write( MOL.save_string_xyz() )
f.close()
--------------------------------------------------------------------------

    Molecular point group: c1
  Charge       = 0
  Multiplicity = 1
  Basis Set: 6-31G*
  Basis Set:
  @DF-RHF Final Energy:  -305.19881291958552
    Total Energy =                       -305.1988129195856345
    Molecular point group: c1
  Basis Set: 6-31G*
  Basis Set:
  Basis Set: 6-31G*
  Basis Set:
  @DF-RHF Final Energy:  -305.19952632529549
    Total Energy =                       -305.1995263252958921
  Basis Set: 6-31G*
  Basis Set:
  Basis Set: 6-31G*
  Basis Set:
  @DF-RHF Final Energy:  -305.19964440850998
    Total Energy =                       -305.1996444085099824
  Basis Set: 6-31G*
  Basis Set:
  Charge       = 0
  Multiplicity = 1
  Basis Set: 6-31G*
  Basis Set:

    Orbital Energies (a.u.)
    -----------------------

    Doubly Occupied:

       1A    -15.541233     2A    -15.536659     3A    -11.238658
       4A    -11.238624     5A    -11.237236     6A    -11.237153
       7A    -11.235014     8A     -1.247615     9A     -1.185825
      10A     -1.022947    11A     -0.964601    12A     -0.860779
      13A     -0.857174    14A     -0.757355    15A     -0.691296
      16A     -0.633660    17A     -0.626743    18A     -0.608041
      19A     -0.603484    20A     -0.579633    21A     -0.543484
      22A     -0.528753    23A     -0.512060    24A     -0.490464
      25A     -0.466256    26A     -0.456946    27A     -0.363420
      28A     -0.345960

  @DF-RHF Final Energy:  -305.19964546775867

   => Energetics <=

    Nuclear Repulsion Energy =            339.9052681056414826
    One-Electron Energy =               -1086.9876841898228577
    Two-Electron Energy =                 441.8827706164226470
    DFT Exchange-Correlation Energy =       0.0000000000000000
    Empirical Dispersion Energy =           0.0000000000000000
    PCM Polarization Energy =               0.0000000000000000
    EFP Energy =                            0.0000000000000000
    Total Energy =                       -305.1996454677587849
    Molecular point group: c1
  Basis Set: 6-31G*
  Basis Set:

  -Total Gradient:
     Atom            X                  Y                   Z
    ------   -----------------  -----------------  -----------------
       1        0.000011604376     0.000006631969     0.000014493980
       2        0.000030397195    -0.000011013127     0.000015032101
       3       -0.000020172769     0.000140152807    -0.000033349748
       4       -0.000011526111    -0.000007509887     0.000031475734
       5       -0.000057866444     0.000026248818     0.000001000665
       6        0.000031789631    -0.000004457270    -0.000027447682
       7       -0.000112671350    -0.000037047408     0.000733780754
       8        0.000011367251    -0.000007039162     0.000002661148
       9       -0.000011108940    -0.000007229679     0.000001775071
      10       -0.000042856052     0.000004875513    -0.000038680625
      11       -0.000011059209     0.000010743147     0.000011519181
      12       -0.000019317154     0.000005079957    -0.000009541271
      13        0.000029446579    -0.000044954245    -0.000755736796
      14        0.000002405288     0.000007903266     0.000008504881
      15        0.000025468228     0.000002063616    -0.000004044571
      16        0.000033671480    -0.000064104937    -0.000857976186
      17        0.000047168301    -0.000012621149    -0.000003244750
      18        0.000017350792    -0.000015865986     0.000011428128
      19        0.000045908910     0.000008143756     0.000898349985

  **** Optimization is complete! (in 4 steps) ****
    Final optimized geometry and variables:
    Molecular point group: c1

    Geometry (in Angstrom), charge = 0, multiplicity = 1:

    H            2.588616443202    -0.779799797966     0.551158562483
    N            1.603832018235    -0.603808853305     0.574977314563
    C            0.940511029174    -1.277104258247    -0.526556709056
    C            1.342628079491     0.823834665697     0.559505824870
    H            1.145408627187    -2.340526917496    -0.463891170578
    H            1.285704021348    -0.924027881454    -1.501144481358
    C           -0.558669998137    -1.040109283749    -0.424794027612
    H            1.839410179236     1.281862109035     1.408199190568
    H            1.712292449593     1.306310740241    -0.348327364901
    C           -0.157310583501     1.057970793319     0.658935852133
    H           -0.935851293143    -1.522964356345     0.481563666848
    H           -1.057274574259    -1.495896842818    -1.274203452096
    N           -0.845264569030     0.383317284354    -0.427827013578
    H           -0.363387687969     2.121237522433     0.592736528322
    H           -0.508359570299     0.710167463463     1.635050293320
    C           -2.265176701971     0.648056211234    -0.421804433403
    H           -2.722594936462     0.228763424500    -1.311151549253
    H           -2.773185183886     0.228316250720     0.451868585310
    H           -2.439397488786     1.718180542885    -0.424269575621

  Mulliken Charges: (a.u.)
   Center  Symbol    Alpha    Beta     Spin     Total
       1     H     0.32947  0.32947  0.00000  0.34107
       2     N     3.85426  3.85426  0.00000 -0.70851
       3     C     3.06337  3.06337  0.00000 -0.12674
       4     C     3.06344  3.06344  0.00000 -0.12689
       5     H     0.41759  0.41759  0.00000  0.16481
       6     H     0.42759  0.42759  0.00000  0.14482
       7     C     3.05541  3.05541  0.00000 -0.11082
       8     H     0.41758  0.41758  0.00000  0.16484
       9     H     0.42761  0.42761  0.00000  0.14477
      10     C     3.05537  3.05537  0.00000 -0.11073
      11     H     0.42780  0.42780  0.00000  0.14441
      12     H     0.41867  0.41867  0.00000  0.16267
      13     N     3.78750  3.78750  0.00000 -0.57499
      14     H     0.41863  0.41863  0.00000  0.16273
      15     H     0.42798  0.42798  0.00000  0.14403
      16     C     3.14015  3.14015  0.00000 -0.28030
      17     H     0.41671  0.41671  0.00000  0.16658
      18     H     0.43349  0.43349  0.00000  0.13302
      19     H     0.41738  0.41738  0.00000  0.16524

   Total alpha = 28.00000, Total beta = 28.00000, Total charge =  0.00000
