  ==> Input File <==

--------------------------------------------------------------------------
set {
	reference rhf
	basis 6-31G*
}

set_num_threads( 4 )
memory 2 gb

molecule MOL {
0 1

H	 -3.161837	 0.500524	 -0.000234
C	 -2.367097	 -0.232926	 -0.000000
O	 -1.158440	 0.455814	 -0.000122
H	 -2.468853	 -0.861886	 -0.882833
H	 -2.468942	 -0.861421	 0.883154
C	 -0.667027	 0.752918	 -1.272174
C	 0.647405	 1.499960	 -1.127742
H	 -1.388747	 1.359153	 -1.821263
H	 -0.519844	 -0.165695	 -1.841731
C	 1.261569	 1.868426	 -2.477525
H	 0.471750	 2.395000	 -0.538922
H	 1.334633	 0.880850	 -0.559305
H	 0.598933	 2.508877	 -3.052989
H	 2.198024	 2.399711	 -2.344732
H	 1.467337	 0.983907	 -3.073923

	symmetry c1
}
set optking {
	frozen_dihedral = ("
		6 3 2 4
	")
}

ee = optimize('scf')
oeprop('DIPOLE', 'QUADRUPOLE', 'MULLIKEN_CHARGES')
f=open( 'psi4out.xyz', 'w' )
f.write( "15  " )
f.write( str(ee) + "\n" )
f.write( MOL.save_string_xyz() )
f.close()
--------------------------------------------------------------------------

    Molecular point group: c1
  Charge       = 0
  Multiplicity = 1
  Basis Set: 6-31G*
  Basis Set:
  @DF-RHF Final Energy:  -232.13655895611544
    Total Energy =                       -232.1365589561154366
    Molecular point group: c1
  Basis Set: 6-31G*
  Basis Set:
  Basis Set: 6-31G*
  Basis Set:
  @DF-RHF Final Energy:  -232.13726621704706
    Total Energy =                       -232.1372662170468857
  Basis Set: 6-31G*
  Basis Set:
  Basis Set: 6-31G*
  Basis Set:
  @DF-RHF Final Energy:  -232.13743685509948
    Total Energy =                       -232.1374368550993950
  Basis Set: 6-31G*
  Basis Set:
  Basis Set: 6-31G*
  Basis Set:
  @DF-RHF Final Energy:  -232.13743798247856
    Total Energy =                       -232.1374379824786160
  Basis Set: 6-31G*
  Basis Set:
  Charge       = 0
  Multiplicity = 1
  Basis Set: 6-31G*
  Basis Set:

    Orbital Energies (a.u.)
    -----------------------

    Doubly Occupied:

       1A    -20.551384     2A    -11.266589     3A    -11.263734
       4A    -11.213986     5A    -11.212809     6A     -1.375585
       7A     -1.057074     8A     -0.955305     9A     -0.877369
      10A     -0.808993    11A     -0.672577    12A     -0.653057
      13A     -0.630232    14A     -0.607056    15A     -0.565147
      16A     -0.543085    17A     -0.502332    18A     -0.489353
      19A     -0.478352    20A     -0.461007    21A     -0.410433

  @DF-RHF Final Energy:  -232.13743826398721

   => Energetics <=

    Nuclear Repulsion Energy =            189.5599809885323168
    One-Electron Energy =                -690.2039234164176378
    Two-Electron Energy =                 268.5065041638982848
    DFT Exchange-Correlation Energy =       0.0000000000000000
    Empirical Dispersion Energy =           0.0000000000000000
    PCM Polarization Energy =               0.0000000000000000
    EFP Energy =                            0.0000000000000000
    Total Energy =                       -232.1374382639870646
    Molecular point group: c1
  Basis Set: 6-31G*
  Basis Set:

  -Total Gradient:
     Atom            X                  Y                   Z
    ------   -----------------  -----------------  -----------------
       1        0.000003261206     0.000001730387    -0.000000020900
       2        0.002229066281    -0.003923144578     0.001909898748
       3       -0.002115879029     0.003720910462    -0.000360644238
       4       -0.001332737518     0.002332094468    -0.001496471174
       5        0.000004482574     0.000002957164    -0.000003464525
       6        0.001210034429    -0.002130508835    -0.000054210785
       7       -0.000002096055    -0.000002401571     0.000002128932
       8       -0.000000781394    -0.000003518528     0.000005300445
       9       -0.000001739097     0.000001776139     0.000006200191
      10        0.000010047365    -0.000003535235    -0.000003549555
      11       -0.000006314184    -0.000003956253    -0.000001994061
      12        0.000002210506     0.000003624380    -0.000000196797
      13        0.000000880600     0.000002768310     0.000001356957
      14        0.000002397503    -0.000000045123    -0.000003381195
      15       -0.000002833185     0.000001248814    -0.000000952040

  **** Optimization is complete! (in 5 steps) ****
    Final optimized geometry and variables:
    Molecular point group: c1

    Geometry (in Angstrom), charge = 0, multiplicity = 1:

    H           -2.727381693216    -0.390542474838     0.998659503386
    C           -1.889673224966    -1.084744324408     0.977219256451
    O           -0.676255724535    -0.398362971145     0.960350465266
    H           -2.008477734717    -1.715613290726     0.099754127144
    H           -1.922555630995    -1.698309959574     1.867779077358
    C           -0.181861433110    -0.095240345423    -0.309929655010
    C            1.134098836046     0.646911045724    -0.155596164947
    H           -0.896960203751     0.517368233149    -0.860683949606
    H           -0.034854067658    -1.011763863090    -0.881561980458
    C            1.759211544806     1.014014256059    -1.500812903730
    H            0.958115444744     1.542063252552     0.432906399398
    H            1.814507504998     0.024242848354     0.417172514866
    H            1.103243889503     1.657742622131    -2.080252882578
    H            2.696907367540     1.541398112340    -1.361202883560
    H            1.965381471087     0.129246244978    -2.096752674794

  Mulliken Charges: (a.u.)
   Center  Symbol    Alpha    Beta     Spin     Total
       1     H     0.42703  0.42703  0.00000  0.14593
       2     C     3.07714  3.07714  0.00000 -0.15428
       3     O     4.30835  4.30835  0.00000 -0.61670
       4     H     0.43111  0.43111  0.00000  0.13778
       5     H     0.41454  0.41454  0.00000  0.17092
       6     C     2.98160  2.98160  0.00000  0.03681
       7     C     3.15992  3.15992  0.00000 -0.31984
       8     H     0.43376  0.43376  0.00000  0.13249
       9     H     0.43269  0.43269  0.00000  0.13462
      10     C     3.24793  3.24793  0.00000 -0.49587
      11     H     0.41434  0.41434  0.00000  0.17133
      12     H     0.41434  0.41434  0.00000  0.17131
      13     H     0.42087  0.42087  0.00000  0.15826
      14     H     0.41542  0.41542  0.00000  0.16916
      15     H     0.42096  0.42096  0.00000  0.15808

   Total alpha = 21.00000, Total beta = 21.00000, Total charge = -0.00000
