  ==> Input File <==

--------------------------------------------------------------------------
set {
	reference rhf
	basis 6-31G*
}

set_num_threads( 4 )
memory 2 gb

molecule MOL {
0 1

H	 -2.646374	 -0.642757	 1.268656
C	 -2.083525	 -0.384536	 0.393091
O	 -0.807605	 -0.127164	 0.768327
F	 -2.118945	 -1.383102	 -0.486752
F	 -2.621877	 0.670592	 -0.209486
C	 0.172799	 -0.172026	 -0.206087
C	 1.328993	 -0.983832	 0.363428
Cl	 0.709272	 1.459955	 -0.637417
H	 -0.166728	 -0.652760	 -1.106859
F	 2.300749	 -1.081020	 -0.518833
F	 0.900021	 -2.200162	 0.635387
F	 1.808681	 -0.457109	 1.463626

	symmetry c1
}
set optking {
	frozen_dihedral = ("
		6 3 2 4
	")
}

ee = optimize('scf')
oeprop('DIPOLE', 'QUADRUPOLE', 'MULLIKEN_CHARGES')
f=open( 'psi4out.xyz', 'w' )
f.write( "12  " )
f.write( str(ee) + "\n" )
f.write( MOL.save_string_xyz() )
f.close()
--------------------------------------------------------------------------

    Molecular point group: c1
  Charge       = 0
  Multiplicity = 1
  Basis Set: 6-31G*
  Basis Set:
  @DF-RHF Final Energy: -1146.31250026503267
    Total Energy =                      -1146.3125002650326678
    Molecular point group: c1
  Basis Set: 6-31G*
  Basis Set:
  Basis Set: 6-31G*
  Basis Set:
  @DF-RHF Final Energy: -1146.31261519176383
    Total Energy =                      -1146.3126151917624611
  Basis Set: 6-31G*
  Basis Set:
  Basis Set: 6-31G*
  Basis Set:
  @DF-RHF Final Energy: -1146.31282832997340
    Total Energy =                      -1146.3128283299733994
  Basis Set: 6-31G*
  Basis Set:
  Basis Set: 6-31G*
  Basis Set:
  @DF-RHF Final Energy: -1146.31284482716478
    Total Energy =                      -1146.3128448271659181
  Basis Set: 6-31G*
  Basis Set:
  @DF-RHF Final Energy: -1146.31285581236443
    Total Energy =                      -1146.3128558123651146
  @DF-RHF Final Energy: -1146.31285871215073
    Total Energy =                      -1146.3128587121502733
  @DF-RHF Final Energy: -1146.31286126800251
    Total Energy =                      -1146.3128612680020524
  @DF-RHF Final Energy: -1146.31286371158194
    Total Energy =                      -1146.3128637115821675
  @DF-RHF Final Energy: -1146.31287074168335
    Total Energy =                      -1146.3128707416838097
  @DF-RHF Final Energy: -1146.31287732069359
    Total Energy =                      -1146.3128773206935875
  @DF-RHF Final Energy: -1146.31288288502719
    Total Energy =                      -1146.3128828850271930
  @DF-RHF Final Energy: -1146.31288916031099
    Total Energy =                      -1146.3128891603105330
  Basis Set: 6-31G*
  Basis Set:
  @DF-RHF Final Energy: -1146.31290274281309
    Total Energy =                      -1146.3129027428133213
  Basis Set: 6-31G*
  Basis Set:
  Basis Set: 6-31G*
  Basis Set:
  @DF-RHF Final Energy: -1146.31291034265132
    Total Energy =                      -1146.3129103426501842
  Basis Set: 6-31G*
  Basis Set:
  Basis Set: 6-31G*
  Basis Set:
  @DF-RHF Final Energy: -1146.31291194551022
    Total Energy =                      -1146.3129119455099953
  Basis Set: 6-31G*
  Basis Set:
  Charge       = 0
  Multiplicity = 1
  Basis Set: 6-31G*
  Basis Set:

    Orbital Energies (a.u.)
    -----------------------

    Doubly Occupied:

       1A   -104.842184     2A    -26.360371     3A    -26.359227
       4A    -26.357898     5A    -26.351953     6A    -26.340441
       7A    -20.649487     8A    -11.528094     9A    -11.490449
      10A    -11.400224    11A    -10.576933    12A     -8.046282
      13A     -8.042753    14A     -8.042663    15A     -1.761531
      16A     -1.718039    17A     -1.657995    18A     -1.656561
      19A     -1.638360    20A     -1.485094    21A     -1.178437
      22A     -1.053674    23A     -0.986775    24A     -0.918956
      25A     -0.859977    26A     -0.852553    27A     -0.846349
      28A     -0.820235    29A     -0.813278    30A     -0.792618
      31A     -0.728225    32A     -0.726710    33A     -0.707416
      34A     -0.698568    35A     -0.679303    36A     -0.675310
      37A     -0.658653    38A     -0.657846    39A     -0.641834
      40A     -0.636631    41A     -0.597633    42A     -0.579354
      43A     -0.522188    44A     -0.474803    45A     -0.467928

  @DF-RHF Final Energy: -1146.31291217828380

   => Energetics <=

    Nuclear Repulsion Energy =            735.2186244046263255
    One-Electron Energy =               -3053.2994880238397855
    Two-Electron Energy =                1171.7679514409296644
    DFT Exchange-Correlation Energy =       0.0000000000000000
    Empirical Dispersion Energy =           0.0000000000000000
    PCM Polarization Energy =               0.0000000000000000
    EFP Energy =                            0.0000000000000000
    Total Energy =                      -1146.3129121782835682
    Molecular point group: c1
  Basis Set: 6-31G*
  Basis Set:

  -Total Gradient:
     Atom            X                  Y                   Z
    ------   -----------------  -----------------  -----------------
       1       -0.000035919308     0.000009455558    -0.000020973778
       2       -0.000294512005    -0.003776478018     0.002335638035
       3       -0.000177003876     0.004477572052    -0.000882441697
       4        0.000285017806     0.001764870007    -0.001631441724
       5        0.000037830924     0.000031504851     0.000021558382
       6        0.000185170314    -0.002509367515     0.000198836242
       7        0.000028482909    -0.000000486758    -0.000022878262
       8       -0.000000835069     0.000002937698     0.000007447811
       9        0.000003297822    -0.000005630384    -0.000000936023
      10        0.000018170684    -0.000002295222    -0.000016125378
      11       -0.000028597897     0.000004439012     0.000020433010
      12       -0.000021102361     0.000003478606    -0.000009116617

  **** Optimization is complete! (in 16 steps) ****
    Final optimized geometry and variables:
    Molecular point group: c1

    Geometry (in Angstrom), charge = 0, multiplicity = 1:

    H           -2.700724423265    -0.390234261392     1.176274477341
    C           -2.143987000160    -0.078149654420     0.314232313976
    O           -0.839194827067     0.036772354407     0.671390173559
    F           -2.292693165148    -0.957650039563    -0.674465972675
    F           -2.613077154453     1.078639227586    -0.135178949822
    C            0.145544336812     0.040529564706    -0.294947195488
    C            1.341468717357    -0.683219954189     0.310623250020
    CL           0.592877807060     1.691030268127    -0.769981570485
    H           -0.152253298115    -0.483051747254    -1.184880848511
    F            2.328462712121    -0.742812221639    -0.557330249663
    F            0.985135031074    -1.917637756880     0.608116689711
    F            1.773744816419    -0.102411706773     1.402929289536

  Mulliken Charges: (a.u.)
   Center  Symbol    Alpha    Beta     Spin     Total
       1     H     0.40320  0.40320  0.00000  0.19360
       2     C     2.55925  2.55925  0.00000  0.88150
       3     O     4.30443  4.30443  0.00000 -0.60886
       4     F     4.68702  4.68702  0.00000 -0.37404
       5     F     4.68069  4.68069  0.00000 -0.36139
       6     C     3.04625  3.04625  0.00000 -0.09251
       7     C     2.43228  2.43228  0.00000  1.13545
       8    CL     8.50208  8.50208  0.00000 -0.00416
       9     H     0.36493  0.36493  0.00000  0.27014
      10     F     4.67414  4.67414  0.00000 -0.34828
      11     F     4.67728  4.67728  0.00000 -0.35456
      12     F     4.66844  4.66844  0.00000 -0.33689

   Total alpha = 45.00000, Total beta = 45.00000, Total charge = -0.00000
