                              Psi4 1.0.54 Driver

  ==> Input File <==

--------------------------------------------------------------------------
set {
	reference rhf
	basis cc-pvtz
}

set_num_threads( 4 )
memory 2 gb

molecule MOL {
0 1

H	 -2.385604	 1.899422	 -2.241464
C	 -2.737508	 0.907267	 -1.927336
C	 -1.802350	 -0.227247	 -2.247100
O	 -3.785010	 0.793592	 -1.391494
C	 -0.374845	 0.023783	 -1.752238
H	 -2.213340	 -1.139253	 -1.833983
H	 -1.792862	 -0.325521	 -3.330408
C	 -0.247837	 0.040196	 -0.230469
H	 0.269775	 -0.747603	 -2.159384
H	 -0.013189	 0.964932	 -2.159223
C	 1.181757	 0.280428	 0.247371
H	 -0.607452	 -0.905760	 0.165702
H	 -0.897906	 0.805889	 0.184926
C	 2.151032	 -0.811012	 -0.202643
H	 1.515939	 1.247397	 -0.115449
H	 1.191514	 0.341223	 1.333422
C	 3.580021	 -0.656538	 0.320835
H	 2.170545	 -0.847575	 -1.289412
H	 1.766632	 -1.772905	 0.124928
C	 4.327657	 0.562694	 -0.213579
H	 4.138806	 -1.549270	 0.057813
H	 3.561991	 -0.620783	 1.406976
H	 4.355973	 0.557257	 -1.298551
H	 3.867136	 1.491650	 0.100501
H	 5.351524	 0.571613	 0.142204

	symmetry c1
}
set optking {
	frozen_dihedral = ("
		12 8 11 14
	")
}

ee,wfn = optimize('scf', return_wfn=True)
oeprop( wfn, 'DIPOLE', 'QUADRUPOLE', 'MULLIKEN_CHARGES')
f=open( 'psi4out.xyz', 'w' )
f.write( "25  " )
f.write( str(ee) + "\n" )
f.write( MOL.save_string_xyz() )
f.close()
--------------------------------------------------------------------------

    Molecular point group: c1
  Charge       = 0
  Multiplicity = 1
  Basis Set: CC-PVTZ
  Basis Set:
  @DF-RHF Final Energy:  -387.25769970467991
    Total Energy =                       -387.2576997046796805
    Molecular point group: c1
  Basis Set: CC-PVTZ
  Basis Set:
  Basis Set: CC-PVTZ
  Basis Set:
  @DF-RHF Final Energy:  -387.17977856756647
    Total Energy =                       -387.1797785675662453
  Basis Set: CC-PVTZ
  Basis Set:
  Basis Set: CC-PVTZ
  Basis Set:
  @DF-RHF Final Energy:  -387.25002908110650
    Total Energy =                       -387.2500290811067316
  Basis Set: CC-PVTZ
  Basis Set:
  Basis Set: CC-PVTZ
  Basis Set:
  @DF-RHF Final Energy:  -387.25833733183907
    Total Energy =                       -387.2583373318395843
  Basis Set: CC-PVTZ
  Basis Set:
  @DF-RHF Final Energy:  -387.25850355979151
    Total Energy =                       -387.2585035597912793
  Basis Set: CC-PVTZ
  Basis Set:
  @DF-RHF Final Energy:  -387.25848313187345
    Total Energy =                       -387.2584831318735041
  Basis Set: CC-PVTZ
  Basis Set:
  Basis Set: CC-PVTZ
  Basis Set:
  @DF-RHF Final Energy:  -387.25844462171102
    Total Energy =                       -387.2584446217108507
  Basis Set: CC-PVTZ
  Basis Set:
  Basis Set: CC-PVTZ
  Basis Set:
  @DF-RHF Final Energy:  -387.25857804081267
    Total Energy =                       -387.2585780408128358
  Basis Set: CC-PVTZ
  Basis Set:
  Charge       = 0
  Multiplicity = 1
  Basis Set: CC-PVTZ
  Basis Set:

    Orbital Energies (a.u.)
    -----------------------

    Doubly Occupied:

       1A    -20.551266     2A    -11.320851     3A    -11.233650
       4A    -11.232295     5A    -11.222272     6A    -11.218239
       7A    -11.217393     8A    -11.216425     9A    -11.209745
      10A     -1.406297    11A     -1.105750    12A     -1.070515
      13A     -1.014205    14A     -0.941670    15A     -0.883250
      16A     -0.823841    17A     -0.791262    18A     -0.774281
      19A     -0.668334    20A     -0.657711    21A     -0.635156
      22A     -0.625964    23A     -0.604414    24A     -0.599362
      25A     -0.584186    26A     -0.548196    27A     -0.537734
      28A     -0.527610    29A     -0.517103    30A     -0.502369
      31A     -0.486836    32A     -0.478502    33A     -0.461666
      34A     -0.453498    35A     -0.449306    36A     -0.411435

  @DF-RHF Final Energy:  -387.25857896303916

   => Energetics <=

    Nuclear Repulsion Energy =            443.6026862367072567
    One-Electron Energy =               -1403.7573542359170915
    Two-Electron Energy =                 572.8960890361705651
    DFT Exchange-Correlation Energy =       0.0000000000000000
    Empirical Dispersion Energy =           0.0000000000000000
    PCM Polarization Energy =               0.0000000000000000
    EFP Energy =                            0.0000000000000000
    Total Energy =                       -387.2585789630392128
    Molecular point group: c1
  Basis Set: CC-PVTZ
  Basis Set:

  -Total Gradient:
     Atom            X                  Y                   Z
    ------   -----------------  -----------------  -----------------
       1       -0.000001292275    -0.000044302534    -0.000011367710
       2        0.000020778655     0.000047335647     0.000109930522
       3        0.000012043177     0.000059462194     0.000006794629
       4       -0.000002520398    -0.000020608951    -0.000041503721
       5        0.000055271648    -0.000099412124    -0.000076567578
       6       -0.000002089397     0.000010638371    -0.000037070103
       7        0.000007743044    -0.000024224298     0.000022636111
       8        0.000409303005    -0.000196958811    -0.000724287862
       9       -0.000001527625     0.000019268918     0.000005131175
      10       -0.000037817178    -0.000005276137     0.000016602920
      11       -0.000219329459    -0.000248337163     0.000717559827
      12       -0.000378986625     0.000336830079     0.000416083684
      13        0.000017731463    -0.000005333252     0.000003218513
      14        0.000133638678     0.000221513913    -0.000376142819
      15       -0.000024581441    -0.000001369100     0.000057618423
      16       -0.000008636981     0.000019984057    -0.000036641888
      17        0.000041245901    -0.000052254961    -0.000076136434
      18       -0.000003764299    -0.000028940791     0.000029218849
      19        0.000041577157     0.000012272247    -0.000022120644
      20       -0.000005750060     0.000004757634     0.000041412207
      21       -0.000015172077     0.000032410380     0.000009959312
      22       -0.000014598847     0.000014251016    -0.000022179294
      23       -0.000010093636    -0.000006531503     0.000008375664
      24        0.000005127246    -0.000034661933    -0.000002912131
      25       -0.000018299678    -0.000010512900    -0.000017611653

  **** Optimization is complete! (in 9 steps) ****
    Final optimized geometry and variables:
    Molecular point group: c1

    Geometry (in Angstrom), charge = 0, multiplicity = 1:

    H           -2.762032147053     0.797227135465    -1.956211852457
    C           -2.928862344074    -0.191763897377    -1.508005500052
    C           -1.745386388213    -1.119439131865    -1.561111662000
    O           -3.982269639592    -0.460769414316    -1.044030313470
    C           -0.460746327303    -0.478225465252    -1.027760018212
    H           -1.993100054709    -2.024733646349    -1.022119328387
    H           -1.605746251698    -1.382632941763    -2.607348503797
    C           -0.506477493466    -0.198731210984     0.474230101575
    H            0.366228157849    -1.137054220372    -1.260068905499
    H           -0.271354401753     0.448471234323    -1.564888034034
    C            0.723166942395     0.522606030655     1.029626609932
    H           -0.648939222762    -1.134865607808     1.007900645641
    H           -1.382352492886     0.403876836456     0.697780214613
    C            2.032099928397    -0.259063195850     0.908093630351
    H            0.818934146016     1.484253797167     0.534557303764
    H            0.542982070833     0.739167651006     2.078858954867
    C            3.215496625258     0.373756815715     1.642856501586
    H            2.296840241370    -0.383126269677    -0.137768406550
    H            1.877449569085    -1.259677065483     1.303809143687
    C            3.666801628405     1.720086690388     1.082008711996
    H            4.051927638658    -0.317149913261     1.604321118032
    H            2.964952028634     0.487393236494     2.694122786878
    H            3.914993656759     1.639706981678     0.028369664038
    H            2.900991048314     2.479365174817     1.184428794012
    H            4.548945403716     2.076204301096     1.601407039254

  Mulliken Charges: (a.u.)
   Center  Symbol    Alpha    Beta     Spin     Total
       1     H     0.46392  0.46392  0.00000  0.07215
       2     C     2.90601  2.90601  0.00000  0.18799
       3     C     3.08648  3.08648  0.00000 -0.17295
       4     O     4.16598  4.16598  0.00000 -0.33196
       5     C     3.11937  3.11937  0.00000 -0.23874
       6     H     0.44269  0.44269  0.00000  0.11461
       7     H     0.44045  0.44045  0.00000  0.11911
       8     C     3.09959  3.09959  0.00000 -0.19918
       9     H     0.44018  0.44018  0.00000  0.11964
      10     H     0.44956  0.44956  0.00000  0.10089
      11     C     3.10162  3.10162  0.00000 -0.20324
      12     H     0.44854  0.44854  0.00000  0.10293
      13     H     0.44162  0.44162  0.00000  0.11675
      14     C     3.09768  3.09768  0.00000 -0.19535
      15     H     0.45111  0.45111  0.00000  0.09778
      16     H     0.44571  0.44571  0.00000  0.10859
      17     C     3.08932  3.08932  0.00000 -0.17863
      18     H     0.45303  0.45303  0.00000  0.09395
      19     H     0.44832  0.44832  0.00000  0.10336
      20     C     3.15321  3.15321  0.00000 -0.30642
      21     H     0.44803  0.44803  0.00000  0.10395
      22     H     0.45367  0.45367  0.00000  0.09266
      23     H     0.45528  0.45528  0.00000  0.08944
      24     H     0.45317  0.45317  0.00000  0.09365
      25     H     0.44549  0.44549  0.00000  0.10902

   Total alpha = 36.00000, Total beta = 36.00000, Total charge = -0.00000

*** Psi4 exiting successfully. Buy a developer a beer!
