                              Psi4 1.0.54 Driver

  ==> Input File <==

--------------------------------------------------------------------------
set {
	reference rhf
	basis cc-pvtz
}

set_num_threads( 4 )
memory 2 gb

molecule MOL {
0 1

H	 -2.440567	 -1.809104	 -0.000050
C	 -1.667311	 -1.070179	 -0.000032
C	 -1.962994	 0.330437	 -0.000023
C	 -0.381553	 -1.430539	 -0.000080
H	 -2.987176	 0.653249	 -0.000035
C	 -0.977305	 1.233207	 -0.000009
H	 -0.081047	 -2.459537	 -0.000131
N	 0.640335	 -0.530358	 -0.000115
H	 -1.161053	 2.287815	 0.000006
C	 0.423406	 0.836672	 0.000085
C	 2.007122	 -1.032937	 -0.000020
O	 1.336221	 1.617064	 0.000175
H	 2.182575	 -1.636844	 -0.880881
H	 2.678900	 -0.195372	 -0.002236
H	 2.183959	 -1.633174	 0.883082

	symmetry c1
}
ee,wfn = energy('scf', return_wfn=True)
oeprop( wfn, 'DIPOLE', 'QUADRUPOLE', 'MULLIKEN_CHARGES')
oeprop( wfn, 'GRID_ESP')
f=open( 'psi4out.xyz', 'w' )
f.write( "15  " )
f.write( str(ee) + "\n" )
f.write( MOL.save_string_xyz() )
f.close()
--------------------------------------------------------------------------

    Molecular point group: c1

    Geometry (in Angstrom), charge = 0, multiplicity = 1:

       Center              X                  Y                   Z               Mass
    ------------   -----------------  -----------------  -----------------  -----------------
           H         -2.440698213661    -1.809173857660    -0.000049943508     1.007825032070
           C         -1.667442213661    -1.070248857660    -0.000031943508    12.000000000000
           C         -1.963125213661     0.330367142340    -0.000022943508    12.000000000000
           C         -0.381684213661    -1.430608857660    -0.000079943508    12.000000000000
           H         -2.987307213661     0.653179142340    -0.000034943508     1.007825032070
           C         -0.977436213661     1.233137142340    -0.000008943508    12.000000000000
           H         -0.081178213661    -2.459606857660    -0.000130943508     1.007825032070
           N          0.640203786339    -0.530427857660    -0.000114943508    14.003074004780
           H         -1.161184213661     2.287745142340     0.000006056492     1.007825032070
           C          0.423274786339     0.836602142340     0.000085056492    12.000000000000
           C          2.006990786339    -1.033006857660    -0.000019943508    12.000000000000
           O          1.336089786339     1.616994142340     0.000175056492    15.994914619560
           H          2.182443786339    -1.636913857660    -0.880880943508     1.007825032070
           H          2.678768786339    -0.195441857660    -0.002235943508     1.007825032070
           H          2.183827786339    -1.633243857660     0.883082056492     1.007825032070

  Charge       = 0
  Multiplicity = 1
  Basis Set: CC-PVTZ
  Basis Set:

    Orbital Energies (a.u.)
    -----------------------

    Doubly Occupied:

       1A    -20.501726     2A    -15.616489     3A    -11.339666
       4A    -11.293180     5A    -11.263315     6A    -11.258219
       7A    -11.230761     8A    -11.228354     9A     -1.390415
      10A     -1.285786    11A     -1.118832    12A     -1.028876
      13A     -0.972308    14A     -0.875748    15A     -0.838566
      16A     -0.719116    17A     -0.703195    18A     -0.663335
      19A     -0.652673    20A     -0.625126    21A     -0.611927
      22A     -0.573885    23A     -0.558534    24A     -0.550464
      25A     -0.529228    26A     -0.482650    27A     -0.420004
      28A     -0.410890    29A     -0.311061

  @DF-RHF Final Energy:  -360.72253125647330

   => Energetics <=

    Nuclear Repulsion Energy =            358.4346348300116460
    One-Electron Energy =               -1200.2051724109053339
    Two-Electron Energy =                 481.0480063244205553
    DFT Exchange-Correlation Energy =       0.0000000000000000
    Empirical Dispersion Energy =           0.0000000000000000
    PCM Polarization Energy =               0.0000000000000000
    EFP Energy =                            0.0000000000000000
    Total Energy =                       -360.7225312564731325

  Mulliken Charges: (a.u.)
   Center  Symbol    Alpha    Beta     Spin     Total
       1     H     0.41415  0.41415  0.00000  0.17170
       2     C     3.10191  3.10191  0.00000 -0.20383
       3     C     3.06193  3.06193  0.00000 -0.12387
       4     C     3.03300  3.03300  0.00000 -0.06599
       5     H     0.41833  0.41833  0.00000  0.16334
       6     C     3.11589  3.11589  0.00000 -0.23179
       7     H     0.42020  0.42020  0.00000  0.15961
       8     N     3.51284  3.51284  0.00000 -0.02567
       9     H     0.40885  0.40885  0.00000  0.18230
      10     C     2.84560  2.84560  0.00000  0.30880
      11     C     3.11043  3.11043  0.00000 -0.22087
      12     O     4.23675  4.23675  0.00000 -0.47351
      13     H     0.44983  0.44983  0.00000  0.10033
      14     H     0.42050  0.42050  0.00000  0.15900
      15     H     0.44978  0.44978  0.00000  0.10044

   Total alpha = 29.00000, Total beta = 29.00000, Total charge =  0.00000

*** Psi4 exiting successfully. Buy a developer a beer!
