  ==> Input File <==

--------------------------------------------------------------------------
set {
	reference rhf
	basis 6-31G*
}

set_num_threads( 1 )
memory 2 gb

molecule MOL {
0 1

H	 -3.794983	 -1.644552	 1.196117
O	 -3.252715	 -1.332112	 0.486024
C	 -2.019843	 -0.889529	 0.992716
C	 -1.177863	 -0.397191	 -0.171080
H	 -2.167832	 -0.085483	 1.712380
H	 -1.505152	 -1.698677	 1.509159
C	 0.198102	 0.111031	 0.262842
H	 -1.725300	 0.391920	 -0.679357
H	 -1.069849	 -1.210680	 -0.883151
C	 1.331804	 -0.827780	 -0.158768
H	 0.361943	 1.100838	 -0.156218
H	 0.217265	 0.229072	 1.345532
C	 2.723619	 -0.410569	 0.329459
H	 1.342964	 -0.912588	 -1.244120
H	 1.116806	 -1.824343	 0.220779
C	 3.243875	 0.895854	 -0.272975
H	 3.424222	 -1.207124	 0.091250
H	 2.714788	 -0.329854	 1.414619
H	 3.251977	 0.848779	 -1.358681
H	 2.637085	 1.747371	 0.016682
H	 4.259473	 1.094070	 0.055697

	symmetry c1
}
set optking {
	frozen_dihedral = ("
		2 3 4 8,
		4 7 10 14,
		16 13 10 14,
		1 2 3 5
	")
}

ee = energy('scf')
oeprop('DIPOLE', 'QUADRUPOLE', 'MULLIKEN_CHARGES')
f=open( 'psi4out.xyz', 'w' )
f.write( "21  " )
f.write( str(ee) + "\n" )
f.write( MOL.save_string_xyz() )
f.close()
--------------------------------------------------------------------------

    Molecular point group: c1

    Geometry (in Angstrom), charge = 0, multiplicity = 1:

       Center              X                  Y                   Z               Mass
    ------------   -----------------  -----------------  -----------------  -----------------
           H         -3.880226654505    -1.222887050518     0.972558834789     1.007825032070
           O         -3.337958654505    -0.910447050518     0.262465834789    15.994914619560
           C         -2.105086654505    -0.467864050518     0.769157834789    12.000000000000
           C         -1.263106654505     0.024473949482    -0.394638165211    12.000000000000
           H         -2.253075654505     0.336181949482     1.488821834789     1.007825032070
           H         -1.590395654505    -1.277012050518     1.285600834789     1.007825032070
           C          0.112858345495     0.532695949482     0.039283834789    12.000000000000
           H         -1.810543654505     0.813584949482    -0.902915165211     1.007825032070
           H         -1.155092654505    -0.789015050518    -1.106709165211     1.007825032070
           C          1.246560345495    -0.406115050518    -0.382326165211    12.000000000000
           H          0.276699345495     1.522502949482    -0.379776165211     1.007825032070
           H          0.132021345495     0.650736949482     1.121973834789     1.007825032070
           C          2.638375345495     0.011095949482     0.105900834789    12.000000000000
           H          1.257720345495    -0.490923050518    -1.467678165211     1.007825032070
           H          1.031562345495    -1.402678050518    -0.002779165211     1.007825032070
           C          3.158631345495     1.317518949482    -0.496533165211    12.000000000000
           H          3.338978345495    -0.785459050518    -0.132308165211     1.007825032070
           H          2.629544345495     0.091810949482     1.191060834789     1.007825032070
           H          3.166733345495     1.270443949482    -1.582239165211     1.007825032070
           H          2.551841345495     2.169035949482    -0.206876165211     1.007825032070
           H          4.174229345495     1.515734949482    -0.167861165211     1.007825032070

  Charge       = 0
  Multiplicity = 1
  Basis Set: 6-31G*
  Basis Set:

    Orbital Energies (a.u.)
    -----------------------

    Doubly Occupied:

       1A    -20.551783     2A    -11.267621     3A    -11.215057
       4A    -11.214595     5A    -11.213880     6A    -11.209175
       7A    -11.208060     8A     -1.358679     9A     -1.086819
      10A     -1.032830    11A     -0.952875    12A     -0.878080
      13A     -0.808019    14A     -0.778730    15A     -0.693754
      16A     -0.652162    17A     -0.627386    18A     -0.609136
      19A     -0.590264    20A     -0.557452    21A     -0.548605
      22A     -0.516792    23A     -0.507617    24A     -0.495309
      25A     -0.474745    26A     -0.460385    27A     -0.452404
      28A     -0.445976    29A     -0.430793

  @DF-RHF Final Energy:  -310.20800673974026

   => Energetics <=

    Nuclear Repulsion Energy =            314.0834598599417973
    One-Electron Energy =               -1042.9050155680047283
    Two-Electron Energy =                 418.6135489683222772
    DFT Exchange-Correlation Energy =       0.0000000000000000
    Empirical Dispersion Energy =           0.0000000000000000
    PCM Polarization Energy =               0.0000000000000000
    EFP Energy =                            0.0000000000000000
    Total Energy =                       -310.2080067397407106

  Mulliken Charges: (a.u.)
   Center  Symbol    Alpha    Beta     Spin     Total
       1     H     0.28131  0.28131  0.00000  0.43737
       2     O     4.37159  4.37159  0.00000 -0.74318
       3     C     2.99321  2.99321  0.00000  0.01357
       4     C     3.16091  3.16091  0.00000 -0.32182
       5     H     0.43212  0.43212  0.00000  0.13576
       6     H     0.43290  0.43290  0.00000  0.13421
       7     C     3.16491  3.16491  0.00000 -0.32981
       8     H     0.41258  0.41258  0.00000  0.17484
       9     H     0.41201  0.41201  0.00000  0.17598
      10     C     3.15401  3.15401  0.00000 -0.30801
      11     H     0.41620  0.41620  0.00000  0.16760
      12     H     0.42366  0.42366  0.00000  0.15268
      13     C     3.15287  3.15287  0.00000 -0.30575
      14     H     0.42193  0.42193  0.00000  0.15615
      15     H     0.42229  0.42229  0.00000  0.15542
      16     C     3.24116  3.24116  0.00000 -0.48233
      17     H     0.42096  0.42096  0.00000  0.15807
      18     H     0.42402  0.42402  0.00000  0.15196
      19     H     0.42187  0.42187  0.00000  0.15626
      20     H     0.42021  0.42021  0.00000  0.15958
      21     H     0.41927  0.41927  0.00000  0.16145

   Total alpha = 29.00000, Total beta = 29.00000, Total charge = -0.00000
