  ==> Input File <==

--------------------------------------------------------------------------
set {
	reference rhf
	basis 6-31G*
}

set_num_threads( 4 )
memory 2 gb

molecule MOL {
0 1

H	 1.613895	 0.992294	 -1.169881
O	 0.819446	 0.470712	 -1.229334
C	 0.489431	 0.077273	 0.000046
C	 -0.764129	 -0.759190	 0.000191
O	 1.132937	 0.372143	 0.953731
C	 -2.038368	 0.075731	 -0.000248
H	 -0.717284	 -1.412404	 -0.866059
H	 -0.717458	 -1.411724	 0.866967
H	 -2.086483	 0.712501	 -0.875098
H	 -2.908485	 -0.571682	 -0.000042
H	 -2.086576	 0.713280	 0.874068

	symmetry c1
}
set optking {
	frozen_dihedral = ("
		2 3 4 7
	")
}

ee = optimize('scf')
oeprop('DIPOLE', 'QUADRUPOLE', 'MULLIKEN_CHARGES')
f=open( 'psi4out.xyz', 'w' )
f.write( "11  " )
f.write( str(ee) + "\n" )
f.write( MOL.save_string_xyz() )
f.close()
--------------------------------------------------------------------------

    Molecular point group: c1
  Charge       = 0
  Multiplicity = 1
  Basis Set: 6-31G*
  Basis Set:
  @DF-RHF Final Energy:  -266.84372531915108
    Total Energy =                       -266.8437253191513037
    Molecular point group: c1
  Basis Set: 6-31G*
  Basis Set:
  Basis Set: 6-31G*
  Basis Set:
  @DF-RHF Final Energy:  -266.84400701004006
    Total Energy =                       -266.8440070100399453
  Basis Set: 6-31G*
  Basis Set:
  Basis Set: 6-31G*
  Basis Set:
  @DF-RHF Final Energy:  -266.84433034460403
    Total Energy =                       -266.8443303446039749
  Basis Set: 6-31G*
  Basis Set:
  Basis Set: 6-31G*
  Basis Set:
  @DF-RHF Final Energy:  -266.84435777181619
    Total Energy =                       -266.8443577718160782
  Basis Set: 6-31G*
  Basis Set:
  Charge       = 0
  Multiplicity = 1
  Basis Set: 6-31G*
  Basis Set:

    Orbital Energies (a.u.)
    -----------------------

    Doubly Occupied:

       1A    -20.614265     2A    -20.550549     3A    -11.380869
       4A    -11.242657     5A    -11.231237     6A     -1.475001
       7A     -1.365438     8A     -1.068027     9A     -0.912814
      10A     -0.815480    11A     -0.702252    12A     -0.685520
      13A     -0.639514    14A     -0.618325    15A     -0.591811
      16A     -0.543358    17A     -0.526903    18A     -0.513256
      19A     -0.475868    20A     -0.440843

  @DF-RHF Final Energy:  -266.84435842175316

   => Energetics <=

    Nuclear Repulsion Energy =            179.9995005557275931
    One-Electron Energy =                -720.8997413637450791
    Two-Electron Energy =                 274.0558823862644431
    DFT Exchange-Correlation Energy =       0.0000000000000000
    Empirical Dispersion Energy =           0.0000000000000000
    PCM Polarization Energy =               0.0000000000000000
    EFP Energy =                            0.0000000000000000
    Total Energy =                       -266.8443584217530997
    Molecular point group: c1
  Basis Set: 6-31G*
  Basis Set:

  -Total Gradient:
     Atom            X                  Y                   Z
    ------   -----------------  -----------------  -----------------
       1        0.000005061561     0.000020751601    -0.000007332872
       2        0.000258106218    -0.000387232465    -0.000009050318
       3       -0.000412343974     0.000557090369     0.000032846496
       4        0.000352007822    -0.000536566715     0.000264824819
       5        0.000019836315     0.000003325613    -0.000039302769
       6        0.000021151118    -0.000011918434     0.000037931592
       7       -0.000224587608     0.000330936956    -0.000275889466
       8        0.000011482149     0.000009008940    -0.000017067702
       9        0.000012273457    -0.000012341135     0.000019785142
      10       -0.000015988348     0.000003758032    -0.000003074843
      11       -0.000026998713     0.000023187238    -0.000003670075

  **** Optimization is complete! (in 5 steps) ****
    Final optimized geometry and variables:
    Molecular point group: c1

    Geometry (in Angstrom), charge = 0, multiplicity = 1:

    H            1.618646010774     0.982995743854    -1.076968480992
    O            0.848199008803     0.427690105457    -1.147978044457
    C            0.535937264384    -0.005707206476     0.072835827458
    C           -0.706628768782    -0.856854828845     0.076968672134
    O            1.173658573650     0.288629732295     1.031059907840
    C           -1.968661384188     0.016710082909     0.065804598284
    H           -0.696348053127    -1.499675112272    -0.795144974082
    H           -0.678152891148    -1.469664916960     0.967739694182
    H           -2.010118477315     0.630401520169    -0.826648327659
    H           -2.853515116854    -0.609074335948     0.086902949853
    H           -1.995950193383     0.667915744674     0.932474221140

  Mulliken Charges: (a.u.)
   Center  Symbol    Alpha    Beta     Spin     Total
       1     H     0.26772  0.26772  0.00000  0.46456
       2     O     4.34744  4.34744  0.00000 -0.69487
       3     C     2.63314  2.63314  0.00000  0.73371
       4     C     3.19739  3.19739  0.00000 -0.39477
       5     O     4.27802  4.27802  0.00000 -0.55603
       6     C     3.25218  3.25218  0.00000 -0.50437
       7     H     0.40149  0.40149  0.00000  0.19701
       8     H     0.39702  0.39702  0.00000  0.20596
       9     H     0.40760  0.40760  0.00000  0.18480
      10     H     0.41018  0.41018  0.00000  0.17963
      11     H     0.40782  0.40782  0.00000  0.18436

   Total alpha = 20.00000, Total beta = 20.00000, Total charge =  0.00000
