  ==> Input File <==

--------------------------------------------------------------------------
set {
	reference rhf
	basis 6-31G*
}

set_num_threads( 4 )
memory 2 gb

molecule MOL {
0 1

H	 -4.197801	 0.674835	 -0.243080
O	 -3.494001	 0.055677	 -0.374277
C	 -2.281575	 0.621280	 0.053163
C	 -1.177863	 -0.397191	 -0.171080
H	 -2.066755	 1.532610	 -0.503289
H	 -2.334018	 0.888007	 1.107889
C	 0.198102	 0.111031	 0.262842
H	 -1.164498	 -0.660293	 -1.225275
H	 -1.432207	 -1.302408	 0.373317
C	 1.331804	 -0.827780	 -0.158768
H	 0.361943	 1.100838	 -0.156218
H	 0.217265	 0.229072	 1.345532
C	 2.723619	 -0.410569	 0.329459
H	 1.342964	 -0.912588	 -1.244120
H	 1.116806	 -1.824343	 0.220779
C	 3.243875	 0.895854	 -0.272975
H	 3.424222	 -1.207124	 0.091250
H	 2.714788	 -0.329854	 1.414619
H	 3.251977	 0.848779	 -1.358681
H	 2.637085	 1.747371	 0.016682
H	 4.259473	 1.094070	 0.055697

	symmetry c1
}
set optking {
	frozen_dihedral = ("
		8 4 7 10
	")
}

ee = optimize('scf')
oeprop('DIPOLE', 'QUADRUPOLE', 'MULLIKEN_CHARGES')
f=open( 'psi4out.xyz', 'w' )
f.write( "21  " )
f.write( str(ee) + "\n" )
f.write( MOL.save_string_xyz() )
f.close()
--------------------------------------------------------------------------

    Molecular point group: c1
  Charge       = 0
  Multiplicity = 1
  Basis Set: 6-31G*
  Basis Set:
  @DF-RHF Final Energy:  -310.21259004081412
    Total Energy =                       -310.2125900408140069
    Molecular point group: c1
  Basis Set: 6-31G*
  Basis Set:
  Basis Set: 6-31G*
  Basis Set:
  @DF-RHF Final Energy:  -310.21260349824638
    Total Energy =                       -310.2126034982460965
  Basis Set: 6-31G*
  Basis Set:
  Basis Set: 6-31G*
  Basis Set:
  @DF-RHF Final Energy:  -310.21259924377932
    Total Energy =                       -310.2125992437797208
  Basis Set: 6-31G*
  Basis Set:
  Basis Set: 6-31G*
  Basis Set:
  @DF-RHF Final Energy:  -310.21262647652043
    Total Energy =                       -310.2126264765204269
  Basis Set: 6-31G*
  Basis Set:
  Charge       = 0
  Multiplicity = 1
  Basis Set: 6-31G*
  Basis Set:

    Orbital Energies (a.u.)
    -----------------------

    Doubly Occupied:

       1A    -20.551884     2A    -11.267144     3A    -11.215668
       4A    -11.215152     5A    -11.213639     6A    -11.210611
       7A    -11.208263     8A     -1.358733     9A     -1.086254
      10A     -1.033160    11A     -0.954423    12A     -0.875786
      13A     -0.807507    14A     -0.778933    15A     -0.692615
      16A     -0.660418    17A     -0.623442    18A     -0.606647
      19A     -0.585285    20A     -0.571940    21A     -0.534043
      22A     -0.521040    23A     -0.511469    24A     -0.484811
      25A     -0.480989    26A     -0.460806    27A     -0.455622
      28A     -0.443176    29A     -0.433924

  @DF-RHF Final Energy:  -310.21262631316017

   => Energetics <=

    Nuclear Repulsion Energy =            312.5359760876826840
    One-Electron Energy =               -1039.8104371766103213
    Two-Electron Energy =                 417.0618347757675224
    DFT Exchange-Correlation Energy =       0.0000000000000000
    Empirical Dispersion Energy =           0.0000000000000000
    PCM Polarization Energy =               0.0000000000000000
    EFP Energy =                            0.0000000000000000
    Total Energy =                       -310.2126263131601149
    Molecular point group: c1
  Basis Set: 6-31G*
  Basis Set:

  -Total Gradient:
     Atom            X                  Y                   Z
    ------   -----------------  -----------------  -----------------
       1        0.000003892332     0.000007125975    -0.000009212608
       2        0.000011777202     0.000001294973    -0.000027634671
       3        0.000065182128     0.000005692852    -0.000072314228
       4       -0.000373137350     0.001631379311    -0.000496743318
       5       -0.000019865271     0.000042343899     0.000007374037
       6        0.000031897551    -0.000049364379    -0.000030490048
       7       -0.000044488456    -0.000827585516     0.000943792500
       8        0.000407702915    -0.001185346470     0.000345475861
       9       -0.000085719640    -0.000026031265     0.000089234483
      10        0.000021055535     0.000395181914    -0.000777861413
      11       -0.000031283577     0.000103270366     0.000050154837
      12       -0.000000937446    -0.000120837540    -0.000026607811
      13        0.000011259591    -0.000011597602     0.000000512799
      14       -0.000004608045     0.000002278977     0.000008839675
      15       -0.000005239724     0.000001146650    -0.000000866888
      16       -0.000004196688     0.000026184149     0.000011673861
      17       -0.000009220414     0.000009607372    -0.000017343601
      18        0.000029103088    -0.000023513072     0.000002907589
      19        0.000018860401    -0.000005932247     0.000005309956
      20       -0.000014167806     0.000006537705    -0.000016283247
      21       -0.000007866311     0.000018163948     0.000010082238

  **** Optimization is complete! (in 5 steps) ****
    Final optimized geometry and variables:
    Molecular point group: c1

    Geometry (in Angstrom), charge = 0, multiplicity = 1:

    H           -4.213239208516     0.630969941057    -0.154477708638
    O           -3.508426934161     0.012585081474    -0.283927100243
    C           -2.290778495973     0.597006082248     0.100941753303
    C           -1.184835086394    -0.418018637496    -0.123913432808
    H           -2.095952511812     1.495822429103    -0.482477438116
    H           -2.320204274629     0.889242739704     1.149863617813
    C            0.194235445059     0.097957124803     0.292183892191
    H           -1.179357745673    -0.700867939423    -1.173068298161
    H           -1.429134128282    -1.318085771295     0.433935318673
    C            1.324479007330    -0.849377161992    -0.119495924747
    H            0.359301451516     1.077596467618    -0.150672196353
    H            0.217997601462     0.241674198721     1.371246348411
    C            2.715144375561    -0.443108136362     0.380955143370
    H            1.343322251111    -0.932032383084    -1.204759023497
    H            1.099480318763    -1.845349335420     0.256359022499
    C            3.242350722919     0.869452029550    -0.201878318113
    H            3.414393837979    -1.238819420055     0.136074618050
    H            2.701081866854    -0.376242487466     1.466971800729
    H            3.258031251751     0.835671986963    -1.288014768256
    H            2.635161824928     1.718572504061     0.093959345269
    H            4.255988082730     1.061565808339     0.136305212032

  Mulliken Charges: (a.u.)
   Center  Symbol    Alpha    Beta     Spin     Total
       1     H     0.28117  0.28117  0.00000  0.43767
       2     O     4.37173  4.37173  0.00000 -0.74346
       3     C     2.98986  2.98986  0.00000  0.02027
       4     C     3.15923  3.15923  0.00000 -0.31846
       5     H     0.43277  0.43277  0.00000  0.13445
       6     H     0.43291  0.43291  0.00000  0.13417
       7     C     3.16185  3.16185  0.00000 -0.32371
       8     H     0.41498  0.41498  0.00000  0.17003
       9     H     0.41445  0.41445  0.00000  0.17110
      10     C     3.15207  3.15207  0.00000 -0.30414
      11     H     0.42228  0.42228  0.00000  0.15544
      12     H     0.42314  0.42314  0.00000  0.15372
      13     C     3.15250  3.15250  0.00000 -0.30501
      14     H     0.42296  0.42296  0.00000  0.15408
      15     H     0.42089  0.42089  0.00000  0.15823
      16     C     3.24128  3.24128  0.00000 -0.48255
      17     H     0.42064  0.42064  0.00000  0.15872
      18     H     0.42345  0.42345  0.00000  0.15311
      19     H     0.42206  0.42206  0.00000  0.15587
      20     H     0.42056  0.42056  0.00000  0.15888
      21     H     0.41921  0.41921  0.00000  0.16158

   Total alpha = 29.00000, Total beta = 29.00000, Total charge =  0.00000
