  ==> Input File <==

--------------------------------------------------------------------------
set {
	reference rhf
	basis 6-31G*
}

set_num_threads( 4 )
memory 2 gb

molecule MOL {
0 1

H	 -2.700891	 1.637057	 1.782551
O	 -2.008663	 1.053082	 1.507418
C	 -2.306886	 0.532354	 0.237577
C	 -1.177863	 -0.397191	 -0.171080
H	 -3.249590	 -0.012775	 0.258797
H	 -2.410907	 1.335274	 -0.491011
C	 0.198102	 0.111031	 0.262842
H	 -1.208843	 -0.518759	 -1.250427
H	 -1.368741	 -1.376554	 0.258909
C	 1.331804	 -0.827780	 -0.158768
H	 0.361943	 1.100838	 -0.156218
H	 0.217265	 0.229072	 1.345532
C	 2.723619	 -0.410569	 0.329459
H	 1.342964	 -0.912588	 -1.244120
H	 1.116806	 -1.824343	 0.220779
C	 3.243875	 0.895854	 -0.272975
H	 3.424222	 -1.207124	 0.091250
H	 2.714788	 -0.329854	 1.414619
H	 3.251977	 0.848779	 -1.358681
H	 2.637085	 1.747371	 0.016682
H	 4.259473	 1.094070	 0.055697

	symmetry c1
}
set optking {
	frozen_dihedral = ("
		2 3 4 8
	")
}

ee = optimize('scf')
oeprop('DIPOLE', 'QUADRUPOLE', 'MULLIKEN_CHARGES')
f=open( 'psi4out.xyz', 'w' )
f.write( "21  " )
f.write( str(ee) + "\n" )
f.write( MOL.save_string_xyz() )
f.close()
--------------------------------------------------------------------------

    Molecular point group: c1
  Charge       = 0
  Multiplicity = 1
  Basis Set: 6-31G*
  Basis Set:
  @DF-RHF Final Energy:  -310.20941521950874
    Total Energy =                       -310.2094152195090828
    Molecular point group: c1
  Basis Set: 6-31G*
  Basis Set:
  Basis Set: 6-31G*
  Basis Set:
  @DF-RHF Final Energy:  -310.20997034011299
    Total Energy =                       -310.2099703401130455
  Basis Set: 6-31G*
  Basis Set:
  Basis Set: 6-31G*
  Basis Set:
  @DF-RHF Final Energy:  -310.21033335108643
    Total Energy =                       -310.2103333510863195
  Basis Set: 6-31G*
  Basis Set:
  Basis Set: 6-31G*
  Basis Set:
  @DF-RHF Final Energy:  -310.21033963744878
    Total Energy =                       -310.2103396374484987
  Basis Set: 6-31G*
  Basis Set:
  Basis Set: 6-31G*
  Basis Set:
  @DF-RHF Final Energy:  -310.21032820891156
    Total Energy =                       -310.2103282089117329
  Basis Set: 6-31G*
  Basis Set:
  Basis Set: 6-31G*
  Basis Set:
  @DF-RHF Final Energy:  -310.21034531982497
    Total Energy =                       -310.2103453198249099
  Basis Set: 6-31G*
  Basis Set:
  Charge       = 0
  Multiplicity = 1
  Basis Set: 6-31G*
  Basis Set:

    Orbital Energies (a.u.)
    -----------------------

    Doubly Occupied:

       1A    -20.553081     2A    -11.268543     3A    -11.212624
       4A    -11.209696     5A    -11.207399     6A    -11.203409
       7A    -11.203194     8A     -1.360052     9A     -1.079101
      10A     -1.028099    11A     -0.951840    12A     -0.874651
      13A     -0.800060    14A     -0.771427    15A     -0.700158
      16A     -0.652120    17A     -0.616809    18A     -0.603388
      19A     -0.583449    20A     -0.565975    21A     -0.530765
      22A     -0.524683    23A     -0.499143    24A     -0.490656
      25A     -0.477784    26A     -0.453907    27A     -0.451446
      28A     -0.435846    29A     -0.428737

  @DF-RHF Final Energy:  -310.21034528336469

   => Energetics <=

    Nuclear Repulsion Energy =            318.0202508688311696
    One-Electron Energy =               -1050.9851104760530234
    Two-Electron Energy =                 422.7545143238570517
    DFT Exchange-Correlation Energy =       0.0000000000000000
    Empirical Dispersion Energy =           0.0000000000000000
    PCM Polarization Energy =               0.0000000000000000
    EFP Energy =                            0.0000000000000000
    Total Energy =                       -310.2103452833647452
    Molecular point group: c1
  Basis Set: 6-31G*
  Basis Set:

  -Total Gradient:
     Atom            X                  Y                   Z
    ------   -----------------  -----------------  -----------------
       1        0.000009926043    -0.000026014954    -0.000042415364
       2        0.002334808084     0.003415212180    -0.001805432525
       3       -0.002332258007    -0.003465433379     0.002369268549
       4       -0.003587891150    -0.004357802734     0.000141414665
       5       -0.000000117867    -0.000018778470    -0.000065293971
       6        0.000005301427    -0.000014016258    -0.000008345094
       7        0.000033708543     0.000032724994    -0.000078243669
       8        0.003562852253     0.004469270697    -0.000478458430
       9       -0.000023439040    -0.000046966286    -0.000017981004
      10       -0.000009610454    -0.000003651145     0.000015282425
      11       -0.000001460138    -0.000000039736    -0.000002559956
      12        0.000010490081    -0.000003497854    -0.000044783431
      13       -0.000017308408     0.000005978468     0.000031213757
      14        0.000015008931     0.000018355901    -0.000003809781
      15       -0.000025455360    -0.000010633090    -0.000012295641
      16        0.000005204091     0.000003481013    -0.000001428513
      17       -0.000011543644     0.000003586227    -0.000000791549
      18        0.000012677759    -0.000000763168     0.000007493098
      19        0.000001802410    -0.000000792663     0.000001338215
      20        0.000017965121    -0.000001215880    -0.000005001347
      21       -0.000000660672     0.000000996134     0.000000829564

  **** Optimization is complete! (in 7 steps) ****
    Final optimized geometry and variables:
    Molecular point group: c1

    Geometry (in Angstrom), charge = 0, multiplicity = 1:

    H           -3.041932058072     1.494166553515     1.451482965691
    O           -2.321190444195     0.921881030412     1.230652712193
    C           -2.539764746705     0.365226834443    -0.040874426033
    C           -1.402982062049    -0.591345111173    -0.389447072034
    H           -3.491886230524    -0.160241141296    -0.076650771966
    H           -2.578831784387     1.160230683818    -0.784494303094
    C           -0.019427532056    -0.072211936049     0.016333862283
    H           -1.402858706562    -0.718702887599    -1.469961679336
    H           -1.577615502715    -1.562772304587     0.063906737702
    C            1.103487345675    -1.002776007454    -0.450066372484
    H            0.120142807215     0.921690463465    -0.401216905769
    H            0.022625682902     0.040026852725     1.093715917955
    C            2.504108436327    -0.598752515290     0.024447985393
    H            1.099021927780    -1.064317732082    -1.537757618359
    H            0.895987877116    -2.008761001547    -0.089846605239
    C            3.011691080773     0.725059291546    -0.550110273924
    H            3.201658785041    -1.387286942049    -0.248000633895
    H            2.513350288190    -0.547482250355     1.111176358138
    H            3.000926230572     0.708414194919    -1.636879573593
    H            2.407886375418     1.565870513378    -0.225736038077
    H            4.032717511465     0.916379769590    -0.233975590416

  Mulliken Charges: (a.u.)
   Center  Symbol    Alpha    Beta     Spin     Total
       1     H     0.28048  0.28048  0.00000  0.43904
       2     O     4.36968  4.36968  0.00000 -0.73935
       3     C     2.99476  2.99476  0.00000  0.01047
       4     C     3.16511  3.16511  0.00000 -0.33021
       5     H     0.42914  0.42914  0.00000  0.14172
       6     H     0.43245  0.43245  0.00000  0.13509
       7     C     3.15160  3.15160  0.00000 -0.30320
       8     H     0.42332  0.42332  0.00000  0.15335
       9     H     0.41816  0.41816  0.00000  0.16369
      10     C     3.15346  3.15346  0.00000 -0.30691
      11     H     0.42308  0.42308  0.00000  0.15383
      12     H     0.40774  0.40774  0.00000  0.18453
      13     C     3.15153  3.15153  0.00000 -0.30306
      14     H     0.42702  0.42702  0.00000  0.14596
      15     H     0.42349  0.42349  0.00000  0.15302
      16     C     3.24115  3.24115  0.00000 -0.48231
      17     H     0.42258  0.42258  0.00000  0.15485
      18     H     0.42256  0.42256  0.00000  0.15488
      19     H     0.42364  0.42364  0.00000  0.15272
      20     H     0.41873  0.41873  0.00000  0.16254
      21     H     0.42032  0.42032  0.00000  0.15935

   Total alpha = 29.00000, Total beta = 29.00000, Total charge =  0.00000
