  ==> Input File <==

--------------------------------------------------------------------------
set {
	reference rhf
	basis cc-pvtz
}

set_num_threads( 4 )
memory 2 gb

molecule MOL {
0 1

H	 -1.692841	 2.398831	 0.633862
C	 -0.673022	 2.037711	 0.656897
C	 -0.600949	 0.658697	 -0.000002
H	 -0.348510	 1.992058	 1.687767
H	 -0.045862	 2.747686	 0.134697
C	 0.763408	 0.112229	 -0.000006
H	 -1.237976	 -0.047063	 0.516750
H	 -0.937033	 0.704309	 -1.027572
N	 1.806008	 -0.317179	 0.000007

	symmetry c1
}
set optking {
	frozen_dihedral = ("
		7 3 6 9
	")
}

ee = optimize('scf')
oeprop('DIPOLE', 'QUADRUPOLE', 'MULLIKEN_CHARGES')
f=open( 'psi4out.xyz', 'w' )
f.write( "9  " )
f.write( str(ee) + "\n" )
f.write( MOL.save_string_xyz() )
f.close()
--------------------------------------------------------------------------

    Molecular point group: c1
  Charge       = 0
  Multiplicity = 1
  Basis Set: CC-PVTZ
  Basis Set:
  @DF-RHF Final Energy:  -171.02344342833851
    Total Energy =                       -171.0234434283384530
    Molecular point group: c1
  Basis Set: CC-PVTZ
  Basis Set:
  Basis Set: CC-PVTZ
  Basis Set:
  @DF-RHF Final Energy:  -170.79887586689881
    Total Energy =                       -170.7988758668988680
  Basis Set: CC-PVTZ
  Basis Set:
  Basis Set: CC-PVTZ
  Basis Set:
  @DF-RHF Final Energy:  -170.91003278365457
    Total Energy =                       -170.9100327836545716
  Basis Set: CC-PVTZ
  Basis Set:
  Basis Set: CC-PVTZ
  Basis Set:
  @DF-RHF Final Energy:  -170.93937992733939
    Total Energy =                       -170.9393799273395871
  Basis Set: CC-PVTZ
  Basis Set:
  @DF-RHF Final Energy:  -171.02154283639857
    Total Energy =                       -171.0215428363985382
  @DF-RHF Final Energy:  -171.01773270483955
    Total Energy =                       -171.0177327048395171
  @DF-RHF Final Energy:  -171.02194491244009
    Total Energy =                       -171.0219449124400626
  @DF-RHF Final Energy:  -171.02340214264814
    Total Energy =                       -171.0234021426481377
  @DF-RHF Final Energy:  -171.02282837196211
    Total Energy =                       -171.0228283719622198
  @DF-RHF Final Energy:  -171.02314226851519
    Total Energy =                       -171.0231422685151301
  @DF-RHF Final Energy:  -171.02281414100815
    Total Energy =                       -171.0228141410082117
  @DF-RHF Final Energy:  -171.02235049493200
    Total Energy =                       -171.0223504949319135
  @DF-RHF Final Energy:  -171.02144616272705
    Total Energy =                       -171.0214461627271021
  @DF-RHF Final Energy:  -171.02250088204300
    Total Energy =                       -171.0225008820430048
  @DF-RHF Final Energy:  -171.02308667913911
    Total Energy =                       -171.0230866791391122
  @DF-RHF Final Energy:  -171.02313232920878
    Total Energy =                       -171.0231323292088064
  @DF-RHF Final Energy:  -171.02003139033764
    Total Energy =                       -171.0200313903375218
  @DF-RHF Final Energy:  -171.02285298251218
    Total Energy =                       -171.0228529825122337
  @DF-RHF Final Energy:  -171.02331879044928
    Total Energy =                       -171.0233187904493093
  @DF-RHF Final Energy:  -171.02244887199123
    Total Energy =                       -171.0224488719911733
  @DF-RHF Final Energy:  -171.02334883004175
    Total Energy =                       -171.0233488300416127
  @DF-RHF Final Energy:  -171.02330656400818
    Total Energy =                       -171.0233065640081236
  @DF-RHF Final Energy:  -171.02325486436689
    Total Energy =                       -171.0232548643668622
  @DF-RHF Final Energy:  -171.02319462294699
    Total Energy =                       -171.0231946229469600
  @DF-RHF Final Energy:  -171.02317580332056
    Total Energy =                       -171.0231758033205551
  @DF-RHF Final Energy:  -171.02314519077635
    Total Energy =                       -171.0231451907764040
  @DF-RHF Final Energy:  -171.02311290525444
    Total Energy =                       -171.0231129052545498
  @DF-RHF Final Energy:  -171.02306961853799
    Total Energy =                       -171.0230696185381021
  @DF-RHF Final Energy:  -171.02305012837002
    Total Energy =                       -171.0230501283700448
  @DF-RHF Final Energy:  -171.02298434661066
    Total Energy =                       -171.0229843466107695
  @DF-RHF Final Energy:  -171.02301371784830
    Total Energy =                       -171.0230137178483005
  @DF-RHF Final Energy:  -171.02286966142458
    Total Energy =                       -171.0228696614245507
  @DF-RHF Final Energy:  -171.02287420993474
    Total Energy =                       -171.0228742099347414
  @DF-RHF Final Energy:  -171.02338413301010
    Total Energy =                       -171.0233841330101257
  @DF-RHF Final Energy:  -170.76937032246016
    Total Energy =                       -170.7693703224601904
  @DF-RHF Final Energy:  -170.80707250041624
    Total Energy =                       -170.8070725004162682
  Basis Set: CC-PVTZ
  Basis Set:
  @DF-RHF Final Energy:  -170.81502994158569
    Total Energy =                       -170.8150299415855784
  Basis Set: CC-PVTZ
  Basis Set:
  Basis Set: CC-PVTZ
  Basis Set:
  @DF-RHF Final Energy:  -170.76040510151245
    Total Energy =                       -170.7604051015124469
  Basis Set: CC-PVTZ
  Basis Set:
  Basis Set: CC-PVTZ
  Basis Set:
  @DF-RHF Final Energy:  -170.78838835276352
    Total Energy =                       -170.7883883527633770
  Basis Set: CC-PVTZ
  Basis Set:
  Charge       = 0
  Multiplicity = 1
  Basis Set: CC-PVTZ
  Basis Set:

    Orbital Energies (a.u.)
    -----------------------

    Doubly Occupied:

       1A    -15.662497     2A    -11.320446     3A    -11.288465
       4A    -11.252325     5A     -1.163938     6A     -1.028579
       7A     -0.900980     8A     -0.689904     9A     -0.622114
      10A     -0.605007    11A     -0.566494    12A     -0.509374
      13A     -0.502544    14A     -0.439873    15A     -0.408445

  @DF-RHF Final Energy:  -170.83636649375546

   => Energetics <=

    Nuclear Repulsion Energy =            101.0336291442037009
    One-Electron Energy =                -429.8180226506854638
    Two-Electron Energy =                 157.9480270127262429
    DFT Exchange-Correlation Energy =       0.0000000000000000
    Empirical Dispersion Energy =           0.0000000000000000
    PCM Polarization Energy =               0.0000000000000000
    EFP Energy =                            0.0000000000000000
    Total Energy =                       -170.8363664937555200
    Molecular point group: c1
  Basis Set: CC-PVTZ
  Basis Set:

  -Total Gradient:
     Atom            X                  Y                   Z
    ------   -----------------  -----------------  -----------------
       1        0.022976994806    -0.001857079357     0.000126504677
       2       -0.066489735943    -0.011497075348     0.001419625811
       3        0.090926686816     0.001573224154     0.027346853009
       4        0.013251930920    -0.001721537955     0.036224548748
       5        0.023672419464     0.032434988548    -0.028249260227
       6       -0.196185253670    -0.055214482705    -0.190137037837
       7       -0.031910501621    -0.033025211450     0.022729459752
       8       -0.005013230914     0.002461573218    -0.039211440752
       9        0.148770690140     0.066845600896     0.169750746819

    Molecular point group: c1

    Geometry (in Angstrom), charge = 0, multiplicity = 1:

    H           -1.952204698457     1.632780212474     0.472308228546
    C           -0.866472969323     1.161906330889     0.395327639464
    C           -0.950084605974    -0.070708720126    -0.315905623503
    H           -0.414429388457     1.022868917910     1.358747022301
    H           -0.215828654632     1.934676886131    -0.176673770920
    C            0.509267555493    -0.717284033370    -0.489861440922
    H           -1.642127359949    -0.834831054168     0.187644336509
    H           -1.423482354825     0.195396313106    -1.273623435488
    N            1.526789691662    -0.604779354320     0.310819106593

  Mulliken Charges: (a.u.)
   Center  Symbol    Alpha    Beta     Spin     Total
       1     H     0.43364  0.43364  0.00000  0.13272
       2     C     3.13334  3.13334  0.00000 -0.26667
       3     C     3.05406  3.05406  0.00000 -0.10812
       4     H     0.45534  0.45534  0.00000  0.08932
       5     H     0.45875  0.45875  0.00000  0.08251
       6     C     3.00699  3.00699  0.00000 -0.01398
       7     H     0.44757  0.44757  0.00000  0.10487
       8     H     0.45101  0.45101  0.00000  0.09799
       9     N     3.55932  3.55932  0.00000 -0.11863

   Total alpha = 15.00000, Total beta = 15.00000, Total charge = -0.00000
