  ==> Input File <==

--------------------------------------------------------------------------
set {
	reference rhf
	basis cc-pvtz
}

set_num_threads( 4 )
memory 2 gb

molecule MOL {
0 1

O	 1.385972	 0.061341	 0.856531
C	 0.576499	 0.134701	 -0.003900
C	 -0.765656	 -0.550508	 -0.002152
O	 0.755060	 0.838670	 -1.109575
C	 -1.945526	 0.411052	 0.000603
H	 -0.794329	 -1.203792	 -0.868145
H	 -0.791555	 -1.205429	 0.862701
C	 -3.282915	 -0.321280	 0.002596
H	 -1.880300	 1.059126	 -0.864925
H	 -1.877207	 1.057892	 0.866807
H	 -3.388495	 -0.952755	 -0.873419
H	 -4.107811	 0.380864	 0.004116
H	 -3.385717	 -0.953283	 0.878571
C	 1.978857	 1.532628	 -1.246528
H	 2.100594	 2.251269	 -0.449791
H	 1.929733	 2.036362	 -2.198120
H	 2.810967	 0.844590	 -1.231116

	symmetry c1
}
set optking {
	frozen_dihedral = ("
		1 2 3 6
	")
}

ee = optimize('scf')
oeprop('DIPOLE', 'QUADRUPOLE', 'MULLIKEN_CHARGES')
f=open( 'psi4out.xyz', 'w' )
f.write( "17  " )
f.write( str(ee) + "\n" )
f.write( MOL.save_string_xyz() )
f.close()
--------------------------------------------------------------------------

    Molecular point group: c1
  Charge       = 0
  Multiplicity = 1
  Basis Set: CC-PVTZ
  Basis Set:
  @DF-RHF Final Energy:  -345.03382014428797
    Total Energy =                       -345.0338201442883133
    Molecular point group: c1
  Basis Set: CC-PVTZ
  Basis Set:
  Basis Set: CC-PVTZ
  Basis Set:
  @DF-RHF Final Energy:  -345.03411283777899
    Total Energy =                       -345.0341128377787641
  Basis Set: CC-PVTZ
  Basis Set:
  Basis Set: CC-PVTZ
  Basis Set:
  @DF-RHF Final Energy:  -345.03412516273318
    Total Energy =                       -345.0341251627333463
  Basis Set: CC-PVTZ
  Basis Set:
  Basis Set: CC-PVTZ
  Basis Set:
  @DF-RHF Final Energy:  -345.03412650430073
    Total Energy =                       -345.0341265043010708
  Basis Set: CC-PVTZ
  Basis Set:
  Basis Set: CC-PVTZ
  Basis Set:
  @DF-RHF Final Energy:  -345.03412252760148
    Total Energy =                       -345.0341225276013688
  Basis Set: CC-PVTZ
  Basis Set:
  Charge       = 0
  Multiplicity = 1
  Basis Set: CC-PVTZ
  Basis Set:

    Orbital Energies (a.u.)
    -----------------------

    Doubly Occupied:

       1A    -20.597293     2A    -20.533129     3A    -11.363865
       4A    -11.278901     5A    -11.233206     6A    -11.229290
       7A    -11.216615     8A     -1.472264     9A     -1.364946
      10A     -1.085529    11A     -0.999988    12A     -0.942598
      13A     -0.831916    14A     -0.776396    15A     -0.699302
      16A     -0.683676    17A     -0.676424    18A     -0.638682
      19A     -0.597324    20A     -0.579554    21A     -0.550298
      22A     -0.547093    23A     -0.527118    24A     -0.511203
      25A     -0.490017    26A     -0.484257    27A     -0.459076
      28A     -0.434916

  @DF-RHF Final Energy:  -345.03412717555773

   => Energetics <=

    Nuclear Repulsion Energy =            314.7067823191420075
    One-Electron Energy =               -1093.8720659617836191
    Two-Electron Energy =                 434.1311564670840539
    DFT Exchange-Correlation Energy =       0.0000000000000000
    Empirical Dispersion Energy =           0.0000000000000000
    PCM Polarization Energy =               0.0000000000000000
    EFP Energy =                            0.0000000000000000
    Total Energy =                       -345.0341271755575576
    Molecular point group: c1
  Basis Set: CC-PVTZ
  Basis Set:

  -Total Gradient:
     Atom            X                  Y                   Z
    ------   -----------------  -----------------  -----------------
       1        0.000163755443    -0.000352501987    -0.000247398769
       2       -0.000211454691     0.000428909939     0.000436446208
       3       -0.000107796470     0.000183714248    -0.000377631572
       4        0.000018294289     0.000023615491    -0.000039352382
       5       -0.000002671569     0.000031344724    -0.000009850502
       6        0.000160202774    -0.000304498440     0.000241965749
       7        0.000000512726     0.000008818479    -0.000012229104
       8       -0.000011086387    -0.000012955676     0.000006336857
       9        0.000001486107    -0.000003209202     0.000009890480
      10       -0.000002861276     0.000000580809    -0.000007047761
      11       -0.000002151537    -0.000002221668    -0.000000012072
      12        0.000003664979     0.000003939873    -0.000000158685
      13       -0.000002925905    -0.000003657017    -0.000001793589
      14       -0.000024253111    -0.000005994325     0.000006404379
      15        0.000004401571     0.000001187066    -0.000002240508
      16        0.000008202011     0.000003492377    -0.000002417864
      17        0.000004681043    -0.000000564691    -0.000000910864

  **** Optimization is complete! (in 6 steps) ****
    Final optimized geometry and variables:
    Molecular point group: c1

    Geometry (in Angstrom), charge = 0, multiplicity = 1:

    O            1.546505655195    -0.279109045778     1.069309632907
    C            0.736586803654    -0.188188776872     0.210354867115
    C           -0.603161085128    -0.877362508845     0.216437771466
    O            0.918892597987     0.537102480218    -0.881097968676
    C           -1.784384692936     0.096456306399     0.201678532121
    H           -0.648750332404    -1.522438168429    -0.654749698936
    H           -0.633238696916    -1.501131402333     1.098254305126
    C           -3.124092427460    -0.629328714234     0.249800603090
    H           -1.731782590133     0.712160633114    -0.687338360721
    H           -1.704715513302     0.765910651059     1.052549140997
    H           -3.243953856604    -1.285929338551    -0.605347648994
    H           -3.946342290654     0.076099849861     0.243446476571
    H           -3.212048070942    -1.233262905849     1.146263542559
    C            2.142840772265     1.233621379935    -1.000368172392
    H            2.263191613316     1.934508629015    -0.187732680676
    H            2.096650707837     1.758224918581    -1.940913877339
    H            2.974610682489     0.544952759400    -0.997705990733

  Mulliken Charges: (a.u.)
   Center  Symbol    Alpha    Beta     Spin     Total
       1     O     4.19944  4.19944  0.00000 -0.39887
       2     C     2.80851  2.80851  0.00000  0.38298
       3     C     3.07837  3.07837  0.00000 -0.15674
       4     O     4.14976  4.14976  0.00000 -0.29952
       5     C     3.09208  3.09208  0.00000 -0.18415
       6     H     0.44761  0.44761  0.00000  0.10478
       7     H     0.43743  0.43743  0.00000  0.12514
       8     C     3.15125  3.15125  0.00000 -0.30250
       9     H     0.44369  0.44369  0.00000  0.11261
      10     H     0.44875  0.44875  0.00000  0.10250
      11     H     0.45431  0.45431  0.00000  0.09137
      12     H     0.44615  0.44615  0.00000  0.10770
      13     H     0.45295  0.45295  0.00000  0.09410
      14     C     3.03696  3.03696  0.00000 -0.07392
      15     H     0.45429  0.45429  0.00000  0.09142
      16     H     0.44563  0.44563  0.00000  0.10874
      17     H     0.45283  0.45283  0.00000  0.09435

   Total alpha = 28.00000, Total beta = 28.00000, Total charge = -0.00000
