  ==> Input File <==

--------------------------------------------------------------------------
set {
	reference rhf
	basis cc-pvtz
}

set_num_threads( 4 )
memory 2 gb

molecule MOL {
0 1

O	 0.533550	 -0.748405	 -2.206375
C	 -0.007703	 -0.955054	 -1.174765
C	 -1.395618	 -1.509356	 -1.026116
O	 0.550743	 -0.719877	 0.000412
H	 -1.359837	 -2.430098	 -0.458350
H	 -1.818963	 -1.689573	 -2.000710
H	 -2.009511	 -0.807758	 -0.476267
C	 1.863204	 -0.194033	 0.000410
H	 2.031502	 0.409177	 -0.879273
H	 2.524488	 -1.045142	 0.000793
H	 2.031291	 0.409823	 0.879686

	symmetry c1
}
set optking {
	frozen_dihedral = ("
		2 4 8 9
	")
}

ee = optimize('scf')
oeprop('DIPOLE', 'QUADRUPOLE', 'MULLIKEN_CHARGES')
f=open( 'psi4out.xyz', 'w' )
f.write( "11  " )
f.write( str(ee) + "\n" )
f.write( MOL.save_string_xyz() )
f.close()
--------------------------------------------------------------------------

    Molecular point group: c1
  Charge       = 0
  Multiplicity = 1
  Basis Set: CC-PVTZ
  Basis Set:
  @DF-RHF Final Energy:  -266.93686332902348
    Total Energy =                       -266.9368633290234243
    Molecular point group: c1
  Basis Set: CC-PVTZ
  Basis Set:
  Basis Set: CC-PVTZ
  Basis Set:
  @DF-RHF Final Energy:  -266.93782737026584
    Total Energy =                       -266.9378273702659499
  Basis Set: CC-PVTZ
  Basis Set:
  Basis Set: CC-PVTZ
  Basis Set:
  @DF-RHF Final Energy:  -266.93718101433728
    Total Energy =                       -266.9371810143372272
  Basis Set: CC-PVTZ
  Basis Set:
  Basis Set: CC-PVTZ
  Basis Set:
  @DF-RHF Final Energy:  -266.93811773745568
    Total Energy =                       -266.9381177374557410
  Basis Set: CC-PVTZ
  Basis Set:
  Basis Set: CC-PVTZ
  Basis Set:
  @DF-RHF Final Energy:  -266.93813187942999
    Total Energy =                       -266.9381318794299887
  Basis Set: CC-PVTZ
  Basis Set:
  Charge       = 0
  Multiplicity = 1
  Basis Set: CC-PVTZ
  Basis Set:

    Orbital Energies (a.u.)
    -----------------------

    Doubly Occupied:

       1A    -20.598221     2A    -20.534914     3A    -11.369553
       4A    -11.279276     5A    -11.232878     6A     -1.472848
       7A     -1.368001     8A     -1.037008     9A     -0.953983
      10A     -0.779766    11A     -0.698916    12A     -0.683041
      13A     -0.681090    14A     -0.597227    15A     -0.592918
      16A     -0.561931    17A     -0.529094    18A     -0.522756
      19A     -0.460443    20A     -0.445796

  @DF-RHF Final Energy:  -266.93813248875097

   => Energetics <=

    Nuclear Repulsion Energy =            183.4475063599041960
    One-Electron Energy =                -727.9719593976799388
    Two-Electron Energy =                 277.5863205490247765
    DFT Exchange-Correlation Energy =       0.0000000000000000
    Empirical Dispersion Energy =           0.0000000000000000
    PCM Polarization Energy =               0.0000000000000000
    EFP Energy =                            0.0000000000000000
    Total Energy =                       -266.9381324887509663
    Molecular point group: c1
  Basis Set: CC-PVTZ
  Basis Set:

  -Total Gradient:
     Atom            X                  Y                   Z
    ------   -----------------  -----------------  -----------------
       1       -0.000054561093    -0.000030854261    -0.000029609495
       2       -0.000521951543     0.001280185452    -0.000028384149
       3        0.000006444522     0.000021133049    -0.000005678615
       4        0.000903459031    -0.002267643739    -0.000226971101
       5        0.000013680250     0.000001423468    -0.000006489087
       6       -0.000005269446    -0.000002344645    -0.000005004254
       7        0.000005525935    -0.000000869809     0.000000777332
       8       -0.000943399899     0.002313027395     0.001086497305
       9        0.000552372881    -0.001317735879    -0.000798058434
      10       -0.000022728800     0.000002314654    -0.000006698140
      11        0.000066428160     0.000001364315     0.000019618637

  **** Optimization is complete! (in 6 steps) ****
    Final optimized geometry and variables:
    Molecular point group: c1

    Geometry (in Angstrom), charge = 0, multiplicity = 1:

    O            0.191555939150     0.050562558598    -1.348267612202
    C           -0.335994190564    -0.139072902819    -0.306574379635
    C           -1.729729004228    -0.672670797944    -0.135918160173
    O            0.236124243729     0.092560308364     0.863460903846
    H           -1.698594995279    -1.589775310224     0.437965524566
    H           -2.168077992003    -0.854279777071    -1.103605868898
    H           -2.326538419308     0.041050762314     0.417018812097
    C            1.544200571337     0.631142085858     0.882746062263
    H            1.718670217327     1.249847411448     0.018497371418
    H            2.267667609890    -0.172736197063     0.890622282069
    H            1.628959249378     1.204821838893     1.791712886648

  Mulliken Charges: (a.u.)
   Center  Symbol    Alpha    Beta     Spin     Total
       1     O     4.19709  4.19709  0.00000 -0.39419
       2     C     2.79964  2.79964  0.00000  0.40071
       3     C     3.13906  3.13906  0.00000 -0.27812
       4     O     4.14893  4.14893  0.00000 -0.29787
       5     H     0.44525  0.44525  0.00000  0.10950
       6     H     0.43792  0.43792  0.00000  0.12415
       7     H     0.44578  0.44578  0.00000  0.10844
       8     C     3.03458  3.03458  0.00000 -0.06916
       9     H     0.44737  0.44737  0.00000  0.10527
      10     H     0.45658  0.45658  0.00000  0.08685
      11     H     0.44780  0.44780  0.00000  0.10441

   Total alpha = 20.00000, Total beta = 20.00000, Total charge = -0.00000
