  ==> Input File <==

--------------------------------------------------------------------------
set {
	reference rhf
	basis 6-31G*
}

set_num_threads( 4 )
memory 2 gb

molecule MOL {
0 1

H	 -2.976667	 0.567051	 3.362953
O	 -2.267505	 0.006393	 3.082496
C	 -1.666525	 0.544379	 1.932720
C	 -0.536058	 -0.378206	 1.512447
H	 -2.393642	 0.634354	 1.126796
H	 -1.278246	 1.541834	 2.134372
C	 0.198102	 0.111031	 0.262842
H	 -0.948967	 -1.368493	 1.340502
H	 0.157769	 -0.469352	 2.343575
C	 1.331804	 -0.827780	 -0.158768
H	 -0.514735	 0.219445	 -0.550966
H	 0.607256	 1.103644	 0.446777
C	 2.723619	 -0.410569	 0.329459
H	 1.342964	 -0.912588	 -1.244120
H	 1.116806	 -1.824343	 0.220779
C	 3.243875	 0.895854	 -0.272975
H	 3.424222	 -1.207124	 0.091250
H	 2.714788	 -0.329854	 1.414619
H	 3.251977	 0.848779	 -1.358681
H	 2.637085	 1.747371	 0.016682
H	 4.259473	 1.094070	 0.055697

	symmetry c1
}
set optking {
	frozen_dihedral = ("
		4 7 10 14
	")
}

ee = optimize('scf')
oeprop('DIPOLE', 'QUADRUPOLE', 'MULLIKEN_CHARGES')
f=open( 'psi4out.xyz', 'w' )
f.write( "21  " )
f.write( str(ee) + "\n" )
f.write( MOL.save_string_xyz() )
f.close()
--------------------------------------------------------------------------

    Molecular point group: c1
  Charge       = 0
  Multiplicity = 1
  Basis Set: 6-31G*
  Basis Set:
  @DF-RHF Final Energy:  -310.20831306501418
    Total Energy =                       -310.2083130650143517
    Molecular point group: c1
  Basis Set: 6-31G*
  Basis Set:
  Basis Set: 6-31G*
  Basis Set:
  @DF-RHF Final Energy:  -310.20861131381116
    Total Energy =                       -310.2086113138109909
  Basis Set: 6-31G*
  Basis Set:
  Basis Set: 6-31G*
  Basis Set:
  @DF-RHF Final Energy:  -310.20888660626457
    Total Energy =                       -310.2088866062646275
  Basis Set: 6-31G*
  Basis Set:
  Basis Set: 6-31G*
  Basis Set:
  @DF-RHF Final Energy:  -310.20889962339521
    Total Energy =                       -310.2088996233950411
  Basis Set: 6-31G*
  Basis Set:
  Basis Set: 6-31G*
  Basis Set:
  @DF-RHF Final Energy:  -310.20890623068334
    Total Energy =                       -310.2089062306832830
  Basis Set: 6-31G*
  Basis Set:
  Basis Set: 6-31G*
  Basis Set:
  @DF-RHF Final Energy:  -310.20891377522116
    Total Energy =                       -310.2089137752214469
  Basis Set: 6-31G*
  Basis Set:
  Charge       = 0
  Multiplicity = 1
  Basis Set: 6-31G*
  Basis Set:

    Orbital Energies (a.u.)
    -----------------------

    Doubly Occupied:

       1A    -20.551904     2A    -11.266969     3A    -11.215696
       4A    -11.215081     5A    -11.213345     6A    -11.210799
       7A    -11.208010     8A     -1.358699     9A     -1.085025
      10A     -1.032039    11A     -0.953878    12A     -0.874632
      13A     -0.813320    14A     -0.774820    15A     -0.691414
      16A     -0.658932    17A     -0.624280    18A     -0.611120
      19A     -0.573922    20A     -0.571213    21A     -0.546237
      22A     -0.522871    23A     -0.497385    24A     -0.493727
      25A     -0.481917    26A     -0.455851    27A     -0.451515
      28A     -0.445479    29A     -0.434051

  @DF-RHF Final Energy:  -310.20891364917736

   => Energetics <=

    Nuclear Repulsion Energy =            314.5034212805707057
    One-Electron Energy =               -1043.7564106896120393
    Two-Electron Energy =                 419.0440757598638015
    DFT Exchange-Correlation Energy =       0.0000000000000000
    Empirical Dispersion Energy =           0.0000000000000000
    PCM Polarization Energy =               0.0000000000000000
    EFP Energy =                            0.0000000000000000
    Total Energy =                       -310.2089136491775321
    Molecular point group: c1
  Basis Set: 6-31G*
  Basis Set:

  -Total Gradient:
     Atom            X                  Y                   Z
    ------   -----------------  -----------------  -----------------
       1        0.000002501808     0.000000977583    -0.000002924494
       2       -0.000004102364    -0.000004303974    -0.000000544603
       3       -0.000000369107    -0.000001798997     0.000015543829
       4       -0.001409002243    -0.001075001929    -0.001291417085
       5        0.000002913270    -0.000006458586     0.000001008907
       6        0.000000976890     0.000003572128    -0.000002894875
       7        0.001412514837     0.001055226443     0.001843288072
       8        0.000006494878    -0.000009545453    -0.000000184316
       9        0.000000203206     0.000011442823    -0.000002881552
      10        0.001748829835     0.002477003903    -0.000666235733
      11       -0.000009704723     0.000017407421     0.000037042210
      12       -0.000074500505    -0.000011273222     0.000001347985
      13        0.000041280936    -0.000063624048    -0.000044638240
      14       -0.001781583195    -0.002417228325     0.000122983977
      15        0.000040396015     0.000000769083    -0.000010744248
      16       -0.000032829898     0.000045815374     0.000016082026
      17       -0.000004176575    -0.000014771257    -0.000015176050
      18        0.000026246175    -0.000007920318    -0.000002204096
      19        0.000031924489    -0.000016577547     0.000005422914
      20        0.000026253587     0.000009581833    -0.000021716745
      21       -0.000024267316     0.000006707067     0.000018842114

  **** Optimization is complete! (in 7 steps) ****
    Final optimized geometry and variables:
    Molecular point group: c1

    Geometry (in Angstrom), charge = 0, multiplicity = 1:

    H           -3.359575097953     0.513470875360     2.395309719171
    O           -2.664932806437    -0.051201885980     2.087859354269
    C           -2.044342519942     0.529450525477     0.969657696171
    C           -0.939247349549    -0.401360757252     0.503473775812
    H           -2.765379103899     0.682651036714     0.167652127072
    H           -1.628830692383     1.503439299585     1.224706218542
    C           -0.201068781314     0.121406520310    -0.731405357432
    H           -1.376507728793    -1.372063258974     0.288167263463
    H           -0.245893274809    -0.547647186207     1.327716369343
    C            0.960104179642    -0.793890703185    -1.169958426961
    H           -0.915422889050     0.215409219966    -1.546039017106
    H            0.165016648810     1.126944410111    -0.540259925467
    C            2.339557636231    -0.379883166820    -0.643297913159
    H            0.989918581843    -0.863181357633    -2.254600232343
    H            0.748707678212    -1.804312165884    -0.827781167319
    C            2.920740705668     0.860870996261    -1.323492550206
    H            3.030367664609    -1.207447449365    -0.783723850998
    H            2.281924557178    -0.213697660004     0.430548600622
    H            3.041618859166     0.696143566857    -2.390621905779
    H            2.286135774695     1.731958966783    -1.195157750250
    H            3.896254358180     1.105914137008    -0.914633638701

  Mulliken Charges: (a.u.)
   Center  Symbol    Alpha    Beta     Spin     Total
       1     H     0.28117  0.28117  0.00000  0.43766
       2     O     4.37171  4.37171  0.00000 -0.74341
       3     C     2.99023  2.99023  0.00000  0.01954
       4     C     3.16052  3.16052  0.00000 -0.32104
       5     H     0.43289  0.43289  0.00000  0.13421
       6     H     0.43292  0.43292  0.00000  0.13417
       7     C     3.16355  3.16355  0.00000 -0.32711
       8     H     0.41422  0.41422  0.00000  0.17157
       9     H     0.41482  0.41482  0.00000  0.17036
      10     C     3.15628  3.15628  0.00000 -0.31255
      11     H     0.42101  0.42101  0.00000  0.15798
      12     H     0.42147  0.42147  0.00000  0.15706
      13     C     3.15398  3.15398  0.00000 -0.30796
      14     H     0.42109  0.42109  0.00000  0.15782
      15     H     0.41877  0.41877  0.00000  0.16246
      16     C     3.23998  3.23998  0.00000 -0.47997
      17     H     0.42062  0.42062  0.00000  0.15875
      18     H     0.42217  0.42217  0.00000  0.15567
      19     H     0.42195  0.42195  0.00000  0.15609
      20     H     0.42134  0.42134  0.00000  0.15733
      21     H     0.41931  0.41931  0.00000  0.16138

   Total alpha = 29.00000, Total beta = 29.00000, Total charge =  0.00000
