  ==> Input File <==

--------------------------------------------------------------------------
set {
	reference rhf
	basis 6-31G*
}

set_num_threads( 4 )
memory 2 gb

molecule MOL {
0 1

H	 -1.098616	 -2.006395	 -1.122394
C	 -1.017025	 -1.048576	 -1.627455
O	 -0.774054	 0.001095	 -0.743181
H	 -1.963994	 -0.835563	 -2.105163
H	 -0.256594	 -1.125846	 -2.398797
C	 0.406953	 0.000033	 0.038965
C	 1.527284	 -0.003667	 -0.998752
C	 0.498933	 1.262172	 0.902524
C	 0.494271	 -1.259566	 0.906664
H	 1.452513	 0.873252	 -1.631882
H	 1.448863	 -0.881882	 -1.629595
H	 2.502020	 -0.005104	 -0.521731
H	 0.364280	 2.147110	 0.289513
H	 1.472180	 1.321775	 1.378800
H	 -0.247853	 1.275162	 1.689097
H	 0.356778	 -2.146106	 0.296587
H	 1.467182	 -1.320941	 1.383330
H	 -0.252763	 -1.267328	 1.693119

	symmetry c1
}
set optking {
	frozen_dihedral = ("
		2 3 6 7
	")
}

ee = optimize('scf')
oeprop('DIPOLE', 'QUADRUPOLE', 'MULLIKEN_CHARGES')
f=open( 'psi4out.xyz', 'w' )
f.write( "18  " )
f.write( str(ee) + "\n" )
f.write( MOL.save_string_xyz() )
f.close()
--------------------------------------------------------------------------

    Molecular point group: c1
  Charge       = 0
  Multiplicity = 1
  Basis Set: 6-31G*
  Basis Set:
  @DF-RHF Final Energy:  -271.16619955280964
    Total Energy =                       -271.1661995528097009
    Molecular point group: c1
  Basis Set: 6-31G*
  Basis Set:
  Basis Set: 6-31G*
  Basis Set:
  @DF-RHF Final Energy:  -271.17127623427660
    Total Energy =                       -271.1712762342767178
  Basis Set: 6-31G*
  Basis Set:
  Basis Set: 6-31G*
  Basis Set:
  @DF-RHF Final Energy:  -271.17506375861683
    Total Energy =                       -271.1750637586168864
  Basis Set: 6-31G*
  Basis Set:
  Basis Set: 6-31G*
  Basis Set:
  @DF-RHF Final Energy:  -271.17529637512337
    Total Energy =                       -271.1752963751234233
  Basis Set: 6-31G*
  Basis Set:
  @DF-RHF Final Energy:  -271.17545622033253
    Total Energy =                       -271.1754562203325349
  @DF-RHF Final Energy:  -271.17548255040208
    Total Energy =                       -271.1754825504023074
  @DF-RHF Final Energy:  -271.17548503009976
    Total Energy =                       -271.1754850300996509
  Basis Set: 6-31G*
  Basis Set:
  @DF-RHF Final Energy:  -271.17548698882166
    Total Energy =                       -271.1754869888214898
  Basis Set: 6-31G*
  Basis Set:
  Basis Set: 6-31G*
  Basis Set:
  @DF-RHF Final Energy:  -271.17549146238429
    Total Energy =                       -271.1754914623843433
  Basis Set: 6-31G*
  Basis Set:
  Basis Set: 6-31G*
  Basis Set:
  @DF-RHF Final Energy:  -271.17549426123475
    Total Energy =                       -271.1754942612348032
  Basis Set: 6-31G*
  Basis Set:
  Charge       = 0
  Multiplicity = 1
  Basis Set: 6-31G*
  Basis Set:

    Orbital Energies (a.u.)
    -----------------------

    Doubly Occupied:

       1A    -20.546936     2A    -11.281268     3A    -11.260510
       4A    -11.208913     5A    -11.208409     6A    -11.203218
       7A     -1.370145     8A     -1.073043     9A     -0.945789
      10A     -0.939752    11A     -0.912433    12A     -0.752337
      13A     -0.655210    14A     -0.644293    15A     -0.637313
      16A     -0.593035    17A     -0.574926    18A     -0.552652
      19A     -0.534088    20A     -0.523738    21A     -0.514581
      22A     -0.487051    23A     -0.486548    24A     -0.438862
      25A     -0.404671

  @DF-RHF Final Energy:  -271.17549341548590

   => Energetics <=

    Nuclear Repulsion Energy =            272.2914318599507624
    One-Electron Energy =                -907.4344119320028312
    Two-Electron Energy =                 363.9674866565661659
    DFT Exchange-Correlation Energy =       0.0000000000000000
    Empirical Dispersion Energy =           0.0000000000000000
    PCM Polarization Energy =               0.0000000000000000
    EFP Energy =                            0.0000000000000000
    Total Energy =                       -271.1754934154859029
    Molecular point group: c1
  Basis Set: 6-31G*
  Basis Set:

  -Total Gradient:
     Atom            X                  Y                   Z
    ------   -----------------  -----------------  -----------------
       1       -0.000008840880     0.000007420667    -0.000020855937
       2        0.000019805205     0.000016437962    -0.000006005814
       3       -0.000001336084     0.000006959867     0.000007914322
       4        0.000002052986    -0.000002391470     0.000001079975
       5        0.000013511503    -0.000000496441    -0.000010030963
       6       -0.000032489765    -0.000025130496     0.000032910187
       7       -0.000025238880    -0.000021767499     0.000014362301
       8        0.000029558919     0.000018708127    -0.000017864993
       9       -0.000002246024     0.000010207390     0.000008639733
      10       -0.000004268260    -0.000012612397    -0.000003407965
      11       -0.000001213081    -0.000016532558    -0.000002137005
      12       -0.000002158676     0.000013400426     0.000008339149
      13       -0.000031958191     0.000036404142     0.000021143270
      14        0.000025084962     0.000030072035    -0.000033231931
      15        0.000025262660    -0.000052884319    -0.000007230089
      16        0.000011377388     0.000013741649     0.000012006618
      17       -0.000007592292    -0.000001985913    -0.000000879539
      18       -0.000009311492    -0.000019551170    -0.000004751317

  **** Optimization is complete! (in 11 steps) ****
    Final optimized geometry and variables:
    Molecular point group: c1

    Geometry (in Angstrom), charge = 0, multiplicity = 1:

    H           -1.339168399583    -1.778535150809    -0.863221444066
    C           -1.309792809764    -0.793374288793    -1.319039243628
    O           -0.970478484334     0.206345677734    -0.409007400305
    H           -2.301990814597    -0.557225896883    -1.679724172108
    H           -0.636470937050    -0.824160239895    -2.170434520293
    C            0.274628808209     0.148362732639     0.263967561562
    C            1.442940574914     0.171786966826    -0.726659261961
    C            0.285966644032     1.417572173796     1.113067426446
    C            0.353884914334    -1.085781695708     1.168355051508
    H            1.338262481525     1.006243803763    -1.412131709471
    H            1.504696518941    -0.741886642049    -1.308095979231
    H            2.382931188321     0.282437913715    -0.195947107100
    H            0.198289585233     2.292293649564     0.478549817774
    H            1.203605769985     1.495838981474     1.687073313857
    H           -0.553035072667     1.414395142149     1.799670068231
    H            0.402887960909    -2.007714414216     0.599025999659
    H            1.242590057225    -1.041080306578     1.789528725398
    H           -0.514329221644    -1.131430754665     1.817209770391

  Mulliken Charges: (a.u.)
   Center  Symbol    Alpha    Beta     Spin     Total
       1     H     0.42974  0.42974  0.00000  0.14052
       2     C     3.07973  3.07973  0.00000 -0.15946
       3     O     4.31842  4.31842  0.00000 -0.63684
       4     H     0.41283  0.41283  0.00000  0.17434
       5     H     0.42912  0.42912  0.00000  0.14176
       6     C     2.84224  2.84224  0.00000  0.31552
       7     C     3.24832  3.24832  0.00000 -0.49665
       8     C     3.23302  3.23302  0.00000 -0.46603
       9     C     3.24687  3.24687  0.00000 -0.49373
      10     H     0.41333  0.41333  0.00000  0.17334
      11     H     0.42010  0.42010  0.00000  0.15979
      12     H     0.41935  0.41935  0.00000  0.16130
      13     H     0.41416  0.41416  0.00000  0.17168
      14     H     0.42513  0.42513  0.00000  0.14975
      15     H     0.41408  0.41408  0.00000  0.17184
      16     H     0.42037  0.42037  0.00000  0.15925
      17     H     0.41993  0.41993  0.00000  0.16015
      18     H     0.41326  0.41326  0.00000  0.17348

   Total alpha = 25.00000, Total beta = 25.00000, Total charge = -0.00000
