  ==> Input File <==

--------------------------------------------------------------------------
set {
	reference rhf
	basis 6-31G*
}

set_num_threads( 1 )
memory 2 gb

molecule MOL {
0 1

O	 3.225979	 0.970355	 -0.599647
C	 2.701189	 0.057885	 -0.047330
C	 1.245376	 -0.013843	 0.345420
O	 3.347903	 -1.046386	 0.304773
C	 0.455112	 1.231400	 -0.050772
H	 0.838542	 -0.913825	 -0.103701
H	 1.208210	 -0.175333	 1.419774
C	 -0.998893	 1.219485	 0.433193
H	 0.482531	 1.345121	 -1.130325
H	 0.957290	 2.103070	 0.354729
C	 -1.883438	 0.145884	 -0.207175
H	 -1.431207	 2.195402	 0.224832
H	 -1.019646	 1.105716	 1.516076
C	 -3.347647	 0.245583	 0.225435
H	 -1.822183	 0.231698	 -1.291012
H	 -1.510341	 -0.844814	 0.042401
C	 -4.057349	 -1.108511	 0.279146
H	 -3.881044	 0.902997	 -0.459057
H	 -3.402349	 0.717989	 1.204995
C	 -5.520122	 -0.999768	 0.708298
H	 -4.002755	 -1.582401	 -0.698653
H	 -3.528155	 -1.765592	 0.966154
H	 -5.995674	 -1.975289	 0.736857
H	 -6.085056	 -0.376537	 0.020817
H	 -5.606717	 -0.560570	 1.698187
C	 4.728119	 -1.109107	 -0.004993
H	 4.882018	 -1.033965	 -1.071845
H	 5.068212	 -2.067527	 0.355250
H	 5.265056	 -0.311663	 0.488280

	symmetry c1
}
set optking {
	frozen_dihedral = ("
		21 17 14 11,
		15 11 8 5,
		6 3 5 9,
		11 8 5 9,
		2 4 26 27,
		1 2 4 26,
		6 3 2 1
	")
}

ee = energy('scf')
oeprop('DIPOLE', 'QUADRUPOLE', 'MULLIKEN_CHARGES')
f=open( 'psi4out.xyz', 'w' )
f.write( "29  " )
f.write( str(ee) + "\n" )
f.write( MOL.save_string_xyz() )
f.close()
--------------------------------------------------------------------------

    Molecular point group: c1

    Geometry (in Angstrom), charge = 0, multiplicity = 1:

       Center              X                  Y                   Z               Mass
    ------------   -----------------  -----------------  -----------------  -----------------
           O          3.192586760018     1.022318696588    -0.724640966197    15.994914619560
           C          2.667796760018     0.109848696588    -0.172323966197    12.000000000000
           C          1.211983760018     0.038120696588     0.220426033803    12.000000000000
           O          3.314510760018    -0.994422303412     0.179779033803    15.994914619560
           C          0.421719760018     1.283363696588    -0.175765966197    12.000000000000
           H          0.805149760018    -0.861861303412    -0.228694966197     1.007825032070
           H          1.174817760018    -0.123369303412     1.294780033803     1.007825032070
           C         -1.032285239982     1.271448696588     0.308199033803    12.000000000000
           H          0.449138760018     1.397084696588    -1.255318966197     1.007825032070
           H          0.923897760018     2.155033696588     0.229735033803     1.007825032070
           C         -1.916830239982     0.197847696588    -0.332168966197    12.000000000000
           H         -1.464599239982     2.247365696588     0.099838033803     1.007825032070
           H         -1.053038239982     1.157679696588     1.391082033803     1.007825032070
           C         -3.381039239982     0.297546696588     0.100441033803    12.000000000000
           H         -1.855575239982     0.283661696588    -1.416005966197     1.007825032070
           H         -1.543733239982    -0.792850303412    -0.082592966197     1.007825032070
           C         -4.090741239982    -1.056547303412     0.154152033803    12.000000000000
           H         -3.914436239982     0.954960696588    -0.584050966197     1.007825032070
           H         -3.435741239982     0.769952696588     1.080001033803     1.007825032070
           C         -5.553514239982    -0.947804303412     0.583304033803    12.000000000000
           H         -4.036147239982    -1.530437303412    -0.823646966197     1.007825032070
           H         -3.561547239982    -1.713628303412     0.841160033803     1.007825032070
           H         -6.029066239982    -1.923325303412     0.611863033803     1.007825032070
           H         -6.118448239982    -0.324573303412    -0.104176966197     1.007825032070
           H         -5.640109239982    -0.508606303412     1.573193033803     1.007825032070
           C          4.694726760018    -1.057143303412    -0.129986966197    12.000000000000
           H          4.848625760018    -0.982001303412    -1.196838966197     1.007825032070
           H          5.034819760018    -2.015563303412     0.230256033803     1.007825032070
           H          5.231663760018    -0.259699303412     0.363286033803     1.007825032070

  Charge       = 0
  Multiplicity = 1
  Basis Set: 6-31G*
  Basis Set:

    Orbital Energies (a.u.)
    -----------------------

    Doubly Occupied:

       1A    -20.603355     2A    -20.545117     3A    -11.371949
       4A    -11.280633     5A    -11.234675     6A    -11.218835
       7A    -11.217832     8A    -11.216179     9A    -11.215093
      10A    -11.213611    11A    -11.208883    12A     -1.469022
      13A     -1.362452    14A     -1.098109    15A     -1.066744
      16A     -1.019361    17A     -0.977144    18A     -0.928484
      19A     -0.861338    20A     -0.800690    21A     -0.790215
      22A     -0.763913    23A     -0.700382    24A     -0.682245
      25A     -0.672108    26A     -0.646350    27A     -0.630115
      28A     -0.607362    29A     -0.594256    30A     -0.580838
      31A     -0.566630    32A     -0.551608    33A     -0.533823
      34A     -0.528157    35A     -0.517907    36A     -0.508989
      37A     -0.496049    38A     -0.477650    39A     -0.472628
      40A     -0.459922    41A     -0.457569    42A     -0.455591
      43A     -0.440738    44A     -0.435032

  @DF-RHF Final Energy:  -501.04110016937011

   => Energetics <=

    Nuclear Repulsion Energy =            611.3648495958559579
    One-Electron Energy =               -1893.8521570420125499
    Two-Electron Energy =                 781.4462072767876180
    DFT Exchange-Correlation Energy =       0.0000000000000000
    Empirical Dispersion Energy =           0.0000000000000000
    PCM Polarization Energy =               0.0000000000000000
    EFP Energy =                            0.0000000000000000
    Total Energy =                       -501.0411001693689741

  Mulliken Charges: (a.u.)
   Center  Symbol    Alpha    Beta     Spin     Total
       1     O     4.28597  4.28597  0.00000 -0.57194
       2     C     2.60480  2.60480  0.00000  0.79040
       3     C     3.20967  3.20967  0.00000 -0.41934
       4     O     4.30747  4.30747  0.00000 -0.61494
       5     C     3.15421  3.15421  0.00000 -0.30842
       6     H     0.39870  0.39870  0.00000  0.20259
       7     H     0.40134  0.40134  0.00000  0.19732
       8     C     3.15842  3.15842  0.00000 -0.31684
       9     H     0.41312  0.41312  0.00000  0.17376
      10     H     0.40883  0.40883  0.00000  0.18233
      11     C     3.15613  3.15613  0.00000 -0.31225
      12     H     0.41782  0.41782  0.00000  0.16436
      13     H     0.42365  0.42365  0.00000  0.15270
      14     C     3.15161  3.15161  0.00000 -0.30323
      15     H     0.42097  0.42097  0.00000  0.15806
      16     H     0.42253  0.42253  0.00000  0.15493
      17     C     3.15310  3.15310  0.00000 -0.30620
      18     H     0.42152  0.42152  0.00000  0.15696
      19     H     0.42265  0.42265  0.00000  0.15469
      20     C     3.23971  3.23971  0.00000 -0.47942
      21     H     0.42273  0.42273  0.00000  0.15453
      22     H     0.42327  0.42327  0.00000  0.15347
      23     H     0.41936  0.41936  0.00000  0.16127
      24     H     0.42157  0.42157  0.00000  0.15687
      25     H     0.42170  0.42170  0.00000  0.15659
      26     C     3.09240  3.09240  0.00000 -0.18480
      27     H     0.40908  0.40908  0.00000  0.18183
      28     H     0.40853  0.40853  0.00000  0.18295
      29     H     0.40913  0.40913  0.00000  0.18174

   Total alpha = 44.00000, Total beta = 44.00000, Total charge =  0.00000
