                              Psi4 1.0.54 Driver

  ==> Input File <==

--------------------------------------------------------------------------
set {
	reference rhf
	basis cc-pvtz
}

set_num_threads( 4 )
memory 2 gb

molecule MOL {
0 1

O	 0.761127	 1.282495	 -0.226275
C	 0.576499	 0.134701	 -0.003900
C	 -0.765656	 -0.550508	 -0.002152
O	 1.549134	 -0.713159	 0.287796
C	 -1.945526	 0.411052	 0.000603
H	 -0.794329	 -1.203792	 -0.868145
H	 -0.791555	 -1.205429	 0.862701
C	 -3.282915	 -0.321280	 0.002596
H	 -1.880300	 1.059126	 -0.864925
H	 -1.877207	 1.057892	 0.866807
H	 -3.388495	 -0.952755	 -0.873419
H	 -4.107811	 0.380864	 0.004116
H	 -3.385717	 -0.953283	 0.878571
C	 2.866268	 -0.201580	 0.325953
H	 3.145251	 0.204573	 -0.634912
H	 3.501584	 -1.035427	 0.576475
H	 2.953224	 0.571826	 1.074501

	symmetry c1
}
set optking {
	frozen_dihedral = ("
		1 2 3 6
	")
}

ee,wfn = optimize('scf', return_wfn=True)
oeprop( wfn, 'DIPOLE', 'QUADRUPOLE', 'MULLIKEN_CHARGES')
f=open( 'psi4out.xyz', 'w' )
f.write( "17  " )
f.write( str(ee) + "\n" )
f.write( MOL.save_string_xyz() )
f.close()
--------------------------------------------------------------------------

    Molecular point group: c1
  Charge       = 0
  Multiplicity = 1
  Basis Set: CC-PVTZ
  Basis Set:
  @DF-RHF Final Energy:  -345.03519300844977
    Total Energy =                       -345.0351930084498804
    Molecular point group: c1
  Basis Set: CC-PVTZ
  Basis Set:
  Basis Set: CC-PVTZ
  Basis Set:
  @DF-RHF Final Energy:  -345.03417938219508
    Total Energy =                       -345.0341793821952479
  Basis Set: CC-PVTZ
  Basis Set:
  Basis Set: CC-PVTZ
  Basis Set:
  @DF-RHF Final Energy:  -345.03526125400754
    Total Energy =                       -345.0352612540070822
  Basis Set: CC-PVTZ
  Basis Set:
  Basis Set: CC-PVTZ
  Basis Set:
  @DF-RHF Final Energy:  -345.03529706514320
    Total Energy =                       -345.0352970651432543
  Basis Set: CC-PVTZ
  Basis Set:
  Charge       = 0
  Multiplicity = 1
  Basis Set: CC-PVTZ
  Basis Set:

    Orbital Energies (a.u.)
    -----------------------

    Doubly Occupied:

       1A    -20.596901     2A    -20.534299     3A    -11.364992
       4A    -11.278738     5A    -11.234323     6A    -11.220380
       7A    -11.212831     8A     -1.472634     9A     -1.366158
      10A     -1.081779    11A     -1.002492    12A     -0.940488
      13A     -0.827895    14A     -0.769603    15A     -0.702561
      16A     -0.686584    17A     -0.676266    18A     -0.637907
      19A     -0.596836    20A     -0.576424    21A     -0.568906
      22A     -0.529228    23A     -0.523505    24A     -0.500602
      25A     -0.487507    26A     -0.479645    27A     -0.460317
      28A     -0.441211

  @DF-RHF Final Energy:  -345.03529780918046

   => Energetics <=

    Nuclear Repulsion Energy =            313.0128970086691993
    One-Electron Energy =               -1090.5543663986607044
    Two-Electron Energy =                 432.5061715808107579
    DFT Exchange-Correlation Energy =       0.0000000000000000
    Empirical Dispersion Energy =           0.0000000000000000
    PCM Polarization Energy =               0.0000000000000000
    EFP Energy =                            0.0000000000000000
    Total Energy =                       -345.0352978091808041
    Molecular point group: c1
  Basis Set: CC-PVTZ
  Basis Set:

  -Total Gradient:
     Atom            X                  Y                   Z
    ------   -----------------  -----------------  -----------------
       1        0.000055468884    -0.000282082321    -0.000502835320
       2       -0.000239559127     0.000455285905     0.000700238498
       3        0.000264156888    -0.000498184067     0.000010068616
       4        0.000085889380     0.000003289101     0.000015359050
       5       -0.000020520498    -0.000011343991     0.000027062778
       6       -0.000201547733     0.000378605461    -0.000230746160
       7        0.000017509526     0.000024557505    -0.000020808503
       8       -0.000027124407     0.000016425886     0.000000992015
       9       -0.000000557581    -0.000012231866     0.000012462290
      10       -0.000002809991    -0.000010917171    -0.000021948390
      11        0.000003744973     0.000010165228     0.000015093246
      12        0.000000182488    -0.000015585855     0.000002126966
      13        0.000002682177     0.000007780037    -0.000014369745
      14        0.000071403632    -0.000075167221     0.000000556485
      15       -0.000016814374    -0.000011698531     0.000057388754
      16        0.000035818924     0.000055442834    -0.000006568027
      17       -0.000027923158    -0.000034340936    -0.000044072553

  **** Optimization is complete! (in 5 steps) ****
    Final optimized geometry and variables:
    Molecular point group: c1

    Geometry (in Angstrom), charge = 0, multiplicity = 1:

    O            0.762336200897     1.279192579067    -0.242482562549
    C            0.577956372520     0.127938483242    -0.038569167431
    C           -0.767035441340    -0.552441556496    -0.029888844181
    O            1.556154497756    -0.732758992440     0.190616755103
    C           -1.942166704535     0.415860699673    -0.022075918146
    H           -0.799395705783    -1.186419274905    -0.911432844524
    H           -0.798342383433    -1.221610552557     0.821929610500
    C           -3.283611931791    -0.308748626064    -0.036737648394
    H           -1.867054499444     1.074777646159    -0.877725866993
    H           -1.876759687399     1.050560691332     0.854308103242
    H           -3.388305663379    -0.925869144811    -0.923075316695
    H           -4.104628990774     0.397926625389    -0.028338301306
    H           -3.394238114867    -0.953796796868     0.828703128224
    C            2.877921367833    -0.232570952955     0.173022133592
    H            3.112918904331     0.189849264193    -0.792629523076
    H            3.518317637401    -1.075384181033     0.376302200001
    H            3.008224978316     0.525970918406     0.930362787086

  Mulliken Charges: (a.u.)
   Center  Symbol    Alpha    Beta     Spin     Total
       1     O     4.19707  4.19707  0.00000 -0.39413
       2     C     2.80799  2.80799  0.00000  0.38401
       3     C     3.09415  3.09415  0.00000 -0.18830
       4     O     4.14656  4.14656  0.00000 -0.29313
       5     C     3.07922  3.07922  0.00000 -0.15844
       6     H     0.44276  0.44276  0.00000  0.11448
       7     H     0.43963  0.43963  0.00000  0.12075
       8     C     3.15127  3.15127  0.00000 -0.30255
       9     H     0.44418  0.44418  0.00000  0.11163
      10     H     0.44909  0.44909  0.00000  0.10182
      11     H     0.45558  0.45558  0.00000  0.08885
      12     H     0.44561  0.44561  0.00000  0.10879
      13     H     0.45596  0.45596  0.00000  0.08808
      14     C     3.03702  3.03702  0.00000 -0.07404
      15     H     0.45440  0.45440  0.00000  0.09119
      16     H     0.44522  0.44522  0.00000  0.10956
      17     H     0.45428  0.45428  0.00000  0.09143

   Total alpha = 28.00000, Total beta = 28.00000, Total charge = -0.00000

*** Psi4 exiting successfully. Buy a developer a beer!
