  ==> Input File <==

--------------------------------------------------------------------------
set {
	reference rhf
	basis 6-31G*
}

set_num_threads( 1 )
memory 2 gb

molecule MOL {
0 1

O	 1.490018	 0.851161	 -0.863720
C	 1.122059	 0.121804	 -0.000188
C	 -0.170150	 -0.657997	 -0.000612
O	 1.820280	 -0.105660	 1.105127
C	 -1.412532	 0.227344	 -0.000452
H	 -0.153702	 -1.313099	 -0.867402
H	 -0.153924	 -1.313811	 0.865644
C	 -2.706999	 -0.587347	 -0.000541
H	 -1.388000	 0.879466	 -0.868000
H	 -1.387972	 0.879138	 0.867341
C	 -3.956778	 0.291888	 0.000910
H	 -2.726114	 -1.239230	 -0.871609
H	 -2.725217	 -1.240844	 0.869333
H	 -3.985213	 0.933254	 -0.875158
H	 -4.860123	 -0.309979	 0.000519
H	 -3.984618	 0.931166	 0.878514
C	 3.059524	 0.567557	 1.232389
H	 3.726797	 0.290438	 0.428996
H	 3.467867	 0.257189	 2.181534
H	 2.913511	 1.638081	 1.219558

	symmetry c1
}
set optking {
	frozen_dihedral = ("
		9 5 8 12,
		9 5 3 6,
		1 2 4 17
	")
}

ee = energy('scf')
oeprop('DIPOLE', 'QUADRUPOLE', 'MULLIKEN_CHARGES')
f=open( 'psi4out.xyz', 'w' )
f.write( "20  " )
f.write( str(ee) + "\n" )
f.write( MOL.save_string_xyz() )
f.close()
--------------------------------------------------------------------------

    Molecular point group: c1

    Geometry (in Angstrom), charge = 0, multiplicity = 1:

       Center              X                  Y                   Z               Mass
    ------------   -----------------  -----------------  -----------------  -----------------
           O          1.551830023520     0.748837896777    -1.057533470561    15.994914619560
           C          1.183871023520     0.019480896777    -0.194001470561    12.000000000000
           C         -0.108337976480    -0.760320103223    -0.194425470561    12.000000000000
           O          1.882092023520    -0.207983103223     0.911313529439    15.994914619560
           C         -1.350719976480     0.125020896777    -0.194265470561    12.000000000000
           H         -0.091889976480    -1.415422103223    -1.061215470561     1.007825032070
           H         -0.092111976480    -1.416134103223     0.671830529439     1.007825032070
           C         -2.645186976480    -0.689670103223    -0.194354470561    12.000000000000
           H         -1.326187976480     0.777142896777    -1.061813470561     1.007825032070
           H         -1.326159976480     0.776814896777     0.673527529439     1.007825032070
           C         -3.894965976480     0.189564896777    -0.192903470561    12.000000000000
           H         -2.664301976480    -1.341553103223    -1.065422470561     1.007825032070
           H         -2.663404976480    -1.343167103223     0.675519529439     1.007825032070
           H         -3.923400976480     0.830930896777    -1.068971470561     1.007825032070
           H         -4.798310976480    -0.412302103223    -0.193294470561     1.007825032070
           H         -3.922805976480     0.828842896777     0.684700529439     1.007825032070
           C          3.121336023520     0.465233896777     1.038575529439    12.000000000000
           H          3.788609023520     0.188114896777     0.235182529439     1.007825032070
           H          3.529679023520     0.154865896777     1.987720529439     1.007825032070
           H          2.975323023520     1.535757896777     1.025744529439     1.007825032070

  Charge       = 0
  Multiplicity = 1
  Basis Set: 6-31G*
  Basis Set:

    Orbital Energies (a.u.)
    -----------------------

    Doubly Occupied:

       1A    -20.605085     2A    -20.543270     3A    -11.371527
       4A    -11.280335     5A    -11.233549     6A    -11.227491
       7A    -11.223603     8A    -11.213395     9A     -1.469146
      10A     -1.361757    11A     -1.092033    12A     -1.025244
      13A     -0.969071    14A     -0.888625    15A     -0.807321
      16A     -0.771785    17A     -0.694155    18A     -0.680638
      19A     -0.672710    20A     -0.646342    21A     -0.599551
      22A     -0.591925    23A     -0.573865    24A     -0.552717
      25A     -0.534417    26A     -0.523055    27A     -0.503662
      28A     -0.481974    29A     -0.479649    30A     -0.473296
      31A     -0.454159    32A     -0.431819

  @DF-RHF Final Energy:  -383.93939501693825

   => Energetics <=

    Nuclear Repulsion Energy =            381.5127108926711230
    One-Electron Energy =               -1278.9494766065076874
    Two-Electron Energy =                 513.4973706968991110
    DFT Exchange-Correlation Energy =       0.0000000000000000
    Empirical Dispersion Energy =           0.0000000000000000
    PCM Polarization Energy =               0.0000000000000000
    EFP Energy =                            0.0000000000000000
    Total Energy =                       -383.9393950169375103

  Mulliken Charges: (a.u.)
   Center  Symbol    Alpha    Beta     Spin     Total
       1     O     4.28582  4.28582  0.00000 -0.57164
       2     C     2.61037  2.61037  0.00000  0.77926
       3     C     3.20414  3.20414  0.00000 -0.40827
       4     O     4.30308  4.30308  0.00000 -0.60617
       5     C     3.15991  3.15991  0.00000 -0.31983
       6     H     0.40161  0.40161  0.00000  0.19677
       7     H     0.40080  0.40080  0.00000  0.19839
       8     C     3.15377  3.15377  0.00000 -0.30753
       9     H     0.40605  0.40605  0.00000  0.18790
      10     H     0.41597  0.41597  0.00000  0.16806
      11     C     3.24019  3.24019  0.00000 -0.48039
      12     H     0.42026  0.42026  0.00000  0.15947
      13     H     0.42105  0.42105  0.00000  0.15791
      14     H     0.41920  0.41920  0.00000  0.16160
      15     H     0.41771  0.41771  0.00000  0.16457
      16     H     0.42047  0.42047  0.00000  0.15907
      17     C     3.09339  3.09339  0.00000 -0.18678
      18     H     0.40874  0.40874  0.00000  0.18252
      19     H     0.40857  0.40857  0.00000  0.18286
      20     H     0.40888  0.40888  0.00000  0.18223

   Total alpha = 32.00000, Total beta = 32.00000, Total charge =  0.00000
