  ==> Input File <==

--------------------------------------------------------------------------
set {
	reference rhf
	basis 6-31G*
}

set_num_threads( 4 )
memory 2 gb

molecule MOL {
0 1

H	 -2.430392	 -0.435864	 1.200613
O	 -2.059198	 0.370765	 1.529175
C	 -1.042969	 0.808173	 0.667236
C	 0.212338	 -0.031600	 0.824251
H	 -1.363982	 0.795217	 -0.370618
H	 -0.826511	 1.833643	 0.931827
O	 1.171513	 0.459272	 -0.058250
H	 -0.007957	 -1.078745	 0.607601
H	 0.561110	 0.021710	 1.853862
C	 2.397842	 -0.198080	 -0.002151
H	 2.508049	 -0.905315	 -0.822092
H	 3.173794	 0.550865	 -0.078850
H	 2.517602	 -0.735921	 0.936026

	symmetry c1
}
set optking {
	frozen_dihedral = ("
		4 7 10 13
	")
}

ee = optimize('scf')
oeprop('DIPOLE', 'QUADRUPOLE', 'MULLIKEN_CHARGES')
f=open( 'psi4out.xyz', 'w' )
f.write( "13  " )
f.write( str(ee) + "\n" )
f.write( MOL.save_string_xyz() )
f.close()
--------------------------------------------------------------------------

    Molecular point group: c1
  Charge       = 0
  Multiplicity = 1
  Basis Set: 6-31G*
  Basis Set:
  @DF-RHF Final Energy:  -267.94745143523090
    Total Energy =                       -267.9474514352308461
    Molecular point group: c1
  Basis Set: 6-31G*
  Basis Set:
  Basis Set: 6-31G*
  Basis Set:
  @DF-RHF Final Energy:  -267.94764069570817
    Total Energy =                       -267.9476406957080599
  Basis Set: 6-31G*
  Basis Set:
  Basis Set: 6-31G*
  Basis Set:
  @DF-RHF Final Energy:  -267.94771607669321
    Total Energy =                       -267.9477160766931547
  Basis Set: 6-31G*
  Basis Set:
  Charge       = 0
  Multiplicity = 1
  Basis Set: 6-31G*
  Basis Set:

    Orbital Energies (a.u.)
    -----------------------

    Doubly Occupied:

       1A    -20.559895     2A    -20.559468     3A    -11.271273
       4A    -11.269926     5A    -11.268518     6A     -1.385165
       7A     -1.364487     8A     -1.018340     9A     -0.913578
      10A     -0.841581    11A     -0.708954    12A     -0.671514
      13A     -0.658657    14A     -0.636892    15A     -0.595271
      16A     -0.570751    17A     -0.546249    18A     -0.490241
      19A     -0.481253    20A     -0.437969    21A     -0.417491

  @DF-RHF Final Energy:  -267.94771667137320

   => Energetics <=

    Nuclear Repulsion Energy =            189.9725588073368669
    One-Electron Energy =                -742.5055997512123440
    Two-Electron Energy =                 284.5853242725021914
    DFT Exchange-Correlation Energy =       0.0000000000000000
    Empirical Dispersion Energy =           0.0000000000000000
    PCM Polarization Energy =               0.0000000000000000
    EFP Energy =                            0.0000000000000000
    Total Energy =                       -267.9477166713732572
    Molecular point group: c1
  Basis Set: 6-31G*
  Basis Set:

  -Total Gradient:
     Atom            X                  Y                   Z
    ------   -----------------  -----------------  -----------------
       1        0.000002582557     0.000006566033    -0.000000863928
       2       -0.000068873471     0.000020076803     0.000044468987
       3       -0.000005261560    -0.000060031334     0.000016472119
       4        0.000601771152     0.001354698308     0.001438209582
       5        0.000020321596     0.000007939071     0.000001680904
       6       -0.000008823148    -0.000004369711    -0.000000312240
       7       -0.001101873733    -0.002612485776    -0.002402386242
       8       -0.000000718139     0.000010417786     0.000007790002
       9        0.000003348008     0.000011311370    -0.000022618926
      10        0.001643704651     0.003393061606     0.001976751258
      11       -0.000019251089    -0.000005200045     0.000002015892
      12        0.000028702733    -0.000002184553     0.000005310644
      13       -0.001095629553    -0.002119799559    -0.001066518054

  **** Optimization is complete! (in 4 steps) ****
    Final optimized geometry and variables:
    Molecular point group: c1

    Geometry (in Angstrom), charge = 0, multiplicity = 1:

    H           -2.560269015881    -0.689330969605     0.591915608904
    O           -2.181966769209     0.113110725739     0.922562011849
    C           -1.158717976059     0.541543387992     0.063933440551
    C            0.089314740216    -0.307764292024     0.226839407351
    H           -1.476002198202     0.529993184465    -0.974953175112
    H           -0.934485567985     1.565491307603     0.327936679807
    O            1.055917956905     0.182182422148    -0.649553544425
    H           -0.140867214228    -1.352383021552     0.008938102342
    H            0.432332551586    -0.256247539885     1.257596294605
    C            2.299208189574    -0.453608169182    -0.605129498470
    H            2.390225693664    -1.166689222789    -1.420336247462
    H            3.075220824305     0.293964752223    -0.707057762479
    H            2.441979833076    -0.993847921933     0.326108787904

  Mulliken Charges: (a.u.)
   Center  Symbol    Alpha    Beta     Spin     Total
       1     H     0.28128  0.28128  0.00000  0.43744
       2     O     4.37096  4.37096  0.00000 -0.74192
       3     C     3.00489  3.00489  0.00000 -0.00978
       4     C     2.99634  2.99634  0.00000  0.00731
       5     H     0.42229  0.42229  0.00000  0.15542
       6     H     0.40852  0.40852  0.00000  0.18297
       7     O     4.31133  4.31133  0.00000 -0.62267
       8     H     0.43783  0.43783  0.00000  0.12434
       9     H     0.42269  0.42269  0.00000  0.15463
      10     C     3.07713  3.07713  0.00000 -0.15426
      11     H     0.42407  0.42407  0.00000  0.15186
      12     H     0.41436  0.41436  0.00000  0.17128
      13     H     0.42831  0.42831  0.00000  0.14338

   Total alpha = 21.00000, Total beta = 21.00000, Total charge = -0.00000
