  ==> Input File <==

--------------------------------------------------------------------------
set {
	reference rhf
	basis cc-pvtz
}

set_num_threads( 4 )
memory 2 gb

molecule MOL {
0 1

H	 1.300034	 -1.004607	 -0.773942
C	 0.788096	 -0.429819	 0.000000
N	 -0.537714	 -0.645117	 0.000000
O	 1.379041	 0.293402	 0.737871
C	 -1.522613	 0.412524	 0.000000
H	 -0.845894	 -1.585866	 0.000000
H	 -2.150256	 0.356137	 -0.880771
H	 -1.005621	 1.357208	 0.000000
H	 -2.150256	 0.356137	 0.880771

	symmetry c1
}
set optking {
	frozen_dihedral = ("
		1 2 3 6
	")
}

ee = optimize('scf')
oeprop('DIPOLE', 'QUADRUPOLE', 'MULLIKEN_CHARGES')
f=open( 'psi4out.xyz', 'w' )
f.write( "9  " )
f.write( str(ee) + "\n" )
f.write( MOL.save_string_xyz() )
f.close()
--------------------------------------------------------------------------

    Molecular point group: c1
  Charge       = 0
  Multiplicity = 1
  Basis Set: CC-PVTZ
  Basis Set:
  @DF-RHF Final Energy:  -208.01926136826927
    Total Energy =                       -208.0192613682693263
    Molecular point group: c1
  Basis Set: CC-PVTZ
  Basis Set:
  Basis Set: CC-PVTZ
  Basis Set:
  @DF-RHF Final Energy:  -208.02585529395145
    Total Energy =                       -208.0258552939514800
  Basis Set: CC-PVTZ
  Basis Set:
  Basis Set: CC-PVTZ
  Basis Set:
  @DF-RHF Final Energy:  -208.03305460930457
    Total Energy =                       -208.0330546093044291
  Basis Set: CC-PVTZ
  Basis Set:
  Basis Set: CC-PVTZ
  Basis Set:
  @DF-RHF Final Energy:  -208.03583127480258
    Total Energy =                       -208.0358312748027174
  Basis Set: CC-PVTZ
  Basis Set:
  @DF-RHF Final Energy:  -208.03662019958782
    Total Energy =                       -208.0366201995879010
  @DF-RHF Final Energy:  -208.03699482775983
    Total Energy =                       -208.0369948277597416
  @DF-RHF Final Energy:  -208.03732006467243
    Total Energy =                       -208.0373200646725422
  Basis Set: CC-PVTZ
  Basis Set:
  @DF-RHF Final Energy:  -208.03755468489081
    Total Energy =                       -208.0375546848906936
  Basis Set: CC-PVTZ
  Basis Set:
  Basis Set: CC-PVTZ
  Basis Set:
  @DF-RHF Final Energy:  -208.03767464018000
    Total Energy =                       -208.0376746401799721
  Basis Set: CC-PVTZ
  Basis Set:
  Basis Set: CC-PVTZ
  Basis Set:
  @DF-RHF Final Energy:  -208.03768912685879
    Total Energy =                       -208.0376891268586519
  Basis Set: CC-PVTZ
  Basis Set:
  Charge       = 0
  Multiplicity = 1
  Basis Set: CC-PVTZ
  Basis Set:

    Orbital Energies (a.u.)
    -----------------------

    Doubly Occupied:

       1A    -20.533298     2A    -15.581309     3A    -11.341159
       4A    -11.254582     5A     -1.407121     6A     -1.235920
       7A     -0.959902     8A     -0.806439     9A     -0.740518
      10A     -0.650588    11A     -0.642025    12A     -0.581459
      13A     -0.552140    14A     -0.537558    15A     -0.438487
      16A     -0.409109

  @DF-RHF Final Energy:  -208.03768961252973

   => Energetics <=

    Nuclear Repulsion Energy =            123.0387061249128493
    One-Electron Energy =                -526.8095691057158092
    Two-Electron Energy =                 195.7331733682731851
    DFT Exchange-Correlation Energy =       0.0000000000000000
    Empirical Dispersion Energy =           0.0000000000000000
    PCM Polarization Energy =               0.0000000000000000
    EFP Energy =                            0.0000000000000000
    Total Energy =                       -208.0376896125297890
    Molecular point group: c1
  Basis Set: CC-PVTZ
  Basis Set:

  -Total Gradient:
     Atom            X                  Y                   Z
    ------   -----------------  -----------------  -----------------
       1        0.002326234848     0.005731520722    -0.006647223633
       2       -0.004151314482    -0.006993294958     0.011258979014
       3        0.005635077359    -0.000601056628    -0.013701780960
       4        0.000028294881     0.000011408027     0.000013513084
       5       -0.000036867174    -0.000031435393     0.000007074925
       6       -0.003803987143     0.001875755727     0.009064846628
       7       -0.000011134713     0.000011887866     0.000010542950
       8        0.000005641805     0.000004991563     0.000005010949
       9        0.000008054618    -0.000009776926    -0.000010962956

  **** Optimization is complete! (in 11 steps) ****
    Final optimized geometry and variables:
    Molecular point group: c1

    Geometry (in Angstrom), charge = 0, multiplicity = 1:

    H            1.464612525994    -1.183622774927    -0.449447570194
    C            0.790023889904    -0.431423414982    -0.037302569298
    N           -0.474795021866    -0.516880196525    -0.551822364591
    O            1.182588055604     0.437816351411     0.666558242391
    C           -1.439295187546     0.483622379036    -0.120141484811
    H           -0.844829453847    -1.441529692319    -0.516346536821
    H           -2.365583416528     0.319239514690    -0.652143481155
    H           -1.067209163943     1.465906198302    -0.365780541366
    H           -1.627790667390     0.451733916705     0.946827712445

  Mulliken Charges: (a.u.)
   Center  Symbol    Alpha    Beta     Spin     Total
       1     H     0.45624  0.45624  0.00000  0.08752
       2     C     2.88336  2.88336  0.00000  0.23328
       3     N     3.60456  3.60456  0.00000 -0.20912
       4     O     4.19708  4.19708  0.00000 -0.39415
       5     C     3.08219  3.08219  0.00000 -0.16437
       6     H     0.42599  0.42599  0.00000  0.14802
       7     H     0.45208  0.45208  0.00000  0.09584
       8     H     0.44250  0.44250  0.00000  0.11499
       9     H     0.45600  0.45600  0.00000  0.08800

   Total alpha = 16.00000, Total beta = 16.00000, Total charge =  0.00000
