  ==> Input File <==

--------------------------------------------------------------------------
set {
	reference rhf
	basis 6-31G*
}

set_num_threads( 4 )
memory 2 gb

molecule MOL {
0 1

H	 -2.646374	 -0.642757	 1.268656
C	 -2.083525	 -0.384536	 0.393091
O	 -0.807605	 -0.127164	 0.768327
F	 -2.118945	 -1.383102	 -0.486752
F	 -2.621877	 0.670592	 -0.209486
C	 -0.094747	 -1.146850	 1.372281
C	 0.584215	 -0.549389	 2.597928
Cl	 1.107274	 -1.821510	 0.259989
H	 -0.728712	 -1.953613	 1.696311
F	 1.275281	 -1.470492	 3.235216
F	 -0.342836	 -0.093719	 3.416695
F	 1.385738	 0.439842	 2.286553

	symmetry c1
}
set optking {
	frozen_dihedral = ("
		6 3 2 4
	")
}

ee = optimize('scf')
oeprop('DIPOLE', 'QUADRUPOLE', 'MULLIKEN_CHARGES')
f=open( 'psi4out.xyz', 'w' )
f.write( "12  " )
f.write( str(ee) + "\n" )
f.write( MOL.save_string_xyz() )
f.close()
--------------------------------------------------------------------------

    Molecular point group: c1
  Charge       = 0
  Multiplicity = 1
  Basis Set: 6-31G*
  Basis Set:
  @DF-RHF Final Energy: -1146.30747284577797
    Total Energy =                      -1146.3074728457781930
    Molecular point group: c1
  Basis Set: 6-31G*
  Basis Set:
  Basis Set: 6-31G*
  Basis Set:
  @DF-RHF Final Energy: -1146.30926376119533
    Total Energy =                      -1146.3092637611962346
  Basis Set: 6-31G*
  Basis Set:
  Basis Set: 6-31G*
  Basis Set:
  @DF-RHF Final Energy: -1146.30969797644411
    Total Energy =                      -1146.3096979764441130
  Basis Set: 6-31G*
  Basis Set:
  Basis Set: 6-31G*
  Basis Set:
  @DF-RHF Final Energy: -1146.30973381899071
    Total Energy =                      -1146.3097338189900256
  Basis Set: 6-31G*
  Basis Set:
  Basis Set: 6-31G*
  Basis Set:
  @DF-RHF Final Energy: -1146.30973771468734
    Total Energy =                      -1146.3097377146873441
  Basis Set: 6-31G*
  Basis Set:
  Charge       = 0
  Multiplicity = 1
  Basis Set: 6-31G*
  Basis Set:

    Orbital Energies (a.u.)
    -----------------------

    Doubly Occupied:

       1A   -104.846278     2A    -26.364729     3A    -26.364615
       4A    -26.361817     5A    -26.346701     6A    -26.345356
       7A    -20.648816     8A    -11.531934     9A    -11.491439
      10A    -11.406421    11A    -10.581004    12A     -8.050368
      13A     -8.046791    14A     -8.046709    15A     -1.765792
      16A     -1.718326    17A     -1.662299    18A     -1.661253
      19A     -1.641456    20A     -1.487307    21A     -1.181272
      22A     -1.052385    23A     -0.986410    24A     -0.931339
      25A     -0.860453    26A     -0.854750    27A     -0.846002
      28A     -0.833215    29A     -0.816681    30A     -0.789437
      31A     -0.732695    32A     -0.729413    33A     -0.703004
      34A     -0.695553    35A     -0.683434    36A     -0.678839
      37A     -0.662878    38A     -0.660908    39A     -0.648845
      40A     -0.634819    41A     -0.615751    42A     -0.572275
      43A     -0.518933    44A     -0.478844    45A     -0.471288

  @DF-RHF Final Energy: -1146.30973840092201

   => Energetics <=

    Nuclear Repulsion Energy =            729.1546612400220511
    One-Electron Energy =               -3040.9111308508845468
    Two-Electron Energy =                1165.4467312099407081
    DFT Exchange-Correlation Energy =       0.0000000000000000
    Empirical Dispersion Energy =           0.0000000000000000
    PCM Polarization Energy =               0.0000000000000000
    EFP Energy =                            0.0000000000000000
    Total Energy =                      -1146.3097384009217876
    Molecular point group: c1
  Basis Set: 6-31G*
  Basis Set:

  -Total Gradient:
     Atom            X                  Y                   Z
    ------   -----------------  -----------------  -----------------
       1        0.000035556698     0.000056712138    -0.000013473609
       2        0.000017100352    -0.000007387836     0.000037565317
       3        0.000040324683    -0.000004257614     0.000037044122
       4       -0.000036888677     0.000050212934    -0.000129774918
       5       -0.000006257533    -0.000156428799     0.000058480042
       6        0.000021085096     0.000037726239     0.000041459658
       7        0.000044991613    -0.000074135498    -0.000010537241
       8       -0.000051080844     0.000026285610    -0.000044954684
       9       -0.000012142071     0.000030019299     0.000007276901
      10       -0.000004203645    -0.000004831944     0.000064065612
      11       -0.000018646826     0.000058478009    -0.000034987692
      12       -0.000029838878    -0.000012392543    -0.000012163512

  **** Optimization is complete! (in 6 steps) ****
    Final optimized geometry and variables:
    Molecular point group: c1

    Geometry (in Angstrom), charge = 0, multiplicity = 1:

    H           -2.477905659455     0.047650167131    -0.014322696587
    C           -1.862183022052     0.300637758603    -0.862827271612
    O           -0.574721407406     0.570567621012    -0.510184646354
    F           -1.902202798960    -0.707442868144    -1.729710319660
    F           -2.329604865067     1.378659719771    -1.450522499674
    C            0.139616621031    -0.441508757367     0.089280399149
    C            0.813112390267     0.151460268832     1.320267190634
    CL           1.339795559328    -1.123756637060    -1.018776742017
    H           -0.490633806113    -1.254131287832     0.415626731574
    F            1.496204340339    -0.770127454000     1.964264502224
    F           -0.128194679473     0.601177076248     2.131151461977
    F            1.613520445334     1.143090252885     1.022912660448

  Mulliken Charges: (a.u.)
   Center  Symbol    Alpha    Beta     Spin     Total
       1     H     0.41817  0.41817  0.00000  0.16366
       2     C     2.57117  2.57117  0.00000  0.85766
       3     O     4.29501  4.29501  0.00000 -0.59002
       4     F     4.68135  4.68135  0.00000 -0.36270
       5     F     4.66937  4.66937  0.00000 -0.33875
       6     C     3.04168  3.04168  0.00000 -0.08336
       7     C     2.43268  2.43268  0.00000  1.13463
       8    CL     8.49559  8.49559  0.00000  0.00882
       9     H     0.37596  0.37596  0.00000  0.24809
      10     F     4.67328  4.67328  0.00000 -0.34656
      11     F     4.67984  4.67984  0.00000 -0.35969
      12     F     4.66589  4.66589  0.00000 -0.33178

   Total alpha = 45.00000, Total beta = 45.00000, Total charge = -0.00000
