  ==> Input File <==

--------------------------------------------------------------------------
set {
	reference rhf
	basis 6-31G*
}

set_num_threads( 4 )
memory 2 gb

molecule MOL {
0 1

H	 -2.084360	 2.148882	 -0.808845
C	 -1.700839	 1.204179	 -0.471468
C	 -2.556029	 0.193168	 -0.067172
C	 -0.340523	 0.984478	 -0.436530
H	 -3.620215	 0.344990	 -0.087181
C	 -2.048387	 -1.017820	 0.364726
H	 0.346983	 1.745109	 -0.742394
C	 0.154804	 -0.237046	 -0.000077
H	 -2.728483	 -1.789724	 0.674129
C	 -0.680678	 -1.279401	 0.415246
N	 1.611208	 -0.370857	 -0.000034
C	 -0.236424	 -2.640270	 0.904742
O	 2.274126	 0.622059	 -0.008063
O	 2.068510	 -1.474748	 0.007823
H	 0.387559	 -2.562084	 1.784322
H	 -1.110001	 -3.231098	 1.150017
H	 0.337447	 -3.165114	 0.153520

	symmetry c1
}
set optking {
	frozen_dihedral = ("
		4 8 11 13
	")
}

ee = optimize('scf')
oeprop('DIPOLE', 'QUADRUPOLE', 'MULLIKEN_CHARGES')
f=open( 'psi4out.xyz', 'w' )
f.write( "17  " )
f.write( str(ee) + "\n" )
f.write( MOL.save_string_xyz() )
f.close()
--------------------------------------------------------------------------

    Molecular point group: c1
  Charge       = 0
  Multiplicity = 1
  Basis Set: 6-31G*
  Basis Set:
  @DF-RHF Final Energy:  -473.20626196971045
    Total Energy =                       -473.2062619697106811
    Molecular point group: c1
  Basis Set: 6-31G*
  Basis Set:
  Basis Set: 6-31G*
  Basis Set:
  @DF-RHF Final Energy:  -473.20664229174969
    Total Energy =                       -473.2066422917494037
  Basis Set: 6-31G*
  Basis Set:
  Basis Set: 6-31G*
  Basis Set:
  @DF-RHF Final Energy:  -473.20644115977325
    Total Energy =                       -473.2064411597734761
  Basis Set: 6-31G*
  Basis Set:
  Basis Set: 6-31G*
  Basis Set:
  @DF-RHF Final Energy:  -473.20667886349003
    Total Energy =                       -473.2066788634903105
  Basis Set: 6-31G*
  Basis Set:
  Basis Set: 6-31G*
  Basis Set:
  @DF-RHF Final Energy:  -473.20677646327431
    Total Energy =                       -473.2067764632744229
  Basis Set: 6-31G*
  Basis Set:
  Charge       = 0
  Multiplicity = 1
  Basis Set: 6-31G*
  Basis Set:

    Orbital Energies (a.u.)
    -----------------------

    Doubly Occupied:

       1A    -20.599089     2A    -20.597171     3A    -15.852929
       4A    -11.300703     5A    -11.282457     6A    -11.266146
       7A    -11.264052     8A    -11.254033     9A    -11.253199
      10A    -11.233564    11A     -1.631922    12A     -1.414174
      13A     -1.199816    14A     -1.091551    15A     -1.071743
      16A     -0.979751    17A     -0.931048    18A     -0.847267
      19A     -0.822426    20A     -0.768874    21A     -0.731858
      22A     -0.725469    23A     -0.693232    24A     -0.662557
      25A     -0.637640    26A     -0.598148    27A     -0.590112
      28A     -0.563058    29A     -0.540823    30A     -0.520181
      31A     -0.519232    32A     -0.485176    33A     -0.478356
      34A     -0.447767    35A     -0.369157    36A     -0.353452

  @DF-RHF Final Energy:  -473.20677720329041

   => Energetics <=

    Nuclear Repulsion Energy =            509.8850593979264545
    One-Electron Energy =               -1655.0274122083174007
    Two-Electron Energy =                 671.9355756071007590
    DFT Exchange-Correlation Energy =       0.0000000000000000
    Empirical Dispersion Energy =           0.0000000000000000
    PCM Polarization Energy =               0.0000000000000000
    EFP Energy =                            0.0000000000000000
    Total Energy =                       -473.2067772032902440
    Molecular point group: c1
  Basis Set: 6-31G*
  Basis Set:

  -Total Gradient:
     Atom            X                  Y                   Z
    ------   -----------------  -----------------  -----------------
       1       -0.000002434089     0.000008908013     0.000012522181
       2       -0.000011420159    -0.000022236856    -0.000042458791
       3       -0.000002234288     0.000032976954     0.000014909519
       4        0.000018232793     0.000048175189     0.000236094231
       5       -0.000000633126     0.000002922733    -0.000021241652
       6        0.000000200250     0.000021882115     0.000045980966
       7        0.000011707233     0.000006596846    -0.000011663705
       8       -0.000032862172    -0.000118354527    -0.000430087595
       9        0.000010310611    -0.000002534420    -0.000030383655
      10        0.000044350970     0.000057677029     0.000097020725
      11        0.000032918659     0.000048690467     0.000543869901
      12       -0.000030006039    -0.000088241377    -0.000128323434
      13       -0.000064107329    -0.000015270113    -0.000310253453
      14        0.000005100235     0.000008597822    -0.000021069372
      15        0.000009297633     0.000043754107     0.000001890575
      16        0.000011838330     0.000002274185     0.000005922706
      17       -0.000000259518    -0.000035818165     0.000037270853

  **** Optimization is complete! (in 6 steps) ****
    Final optimized geometry and variables:
    Molecular point group: c1

    Geometry (in Angstrom), charge = 0, multiplicity = 1:

    H           -2.038198853940     2.579154975528    -0.896239424182
    C           -1.656064860977     1.634228666835    -0.557809928254
    C           -2.514183516805     0.617473658501    -0.173941929895
    C           -0.294965123680     1.421349664802    -0.497009278631
    H           -3.578205342686     0.767011169056    -0.210041149588
    C           -2.010569213921    -0.593970848068     0.263096573695
    H            0.397090047133     2.188634370691    -0.777478370011
    C            0.192181205629     0.194399343768    -0.071407412220
    H           -2.692519002896    -1.366485106375     0.567501578317
    C           -0.643269863588    -0.852316971204     0.324300496887
    N            1.646253572409     0.054560917380    -0.060310181975
    C           -0.185948039769    -2.204991210429     0.823487870301
    O            2.298628981571     1.055440644353    -0.050894306618
    O            2.109021501901    -1.046064229451    -0.075917876628
    H            0.565652961680    -2.116294328990     1.595933125916
    H           -1.034948563998    -2.741151683718     1.228628845703
    H            0.246015473290    -2.791694994352     0.023986449783

  Mulliken Charges: (a.u.)
   Center  Symbol    Alpha    Beta     Spin     Total
       1     H     0.38938  0.38938  0.00000  0.22125
       2     C     3.11227  3.11227  0.00000 -0.22453
       3     C     3.08109  3.08109  0.00000 -0.16218
       4     C     3.08359  3.08359  0.00000 -0.16718
       5     H     0.38959  0.38959  0.00000  0.22082
       6     C     3.12542  3.12542  0.00000 -0.25084
       7     H     0.36463  0.36463  0.00000  0.27073
       8     C     2.93242  2.93242  0.00000  0.13516
       9     H     0.39272  0.39272  0.00000  0.21456
      10     C     2.96335  2.96335  0.00000  0.07330
      11     N     3.24963  3.24963  0.00000  0.50073
      12     C     3.23771  3.23771  0.00000 -0.47542
      13     O     4.23382  4.23382  0.00000 -0.46764
      14     O     4.23407  4.23407  0.00000 -0.46814
      15     H     0.40073  0.40073  0.00000  0.19853
      16     H     0.41462  0.41462  0.00000  0.17076
      17     H     0.39495  0.39495  0.00000  0.21010

   Total alpha = 36.00000, Total beta = 36.00000, Total charge =  0.00000
