                              Psi4 1.0.54 Driver

  ==> Input File <==

--------------------------------------------------------------------------
set {
	reference rhf
	basis cc-pvtz
}

set_num_threads( 4 )
memory 2 gb

molecule MOL {
0 1

H	 -3.144994	 -1.202467	 -0.018751
O	 -2.321472	 -0.864941	 -0.318626
C	 -2.021813	 0.336996	 0.342658
C	 -0.669613	 0.837286	 -0.127252
H	 -2.780861	 1.084746	 0.127159
H	 -2.006390	 0.184138	 1.420053
C	 0.490865	 -0.082543	 0.241244
H	 -0.708709	 0.967192	 -1.204587
H	 -0.507562	 1.822272	 0.303070
C	 1.839800	 0.429565	 -0.255472
H	 0.305636	 -1.070211	 -0.165276
H	 0.527397	 -0.195943	 1.322876
C	 2.024730	 0.263988	 -1.760188
H	 1.942091	 1.479363	 0.005610
H	 2.639085	 -0.092300	 0.264614
H	 1.260560	 0.804108	 -2.309034
H	 2.990052	 0.638274	 -2.081695
H	 1.961836	 -0.779850	 -2.049828

	symmetry c1
}
set optking {
	frozen_dihedral = ("
		14 10 7 11
	")
}

ee,wfn = optimize('scf', return_wfn=True)
oeprop( wfn, 'DIPOLE', 'QUADRUPOLE', 'MULLIKEN_CHARGES')
f=open( 'psi4out.xyz', 'w' )
f.write( "18  " )
f.write( str(ee) + "\n" )
f.write( MOL.save_string_xyz() )
f.close()
--------------------------------------------------------------------------

    Molecular point group: c1
  Charge       = 0
  Multiplicity = 1
  Basis Set: CC-PVTZ
  Basis Set:
  @DF-RHF Final Energy:  -271.28470759341161
    Total Energy =                       -271.2847075934116674
    Molecular point group: c1
  Basis Set: CC-PVTZ
  Basis Set:
  Basis Set: CC-PVTZ
  Basis Set:
  @DF-RHF Final Energy:  -271.28487450118257
    Total Energy =                       -271.2848745011825713
  Basis Set: CC-PVTZ
  Basis Set:
  Basis Set: CC-PVTZ
  Basis Set:
  @DF-RHF Final Energy:  -271.28494384954172
    Total Energy =                       -271.2849438495416052
  Basis Set: CC-PVTZ
  Basis Set:
  Basis Set: CC-PVTZ
  Basis Set:
  @DF-RHF Final Energy:  -271.28494520725656
    Total Energy =                       -271.2849452072562713
  Basis Set: CC-PVTZ
  Basis Set:
  Charge       = 0
  Multiplicity = 1
  Basis Set: CC-PVTZ
  Basis Set:

    Orbital Energies (a.u.)
    -----------------------

    Doubly Occupied:

       1A    -20.546245     2A    -11.265876     3A    -11.210048
       4A    -11.209393     5A    -11.205240     6A    -11.201571
       7A     -1.364109     8A     -1.075966     9A     -1.007502
      10A     -0.914883    11A     -0.827913    12A     -0.775002
      13A     -0.707505    14A     -0.642850    15A     -0.614902
      16A     -0.603744    17A     -0.566657    18A     -0.558022
      19A     -0.521195    20A     -0.502148    21A     -0.495562
      22A     -0.464431    23A     -0.455967    24A     -0.450057
      25A     -0.430297

  @DF-RHF Final Energy:  -271.28494552253346

   => Energetics <=

    Nuclear Repulsion Energy =            252.1529179657036650
    One-Electron Energy =                -867.6415559947713518
    Two-Electron Energy =                 344.2036925065341393
    DFT Exchange-Correlation Energy =       0.0000000000000000
    Empirical Dispersion Energy =           0.0000000000000000
    PCM Polarization Energy =               0.0000000000000000
    EFP Energy =                            0.0000000000000000
    Total Energy =                       -271.2849455225335760
    Molecular point group: c1
  Basis Set: CC-PVTZ
  Basis Set:

  -Total Gradient:
     Atom            X                  Y                   Z
    ------   -----------------  -----------------  -----------------
       1        0.000006415624     0.000003290746    -0.000001279462
       2        0.000005588941    -0.000003195310     0.000010562340
       3       -0.000019769347     0.000013680619    -0.000018272897
       4        0.000014987852    -0.000008339404     0.000030913064
       5       -0.000008383835     0.000001888246     0.000005433418
       6        0.000005297707    -0.000002108020    -0.000011984474
       7        0.000606805721    -0.000605648312     0.001038660720
       8        0.000002084191    -0.000005747972     0.000008482099
       9       -0.000006502253     0.000007518144    -0.000002627474
      10        0.000545635429    -0.000300308364     0.001189972051
      11       -0.000591878763     0.000550571148    -0.001072810646
      12       -0.000006260769     0.000003065088    -0.000007254404
      13        0.000007032086    -0.000000360071     0.000004039756
      14       -0.000561165252     0.000347381932    -0.001171064023
      15        0.000000967637     0.000003184994    -0.000005684423
      16        0.000003693693    -0.000004817955     0.000010795638
      17       -0.000002306672    -0.000002527655    -0.000004363585
      18       -0.000002241994     0.000002472149    -0.000003517697

  **** Optimization is complete! (in 5 steps) ****
    Final optimized geometry and variables:
    Molecular point group: c1

    Geometry (in Angstrom), charge = 0, multiplicity = 1:

    H           -2.983883907953    -1.340003235962     0.325076272693
    O           -2.166526216196    -0.997120864500     0.014842179998
    C           -1.861547216070     0.201744755103     0.679325922594
    C           -0.520206683387     0.712382325977     0.188975216077
    H           -2.628183011698     0.946918805993     0.482456328715
    H           -1.826426890928     0.041211264273     1.755114643593
    C            0.649947775548    -0.202433637166     0.548020031556
    H           -0.583506649756     0.845223785189    -0.885349097714
    H           -0.357564158797     1.696790091531     0.620592655616
    C            2.008106367559     0.303521056037     0.055374724200
    H            0.460742525534    -1.188844443661     0.140174066761
    H            0.683699855284    -0.310818587880     1.628838658342
    C            2.229535064477     0.137923792173    -1.446790407618
    H            2.119024514140     1.353114186967     0.315852483791
    H            2.793272516148    -0.228951819065     0.582496997102
    H            1.503323608607     0.694835507332    -2.026959873281
    H            3.214263893740     0.489858254232    -1.733230693021
    H            2.153029242629    -0.904522189479    -1.737163974599

  Mulliken Charges: (a.u.)
   Center  Symbol    Alpha    Beta     Spin     Total
       1     H     0.39576  0.39576  0.00000  0.20848
       2     O     4.19857  4.19857  0.00000 -0.39714
       3     C     2.97360  2.97360  0.00000  0.05281
       4     C     3.09228  3.09228  0.00000 -0.18456
       5     H     0.46522  0.46522  0.00000  0.06957
       6     H     0.47298  0.47298  0.00000  0.05405
       7     C     3.09300  3.09300  0.00000 -0.18600
       8     H     0.45149  0.45149  0.00000  0.09702
       9     H     0.45430  0.45430  0.00000  0.09140
      10     C     3.08997  3.08997  0.00000 -0.17994
      11     H     0.44596  0.44596  0.00000  0.10808
      12     H     0.45384  0.45384  0.00000  0.09232
      13     C     3.14893  3.14893  0.00000 -0.29786
      14     H     0.45762  0.45762  0.00000  0.08475
      15     H     0.44902  0.44902  0.00000  0.10195
      16     H     0.45481  0.45481  0.00000  0.09038
      17     H     0.44872  0.44872  0.00000  0.10256
      18     H     0.45393  0.45393  0.00000  0.09214

   Total alpha = 25.00000, Total beta = 25.00000, Total charge = -0.00000

*** Psi4 exiting successfully. Buy a developer a beer!
