  ==> Input File <==

--------------------------------------------------------------------------
set {
	reference rhf
	basis 6-31G*
}

set_num_threads( 4 )
memory 2 gb

molecule MOL {
0 1

H	 -3.864142	 -1.890894	 0.845944
C	 -2.794480	 -1.782122	 0.873792
C	 -2.074165	 -2.302964	 1.938226
C	 -2.140675	 -1.121754	 -0.154501
H	 -2.582451	 -2.814883	 2.735064
C	 -0.698818	 -2.162708	 1.973331
H	 -2.700715	 -0.718666	 -0.978808
C	 -0.764000	 -0.980161	 -0.121475
H	 -0.125266	 -2.559341	 2.789046
C	 -0.039208	 -1.501043	 0.943945
H	 -0.253946	 -0.469881	 -0.915061
C	 1.443340	 -1.376859	 1.029310
O	 1.970282	 -0.730723	 0.000018
O	 2.096986	 -1.810107	 1.925916
C	 3.377318	 -0.566646	 -0.000065
H	 3.695437	 -0.028981	 -0.881264
H	 3.789299	 -1.563704	 0.000236
H	 3.695516	 -0.028316	 0.880770

	symmetry c1
}
set optking {
	frozen_dihedral = ("
		12 13 15 16
	")
}

ee = optimize('scf')
oeprop('DIPOLE', 'QUADRUPOLE', 'MULLIKEN_CHARGES')
f=open( 'psi4out.xyz', 'w' )
f.write( "18  " )
f.write( str(ee) + "\n" )
f.write( MOL.save_string_xyz() )
f.close()
--------------------------------------------------------------------------

    Molecular point group: c1
  Charge       = 0
  Multiplicity = 1
  Basis Set: 6-31G*
  Basis Set:
  @DF-RHF Final Energy:  -457.34902174686022
    Total Energy =                       -457.3490217468604442
    Molecular point group: c1
  Basis Set: 6-31G*
  Basis Set:
  Basis Set: 6-31G*
  Basis Set:
  @DF-RHF Final Energy:  -457.35032469934868
    Total Energy =                       -457.3503246993492439
  Basis Set: 6-31G*
  Basis Set:
  Basis Set: 6-31G*
  Basis Set:
  @DF-RHF Final Energy:  -457.35045399766096
    Total Energy =                       -457.3504539976599972
  Basis Set: 6-31G*
  Basis Set:
  Basis Set: 6-31G*
  Basis Set:
  @DF-RHF Final Energy:  -457.35051417104137
    Total Energy =                       -457.3505141710409134
  Basis Set: 6-31G*
  Basis Set:
  Basis Set: 6-31G*
  Basis Set:
  @DF-RHF Final Energy:  -457.35063679286770
    Total Energy =                       -457.3506367928672489
  Basis Set: 6-31G*
  Basis Set:
  Basis Set: 6-31G*
  Basis Set:
  @DF-RHF Final Energy:  -457.35066750934379
    Total Energy =                       -457.3506675093433387
  Basis Set: 6-31G*
  Basis Set:
  Charge       = 0
  Multiplicity = 1
  Basis Set: 6-31G*
  Basis Set:

    Orbital Energies (a.u.)
    -----------------------

    Doubly Occupied:

       1A    -20.607685     2A    -20.544451     3A    -11.377904
       4A    -11.282964     5A    -11.245572     6A    -11.245272
       7A    -11.244139     8A    -11.241704     9A    -11.237470
      10A    -11.236710    11A     -1.472819    12A     -1.363916
      13A     -1.165291    14A     -1.048111    15A     -1.024811
      16A     -0.978155    17A     -0.860196    18A     -0.834321
      19A     -0.777782    20A     -0.739935    21A     -0.683334
      22A     -0.677453    23A     -0.671899    24A     -0.631070
      25A     -0.623946    26A     -0.597785    27A     -0.584622
      28A     -0.561497    29A     -0.529358    30A     -0.516626
      31A     -0.503413    32A     -0.498946    33A     -0.459237
      34A     -0.444412    35A     -0.344856    36A     -0.340984

  @DF-RHF Final Energy:  -457.35066780480236

   => Energetics <=

    Nuclear Repulsion Energy =            493.0157543898777703
    One-Electron Energy =               -1600.3355626450452291
    Two-Electron Energy =                 649.9691404503653303
    DFT Exchange-Correlation Energy =       0.0000000000000000
    Empirical Dispersion Energy =           0.0000000000000000
    PCM Polarization Energy =               0.0000000000000000
    EFP Energy =                            0.0000000000000000
    Total Energy =                       -457.3506678048022422
    Molecular point group: c1
  Basis Set: 6-31G*
  Basis Set:

  -Total Gradient:
     Atom            X                  Y                   Z
    ------   -----------------  -----------------  -----------------
       1        0.000000900369     0.000000004847    -0.000000353675
       2       -0.000000185451     0.000003514141     0.000003683215
       3        0.000005086262    -0.000021268714    -0.000011431075
       4        0.000005331072     0.000012378774     0.000004621603
       5        0.000002291224     0.000000099080     0.000001082155
       6        0.000005254545     0.000021332322     0.000013489223
       7        0.000002965622    -0.000002680323    -0.000002628899
       8        0.000008517387    -0.000006171451     0.000002296926
       9        0.000000863761    -0.000002631427     0.000002224347
      10        0.000008790772     0.000018091911     0.000009510730
      11        0.000005956854     0.000001680661    -0.000007842702
      12        0.000020862629    -0.000012743147    -0.000020447644
      13       -0.000036315674    -0.000018262715    -0.000082820668
      14       -0.000032447859    -0.000030552625     0.000041943655
      15        0.000004690241     0.000043237117     0.000073968534
      16       -0.000027747113    -0.000001574769    -0.000018484183
      17       -0.000014018146     0.000007426091     0.000002928705
      18        0.000039203509    -0.000011879773    -0.000011740244

  **** Optimization is complete! (in 7 steps) ****
    Final optimized geometry and variables:
    Molecular point group: c1

    Geometry (in Angstrom), charge = 0, multiplicity = 1:

    H           -4.030337415448    -0.465238355570     0.009944041233
    C           -2.960413703168    -0.359816136104     0.039075308756
    C           -2.242864179787    -0.883897022469     1.103849276765
    C           -2.303521094014     0.299422924864    -0.987935405538
    H           -2.753578343083    -1.394967437262     1.899724495342
    C           -0.867212537164    -0.747858783381     1.140662273388
    H           -2.861440298278     0.704891740299    -1.812489824362
    C           -0.926429689249     0.436581013886    -0.953294535348
    H           -0.295855509979    -1.146993931191     1.956671555518
    C           -0.204438792404    -0.087434723398     0.112487914408
    H           -0.414121303934     0.945869582327    -1.746052260714
    C            1.278487330817     0.031879902092     0.199552417423
    O            1.808455769451     0.677377897790    -0.828445947756
    O            1.929705623836    -0.404360210958     1.096574658413
    C            3.215768225988     0.838178331498    -0.826376622541
    H            3.450494071016     1.378897036218    -1.729885125878
    H            3.706560784920    -0.124081335127    -0.826133869582
    H            3.531590779710     1.399902941424     0.040552701815

  Mulliken Charges: (a.u.)
   Center  Symbol    Alpha    Beta     Spin     Total
       1     H     0.39539  0.39539  0.00000  0.20921
       2     C     3.08999  3.08999  0.00000 -0.17998
       3     C     3.10713  3.10713  0.00000 -0.21426
       4     C     3.10718  3.10718  0.00000 -0.21435
       5     H     0.39537  0.39537  0.00000  0.20927
       6     C     3.08639  3.08639  0.00000 -0.17278
       7     H     0.39626  0.39626  0.00000  0.20749
       8     C     3.08715  3.08715  0.00000 -0.17431
       9     H     0.37595  0.37595  0.00000  0.24809
      10     C     3.07713  3.07713  0.00000 -0.15426
      11     H     0.38042  0.38042  0.00000  0.23916
      12     C     2.57966  2.57966  0.00000  0.84068
      13     O     4.31478  4.31478  0.00000 -0.62956
      14     O     4.29186  4.29186  0.00000 -0.58371
      15     C     3.09257  3.09257  0.00000 -0.18513
      16     H     0.40797  0.40797  0.00000  0.18406
      17     H     0.40740  0.40740  0.00000  0.18520
      18     H     0.40741  0.40741  0.00000  0.18517

   Total alpha = 36.00000, Total beta = 36.00000, Total charge = -0.00000
