  ==> Input File <==

--------------------------------------------------------------------------
set {
	reference rhf
	basis cc-pvtz
}

set_num_threads( 4 )
memory 2 gb

molecule MOL {
0 1

O	 -2.071633	 -1.227563	 -0.223463
C	 -1.652164	 -0.152425	 0.058082
C	 -0.327811	 0.006324	 0.778296
C	 -2.402515	 1.108629	 -0.298924
C	 0.843231	 -0.001575	 -0.211665
H	 -0.319484	 0.928173	 1.350354
H	 -0.227804	 -0.823091	 1.466705
C	 2.197693	 0.138030	 0.476937
H	 0.722944	 0.805202	 -0.930230
H	 0.813976	 -0.926978	 -0.776588
C	 2.079593	 0.549768	 1.940387
H	 2.735456	 -0.803611	 0.408767
H	 2.795191	 0.870800	 -0.057464
H	 1.516106	 -0.182226	 2.509334
H	 1.573713	 1.504170	 2.038217
H	 3.056537	 0.644365	 2.399769
H	 -3.240910	 0.874416	 -0.936711
H	 -1.747554	 1.818823	 -0.790984
H	 -2.760419	 1.579708	 0.610998

	symmetry c1
}
set optking {
	frozen_dihedral = ("
		11 8 5 9
	")
}

ee = optimize('scf')
oeprop('DIPOLE', 'QUADRUPOLE', 'MULLIKEN_CHARGES')
f=open( 'psi4out.xyz', 'w' )
f.write( "19  " )
f.write( str(ee) + "\n" )
f.write( MOL.save_string_xyz() )
f.close()
--------------------------------------------------------------------------

    Molecular point group: c1
  Charge       = 0
  Multiplicity = 1
  Basis Set: CC-PVTZ
  Basis Set:
  @DF-RHF Final Energy:  -309.16406922216032
    Total Energy =                       -309.1640692221601512
    Molecular point group: c1
  Basis Set: CC-PVTZ
  Basis Set:
  Basis Set: CC-PVTZ
  Basis Set:
  @DF-RHF Final Energy:  -309.16467804028940
    Total Energy =                       -309.1646780402895160
  Basis Set: CC-PVTZ
  Basis Set:
  Basis Set: CC-PVTZ
  Basis Set:
  @DF-RHF Final Energy:  -309.16782911212982
    Total Energy =                       -309.1678291121300504
  Basis Set: CC-PVTZ
  Basis Set:
  Basis Set: CC-PVTZ
  Basis Set:
  @DF-RHF Final Energy:  -309.16809578571252
    Total Energy =                       -309.1680957857126941
  Basis Set: CC-PVTZ
  Basis Set:
  @DF-RHF Final Energy:  -309.16827791176371
    Total Energy =                       -309.1682779117641076
  Basis Set: CC-PVTZ
  Basis Set:
  @DF-RHF Final Energy:  -309.16831412933499
    Total Energy =                       -309.1683141293347035
  Basis Set: CC-PVTZ
  Basis Set:
  Basis Set: CC-PVTZ
  Basis Set:
  @DF-RHF Final Energy:  -309.16830070769123
    Total Energy =                       -309.1683007076909462
  Basis Set: CC-PVTZ
  Basis Set:
  Basis Set: CC-PVTZ
  Basis Set:
  @DF-RHF Final Energy:  -309.16831658813288
    Total Energy =                       -309.1683165881324271
  Basis Set: CC-PVTZ
  Basis Set:
  Charge       = 0
  Multiplicity = 1
  Basis Set: CC-PVTZ
  Basis Set:

    Orbital Energies (a.u.)
    -----------------------

    Doubly Occupied:

       1A    -20.536764     2A    -11.319308     3A    -11.228894
       4A    -11.227705     5A    -11.226852     6A    -11.223518
       7A    -11.214532     8A     -1.396968     9A     -1.089243
      10A     -1.027952    11A     -0.982403    12A     -0.904226
      13A     -0.795829    14A     -0.734921    15A     -0.662095
      16A     -0.654540    17A     -0.622665    18A     -0.606462
      19A     -0.589882    20A     -0.569544    21A     -0.554082
      22A     -0.544666    23A     -0.524223    24A     -0.504226
      25A     -0.481243    26A     -0.469122    27A     -0.458428
      28A     -0.399754

  @DF-RHF Final Energy:  -309.16831692045326

   => Energetics <=

    Nuclear Repulsion Energy =            305.3759413944738412
    One-Electron Energy =               -1023.9884271526668726
    Two-Electron Energy =                 409.4441688377398805
    DFT Exchange-Correlation Energy =       0.0000000000000000
    Empirical Dispersion Energy =           0.0000000000000000
    PCM Polarization Energy =               0.0000000000000000
    EFP Energy =                            0.0000000000000000
    Total Energy =                       -309.1683169204532078
    Molecular point group: c1
  Basis Set: CC-PVTZ
  Basis Set:

  -Total Gradient:
     Atom            X                  Y                   Z
    ------   -----------------  -----------------  -----------------
       1        0.000014893499    -0.000002739482    -0.000009001304
       2       -0.000012873354     0.000012842131    -0.000017368678
       3        0.000038139805    -0.000004359503    -0.000014894182
       4       -0.000029443816    -0.000012814556     0.000024044806
       5       -0.002158848274     0.001747685849     0.004238073698
       6        0.000025352690     0.000007496122     0.000010479487
       7        0.000001821819    -0.000006460848     0.000002664707
       8        0.000637738582     0.003981683779    -0.002048912929
       9        0.001656636368    -0.002572624761    -0.003115454143
      10       -0.000020726221     0.000006017110     0.000002798491
      11       -0.000173466967    -0.003168290405     0.000910693747
      12        0.000004138488     0.000004319290     0.000018595610
      13        0.000006015899    -0.000007895429     0.000011404412
      14        0.000005063318    -0.000001731107    -0.000006882600
      15       -0.000016849656     0.000001418905    -0.000004463026
      16        0.000001638764     0.000006305920     0.000009146782
      17        0.000006216298     0.000000488526    -0.000003638808
      18        0.000010541256    -0.000008669150    -0.000005525321
      19        0.000004011501     0.000017327604    -0.000001760747

  **** Optimization is complete! (in 9 steps) ****
    Final optimized geometry and variables:
    Molecular point group: c1

    Geometry (in Angstrom), charge = 0, multiplicity = 1:

    O           -1.877537347426    -1.300949024662    -0.690929341388
    C           -1.491196715820    -0.229231011213    -0.354396546028
    C           -0.210179187289    -0.072790793379     0.441607930437
    C           -2.243788040370     1.031083247201    -0.709748283840
    C            0.997389557148    -0.037184937773    -0.504040534821
    H           -0.255402615856     0.827976402352     1.041271236603
    H           -0.137409870579    -0.923532578797     1.105944803801
    C            2.393111196837     0.077898697205     0.158317981907
    H            0.877833982374     0.762703451249    -1.228286636078
    H            0.971625653287    -0.947052059173    -1.091516051721
    C            2.433329320426     0.504415208971     1.624658117244
    H            2.885077930764    -0.885947540340     0.085662469506
    H            2.998505694474     0.762775845894    -0.423931860681
    H            1.906217143270    -0.193704948140     2.262755173621
    H            2.000338969658     1.487300917830     1.776497609089
    H            3.460598747467     0.547212118243     1.967239631358
    H           -3.038958582632     0.805896181433    -1.403674901404
    H           -1.575724532949     1.770793522365    -1.136063249674
    H           -2.663778095223     1.461016849604     0.194025367327

  Mulliken Charges: (a.u.)
   Center  Symbol    Alpha    Beta     Spin     Total
       1     O     4.17778  4.17778  0.00000 -0.35556
       2     C     2.85653  2.85653  0.00000  0.28693
       3     C     3.10139  3.10139  0.00000 -0.20277
       4     C     3.15617  3.15617  0.00000 -0.31234
       5     C     3.10838  3.10838  0.00000 -0.21677
       6     H     0.44660  0.44660  0.00000  0.10680
       7     H     0.43778  0.43778  0.00000  0.12445
       8     C     3.08767  3.08767  0.00000 -0.17534
       9     H     0.44928  0.44928  0.00000  0.10143
      10     H     0.43904  0.43904  0.00000  0.12192
      11     C     3.15854  3.15854  0.00000 -0.31707
      12     H     0.44934  0.44934  0.00000  0.10132
      13     H     0.44885  0.44885  0.00000  0.10229
      14     H     0.45109  0.45109  0.00000  0.09782
      15     H     0.45422  0.45422  0.00000  0.09157
      16     H     0.44243  0.44243  0.00000  0.11513
      17     H     0.43590  0.43590  0.00000  0.12820
      18     H     0.45062  0.45062  0.00000  0.09877
      19     H     0.44839  0.44839  0.00000  0.10322

   Total alpha = 28.00000, Total beta = 28.00000, Total charge =  0.00000
