  ==> Input File <==

--------------------------------------------------------------------------
set {
	reference rhf
	basis cc-pvtz
}

set_num_threads( 4 )
memory 2 gb

molecule MOL {
0 1

H	 1.068835	 -0.628888	 -1.182383
O	 1.675515	 -0.612943	 -0.465627
C	 1.135873	 0.113391	 0.608264
C	 0.027642	 1.012027	 0.090274
H	 1.902972	 0.727968	 1.072615
H	 0.756163	 -0.561896	 1.370018
C	 -1.138737	 0.285728	 -0.581921
H	 0.464661	 1.708096	 -0.618252
H	 -0.340737	 1.603071	 0.925246
C	 -1.933983	 -0.631436	 0.343653
H	 -0.763151	 -0.285569	 -1.422081
H	 -1.808359	 1.035291	 -0.992333
H	 -2.789188	 -1.049673	 -0.174718
H	 -1.335629	 -1.461368	 0.700418
H	 -2.305435	 -0.092167	 1.209725

	symmetry c1
}
set optking {
	frozen_dihedral = ("
		1 2 3 4
	")
}

ee = optimize('scf')
oeprop('DIPOLE', 'QUADRUPOLE', 'MULLIKEN_CHARGES')
f=open( 'psi4out.xyz', 'w' )
f.write( "15  " )
f.write( str(ee) + "\n" )
f.write( MOL.save_string_xyz() )
f.close()
--------------------------------------------------------------------------

    Molecular point group: c1
  Charge       = 0
  Multiplicity = 1
  Basis Set: CC-PVTZ
  Basis Set:
  @DF-RHF Final Energy:  -232.23244172684278
    Total Energy =                       -232.2324417268429215
    Molecular point group: c1
  Basis Set: CC-PVTZ
  Basis Set:
  Basis Set: CC-PVTZ
  Basis Set:
  @DF-RHF Final Energy:  -232.23392784370594
    Total Energy =                       -232.2339278437059420
  Basis Set: CC-PVTZ
  Basis Set:
  Basis Set: CC-PVTZ
  Basis Set:
  @DF-RHF Final Energy:  -232.23469763968893
    Total Energy =                       -232.2346976396889318
  Basis Set: CC-PVTZ
  Basis Set:
  Basis Set: CC-PVTZ
  Basis Set:
  @DF-RHF Final Energy:  -232.23474492286221
    Total Energy =                       -232.2347449228620917
  Basis Set: CC-PVTZ
  Basis Set:
  Basis Set: CC-PVTZ
  Basis Set:
  @DF-RHF Final Energy:  -232.23475317336468
    Total Energy =                       -232.2347531733646520
  Basis Set: CC-PVTZ
  Basis Set:
  Charge       = 0
  Multiplicity = 1
  Basis Set: CC-PVTZ
  Basis Set:

    Orbital Energies (a.u.)
    -----------------------

    Doubly Occupied:

       1A    -20.542811     2A    -11.264075     3A    -11.226075
       4A    -11.221611     5A    -11.213769     6A     -1.361291
       7A     -1.075515     8A     -0.977869     9A     -0.884215
      10A     -0.793558    11A     -0.679752    12A     -0.648706
      13A     -0.629751    14A     -0.588271    15A     -0.579297
      16A     -0.549003    17A     -0.507742    18A     -0.486448
      19A     -0.481930    20A     -0.459598    21A     -0.431613

  @DF-RHF Final Energy:  -232.23475367423327

   => Energetics <=

    Nuclear Repulsion Energy =            191.6625158513597285
    One-Electron Energy =                -694.5887398330061160
    Two-Electron Energy =                 270.6914703074129420
    DFT Exchange-Correlation Energy =       0.0000000000000000
    Empirical Dispersion Energy =           0.0000000000000000
    PCM Polarization Energy =               0.0000000000000000
    EFP Energy =                            0.0000000000000000
    Total Energy =                       -232.2347536742334455
    Molecular point group: c1
  Basis Set: CC-PVTZ
  Basis Set:

  -Total Gradient:
     Atom            X                  Y                   Z
    ------   -----------------  -----------------  -----------------
       1        0.000525888544     0.001016201015    -0.000444382200
       2       -0.000888683944    -0.001563706440     0.000511940165
       3        0.000899193437     0.001114045519    -0.000206594165
       4       -0.000529833566    -0.000578037732     0.000113968196
       5       -0.000023182016     0.000020866195     0.000038355624
       6       -0.000001941582     0.000000756037    -0.000001523057
       7        0.000022520520    -0.000022313522    -0.000023623906
       8        0.000015676275     0.000005673484     0.000007386608
       9        0.000007189181     0.000012365679     0.000000371103
      10       -0.000012346224     0.000015366322    -0.000002417229
      11       -0.000009971486    -0.000006055353    -0.000009870284
      12       -0.000001284234    -0.000018153783     0.000014761181
      13        0.000000005084     0.000000024020     0.000003171805
      14       -0.000001573749     0.000003715491    -0.000007899551
      15       -0.000001656242    -0.000000746932     0.000006355711

  **** Optimization is complete! (in 6 steps) ****
    Final optimized geometry and variables:
    Molecular point group: c1

    Geometry (in Angstrom), charge = 0, multiplicity = 1:

    H            1.248483604831    -0.688701637908    -1.177176798152
    O            1.784288506291    -0.632158701082    -0.409281117539
    C            1.137342996540     0.104704054335     0.596739796017
    C            0.022180763574     1.004869544350     0.083792506539
    H            1.891614135144     0.715205803315     1.077368589421
    H            0.753420422254    -0.578389372239     1.347929458647
    C           -1.165222285032     0.292034660459    -0.571356811401
    H            0.447999216566     1.709565513982    -0.625022617177
    H           -0.339868236509     1.592293564193     0.923020265750
    C           -1.942941740672    -0.635765109607     0.358198820045
    H           -0.837442317884    -0.269872361531    -1.442922990669
    H           -1.837803470784     1.051069605450    -0.956875291493
    H           -2.813293159422    -1.039885057376    -0.145300846963
    H           -1.341111173189    -1.472744552316     0.690449883438
    H           -2.287826633583    -0.104487353255     1.239172835906

  Mulliken Charges: (a.u.)
   Center  Symbol    Alpha    Beta     Spin     Total
       1     H     0.39072  0.39072  0.00000  0.21856
       2     O     4.20920  4.20920  0.00000 -0.41839
       3     C     2.95999  2.95999  0.00000  0.08002
       4     C     3.11318  3.11318  0.00000 -0.22636
       5     H     0.45694  0.45694  0.00000  0.08612
       6     H     0.47326  0.47326  0.00000  0.05349
       7     C     3.09165  3.09165  0.00000 -0.18330
       8     H     0.44404  0.44404  0.00000  0.11191
       9     H     0.45290  0.45290  0.00000  0.09421
      10     C     3.15227  3.15227  0.00000 -0.30454
      11     H     0.46194  0.46194  0.00000  0.07612
      12     H     0.44494  0.44494  0.00000  0.11013
      13     H     0.44533  0.44533  0.00000  0.10934
      14     H     0.45008  0.45008  0.00000  0.09984
      15     H     0.45357  0.45357  0.00000  0.09285

   Total alpha = 21.00000, Total beta = 21.00000, Total charge =  0.00000
