                              Psi4 1.0.54 Driver

  ==> Input File <==

--------------------------------------------------------------------------
set {
	reference rhf
	basis cc-pvtz
}

set_num_threads( 4 )
memory 2 gb

molecule MOL {
0 1

H	 -2.362939	 -1.309000	 -0.383250
C	 -1.359344	 -1.272457	 0.020748
C	 -0.684082	 0.000127	 -0.464918
H	 -0.825835	 -2.151141	 -0.318537
H	 -1.416276	 -1.292399	 1.099455
C	 -1.359089	 1.272668	 0.021259
N	 0.742439	 -0.000109	 0.007333
H	 -0.596914	 0.000345	 -1.538146
H	 -2.362696	 1.309620	 -0.382686
H	 -0.825392	 2.151374	 -0.317674
H	 -1.415983	 1.292181	 1.099973
O	 1.569961	 0.359891	 -0.760295
O	 0.950604	 -0.360125	 1.117894

	symmetry c1
}
set optking {
	frozen_dihedral = ("
		12 7 3 8
	")
}

ee,wfn = optimize('scf', return_wfn=True)
oeprop( wfn, 'DIPOLE', 'QUADRUPOLE', 'MULLIKEN_CHARGES')
f=open( 'psi4out.xyz', 'w' )
f.write( "13  " )
f.write( str(ee) + "\n" )
f.write( MOL.save_string_xyz() )
f.close()
--------------------------------------------------------------------------

    Molecular point group: c1
  Charge       = 0
  Multiplicity = 1
  Basis Set: CC-PVTZ
  Basis Set:
  @DF-RHF Final Energy:  -321.86416886419977
    Total Energy =                       -321.8641688641997689
    Molecular point group: c1
  Basis Set: CC-PVTZ
  Basis Set:
  Basis Set: CC-PVTZ
  Basis Set:
  @DF-RHF Final Energy:  -321.85769898441185
    Total Energy =                       -321.8576989844118543
  Basis Set: CC-PVTZ
  Basis Set:
  Basis Set: CC-PVTZ
  Basis Set:
  @DF-RHF Final Energy:  -321.86373482873574
    Total Energy =                       -321.8637348287357440
  Basis Set: CC-PVTZ
  Basis Set:
  Basis Set: CC-PVTZ
  Basis Set:
  @DF-RHF Final Energy:  -321.86405708291215
    Total Energy =                       -321.8640570829120406
  Basis Set: CC-PVTZ
  Basis Set:
  Basis Set: CC-PVTZ
  Basis Set:
  @DF-RHF Final Energy:  -321.86432388535030
    Total Energy =                       -321.8643238853503021
  Basis Set: CC-PVTZ
  Basis Set:
  Basis Set: CC-PVTZ
  Basis Set:
  @DF-RHF Final Energy:  -321.86444984164046
    Total Energy =                       -321.8644498416407487
  Basis Set: CC-PVTZ
  Basis Set:
  Charge       = 0
  Multiplicity = 1
  Basis Set: CC-PVTZ
  Basis Set:

    Orbital Energies (a.u.)
    -----------------------

    Doubly Occupied:

       1A    -20.589336     2A    -20.588582     3A    -15.832668
       4A    -11.304364     5A    -11.245198     6A    -11.240529
       7A     -1.633954     8A     -1.418255     9A     -1.142528
      10A     -0.973862    11A     -0.957247    12A     -0.816487
      13A     -0.752991    14A     -0.732507    15A     -0.726488
      16A     -0.649754    17A     -0.594939    18A     -0.588086
      19A     -0.571162    20A     -0.529950    21A     -0.522432
      22A     -0.485388    23A     -0.470010    24A     -0.452184

  @DF-RHF Final Energy:  -321.86445048176853

   => Energetics <=

    Nuclear Repulsion Energy =            257.3720180448403312
    One-Electron Energy =                -948.8351345525393299
    Two-Electron Energy =                 369.5986660259306973
    DFT Exchange-Correlation Energy =       0.0000000000000000
    Empirical Dispersion Energy =           0.0000000000000000
    PCM Polarization Energy =               0.0000000000000000
    EFP Energy =                            0.0000000000000000
    Total Energy =                       -321.8644504817682446
    Molecular point group: c1
  Basis Set: CC-PVTZ
  Basis Set:

  -Total Gradient:
     Atom            X                  Y                   Z
    ------   -----------------  -----------------  -----------------
       1       -0.000010106789    -0.000009941491    -0.000001785746
       2       -0.000033490776    -0.000059491421    -0.000004461066
       3       -0.000092059219     0.000870768272     0.000101717060
       4       -0.000001112338     0.000008150935     0.000004019173
       5        0.000010597087     0.000015096943    -0.000024876616
       6        0.000061275190    -0.000043522551     0.000010533652
       7        0.000312513991    -0.000726114858    -0.000158037051
       8        0.000059254166    -0.000561514197     0.000021986203
       9        0.000016813502    -0.000016357177    -0.000004201280
      10       -0.000001029875     0.000014647641     0.000002258589
      11       -0.000007434281     0.000011039437     0.000013566294
      12       -0.000171762065     0.000486179822     0.000113395357
      13       -0.000143458596     0.000011058646    -0.000074114562

  **** Optimization is complete! (in 7 steps) ****
    Final optimized geometry and variables:
    Molecular point group: c1

    Geometry (in Angstrom), charge = 0, multiplicity = 1:

    H           -2.358480238462    -1.345068190365    -0.384196143434
    C           -1.365570452285    -1.296942302500     0.045270853553
    C           -0.681832731700    -0.041978894064    -0.465116775010
    H           -0.824884928871    -2.186196367474    -0.251504432184
    H           -1.450195651836    -1.287187502145     1.121523564130
    C           -1.354295478620     1.247675782417    -0.014413772875
    N            0.743690845030     0.004103866917     0.009834351756
    H           -0.590225358946    -0.063171197707    -1.538180569602
    H           -2.363355453763     1.271618267291    -0.404641146247
    H           -0.823562964359     2.113270438753    -0.387745012072
    H           -1.399749061139     1.299252063322     1.065076302494
    O            1.557812184699     0.369020946105    -0.770360896472
    O            0.961341417672    -0.291714749595     1.136675670606

  Mulliken Charges: (a.u.)
   Center  Symbol    Alpha    Beta     Spin     Total
       1     H     0.44990  0.44990  0.00000  0.10021
       2     C     3.14458  3.14458  0.00000 -0.28917
       3     C     3.00777  3.00777  0.00000 -0.01553
       4     H     0.44129  0.44129  0.00000  0.11742
       5     H     0.43819  0.43819  0.00000  0.12361
       6     C     3.14305  3.14305  0.00000 -0.28611
       7     N     3.27456  3.27456  0.00000  0.45089
       8     H     0.42520  0.42520  0.00000  0.14960
       9     H     0.44848  0.44848  0.00000  0.10304
      10     H     0.43823  0.43823  0.00000  0.12354
      11     H     0.44120  0.44120  0.00000  0.11760
      12     O     4.17123  4.17123  0.00000 -0.34246
      13     O     4.17632  4.17632  0.00000 -0.35263

   Total alpha = 24.00000, Total beta = 24.00000, Total charge =  0.00000

*** Psi4 exiting successfully. Buy a developer a beer!
