  ==> Input File <==

--------------------------------------------------------------------------
set {
	reference rhf
	basis 6-31G*
}

set_num_threads( 4 )
memory 2 gb

molecule MOL {
0 1

O	 -1.329485	 1.062595	 -0.599987
C	 -1.083277	 0.139568	 0.115197
C	 0.323299	 -0.082943	 0.642902
C	 -2.143673	 -0.863929	 0.510649
C	 1.355627	 -0.005344	 -0.493127
H	 0.396251	 -1.044647	 1.143147
H	 0.528637	 0.693580	 1.371677
C	 2.786168	 -0.195604	 0.007473
H	 1.132807	 -0.760304	 -1.243899
H	 1.259610	 0.958506	 -0.981915
H	 3.495561	 -0.130713	 -0.811210
H	 2.912696	 -1.165395	 0.480041
H	 3.049284	 0.565503	 0.735850
H	 -1.805773	 -1.877875	 0.317243
H	 -3.057209	 -0.670842	 -0.034240
H	 -2.337347	 -0.788827	 1.577446

	symmetry c1
}
set optking {
	frozen_dihedral = ("
		4 2 3 5
	")
}

ee = optimize('scf')
oeprop('DIPOLE', 'QUADRUPOLE', 'MULLIKEN_CHARGES')
f=open( 'psi4out.xyz', 'w' )
f.write( "16  " )
f.write( str(ee) + "\n" )
f.write( MOL.save_string_xyz() )
f.close()
--------------------------------------------------------------------------

    Molecular point group: c1
  Charge       = 0
  Multiplicity = 1
  Basis Set: 6-31G*
  Basis Set:
  @DF-RHF Final Energy:  -270.03027081104057
    Total Energy =                       -270.0302708110403387
    Molecular point group: c1
  Basis Set: 6-31G*
  Basis Set:
  Basis Set: 6-31G*
  Basis Set:
  @DF-RHF Final Energy:  -270.02884750016631
    Total Energy =                       -270.0288475001663073
  Basis Set: 6-31G*
  Basis Set:
  Basis Set: 6-31G*
  Basis Set:
  @DF-RHF Final Energy:  -270.03055639319462
    Total Energy =                       -270.0305563931948427
  Basis Set: 6-31G*
  Basis Set:
  Basis Set: 6-31G*
  Basis Set:
  @DF-RHF Final Energy:  -270.03047654043326
    Total Energy =                       -270.0304765404334262
  Basis Set: 6-31G*
  Basis Set:
  Basis Set: 6-31G*
  Basis Set:
  @DF-RHF Final Energy:  -270.02952379402456
    Total Energy =                       -270.0295237940246125
  Basis Set: 6-31G*
  Basis Set:
  Basis Set: 6-31G*
  Basis Set:
  @DF-RHF Final Energy:  -270.03066713026544
    Total Energy =                       -270.0306671302654422
  Basis Set: 6-31G*
  Basis Set:
  Basis Set: 6-31G*
  Basis Set:
  @DF-RHF Final Energy:  -270.03067258359022
    Total Energy =                       -270.0306725835902171
  Basis Set: 6-31G*
  Basis Set:
  Charge       = 0
  Multiplicity = 1
  Basis Set: 6-31G*
  Basis Set:

    Orbital Energies (a.u.)
    -----------------------

    Doubly Occupied:

       1A    -20.548710     2A    -11.326227     3A    -11.230947
       4A    -11.229086     5A    -11.225821     6A    -11.215928
       7A     -1.394741     8A     -1.078320     9A     -1.014911
      10A     -0.947929    11A     -0.825729    12A     -0.733632
      13A     -0.657686    14A     -0.648232    15A     -0.616795
      16A     -0.602383    17A     -0.571726    18A     -0.559957
      19A     -0.544431    20A     -0.508781    21A     -0.496734
      22A     -0.481378    23A     -0.472103    24A     -0.399054

  @DF-RHF Final Energy:  -270.03067291846946

   => Energetics <=

    Nuclear Repulsion Energy =            236.7763757512856557
    One-Electron Energy =                -834.9516136011577601
    Two-Electron Energy =                 328.1445649314026127
    DFT Exchange-Correlation Energy =       0.0000000000000000
    Empirical Dispersion Energy =           0.0000000000000000
    PCM Polarization Energy =               0.0000000000000000
    EFP Energy =                            0.0000000000000000
    Total Energy =                       -270.0306729184695200
    Molecular point group: c1
  Basis Set: 6-31G*
  Basis Set:

  -Total Gradient:
     Atom            X                  Y                   Z
    ------   -----------------  -----------------  -----------------
       1        0.000005885822     0.000005727026     0.000011073649
       2       -0.000247980748     0.000327469701     0.000806329860
       3        0.000169160243     0.000770932176    -0.000154279836
       4        0.000153657438    -0.000421038887    -0.000605076429
       5       -0.000083985788    -0.000703687089    -0.000083925319
       6        0.000007349678     0.000011452227    -0.000003424427
       7       -0.000009149427     0.000001604811     0.000013932446
       8        0.000007690455     0.000004488825    -0.000002357592
       9        0.000002619843    -0.000001853612    -0.000014784506
      10       -0.000000031092    -0.000006416603     0.000011483771
      11        0.000001649390     0.000004114226     0.000000109284
      12       -0.000000245751    -0.000002157425    -0.000003258573
      13       -0.000004734772    -0.000001487394     0.000001917829
      14        0.000000984747    -0.000000061570     0.000010104826
      15       -0.000001440175     0.000003818250     0.000006177431
      16       -0.000001429860     0.000007095337     0.000005977585

  **** Optimization is complete! (in 8 steps) ****
    Final optimized geometry and variables:
    Molecular point group: c1

    Geometry (in Angstrom), charge = 0, multiplicity = 1:

    O           -1.334496992082     1.054905268740    -0.635343696643
    C           -1.080320785427     0.130880485002     0.075684417095
    C            0.332783453829    -0.089924654749     0.594793021942
    C           -2.139222159982    -0.864246358176     0.492135616378
    C            1.380256223273    -0.035603855274    -0.522370084638
    H            0.396420012460    -1.034129195204     1.127932272766
    H            0.530730439552     0.696148074230     1.320622126275
    C            2.804914542355    -0.187348698798     0.007161005579
    H            1.175951336798    -0.822070107238    -1.245045213072
    H            1.275597897326     0.904559679453    -1.050406229710
    H            3.525960330728    -0.147932944282    -0.802958963856
    H            2.937907953233    -1.134672700096     0.522166753601
    H            3.049647341860     0.606771709936     0.706747933372
    H           -1.878512564805    -1.853862274404     0.126317497999
    H           -3.100698729262    -0.571423782255     0.094056507213
    H           -2.193528934014    -0.928063462117     1.575404603091

  Mulliken Charges: (a.u.)
   Center  Symbol    Alpha    Beta     Spin     Total
       1     O     4.26320  4.26320  0.00000 -0.52639
       2     C     2.73520  2.73520  0.00000  0.52960
       3     C     3.20400  3.20400  0.00000 -0.40801
       4     C     3.28892  3.28892  0.00000 -0.57785
       5     C     3.15569  3.15569  0.00000 -0.31137
       6     H     0.41619  0.41619  0.00000  0.16763
       7     H     0.40301  0.40301  0.00000  0.19398
       8     C     3.24095  3.24095  0.00000 -0.48191
       9     H     0.41986  0.41986  0.00000  0.16027
      10     H     0.40197  0.40197  0.00000  0.19607
      11     H     0.41563  0.41563  0.00000  0.16875
      12     H     0.42208  0.42208  0.00000  0.15583
      13     H     0.41974  0.41974  0.00000  0.16052
      14     H     0.40788  0.40788  0.00000  0.18424
      15     H     0.39714  0.39714  0.00000  0.20572
      16     H     0.40854  0.40854  0.00000  0.18291

   Total alpha = 24.00000, Total beta = 24.00000, Total charge = -0.00000
