  ==> Input File <==

--------------------------------------------------------------------------
set {
	reference rhf
	basis 6-31G*
}

set_num_threads( 4 )
memory 2 gb

molecule MOL {
0 1

H	 -0.000158	 1.970498	 0.756846
O	 -0.000074	 1.880206	 -0.189275
C	 -0.000015	 0.544847	 -0.545111
C	 -1.278788	 -0.123820	 -0.051541
C	 1.278802	 -0.123718	 -0.051505
H	 -0.000001	 0.490777	 -1.623619
F	 -1.660299	 0.431590	 1.078731
F	 -2.266024	 -0.010792	 -0.914645
F	 -1.077515	 -1.411433	 0.178977
F	 2.323327	 0.466644	 -0.591854
F	 1.326242	 -1.401483	 -0.363667
F	 1.388946	 -0.015632	 1.262939

	symmetry c1
}
set optking {
	frozen_dihedral = ("
		7 4 3 6
	")
}

ee = optimize('scf')
oeprop('DIPOLE', 'QUADRUPOLE', 'MULLIKEN_CHARGES')
f=open( 'psi4out.xyz', 'w' )
f.write( "12  " )
f.write( str(ee) + "\n" )
f.write( MOL.save_string_xyz() )
f.close()
--------------------------------------------------------------------------

    Molecular point group: c1
  Charge       = 0
  Multiplicity = 1
  Basis Set: 6-31G*
  Basis Set:
  @DF-RHF Final Energy:  -786.27389468055344
    Total Energy =                       -786.2738946805529849
    Molecular point group: c1
  Basis Set: 6-31G*
  Basis Set:
  Basis Set: 6-31G*
  Basis Set:
  @DF-RHF Final Energy:  -786.27530833735659
    Total Energy =                       -786.2753083373569325
  Basis Set: 6-31G*
  Basis Set:
  Basis Set: 6-31G*
  Basis Set:
  @DF-RHF Final Energy:  -786.27583297310548
    Total Energy =                       -786.2758329731057074
  Basis Set: 6-31G*
  Basis Set:
  Basis Set: 6-31G*
  Basis Set:
  @DF-RHF Final Energy:  -786.27590997670200
    Total Energy =                       -786.2759099767027919
  Basis Set: 6-31G*
  Basis Set:
  Basis Set: 6-31G*
  Basis Set:
  @DF-RHF Final Energy:  -786.27592521086513
    Total Energy =                       -786.2759252108646706
  Basis Set: 6-31G*
  Basis Set:
  Charge       = 0
  Multiplicity = 1
  Basis Set: 6-31G*
  Basis Set:

    Orbital Energies (a.u.)
    -----------------------

    Doubly Occupied:

       1A    -26.365025     2A    -26.364672     3A    -26.362057
       4A    -26.359852     5A    -26.358604     6A    -26.357077
       7A    -20.615329     8A    -11.528561     9A    -11.524211
      10A    -11.349164    11A     -1.765516    12A     -1.758541
      13A     -1.663132    14A     -1.658033    15A     -1.657249
      16A     -1.654604    17A     -1.433865    18A     -1.100413
      19A     -0.997051    20A     -0.937737    21A     -0.865678
      22A     -0.861699    23A     -0.852034    24A     -0.845482
      25A     -0.832953    26A     -0.816278    27A     -0.739383
      28A     -0.728490    29A     -0.725289    30A     -0.721522
      31A     -0.687916    32A     -0.686542    33A     -0.682294
      34A     -0.675754    35A     -0.670132    36A     -0.661414
      37A     -0.658316    38A     -0.650193    39A     -0.619477
      40A     -0.551945    41A     -0.505001

  @DF-RHF Final Energy:  -786.27592689334506

   => Energetics <=

    Nuclear Repulsion Energy =            669.9815367287339996
    One-Electron Energy =               -2426.8179621497661174
    Two-Electron Energy =                 970.5604985276866046
    DFT Exchange-Correlation Energy =       0.0000000000000000
    Empirical Dispersion Energy =           0.0000000000000000
    PCM Polarization Energy =               0.0000000000000000
    EFP Energy =                            0.0000000000000000
    Total Energy =                       -786.2759268933455132
    Molecular point group: c1
  Basis Set: 6-31G*
  Basis Set:

  -Total Gradient:
     Atom            X                  Y                   Z
    ------   -----------------  -----------------  -----------------
       1       -0.000005054568    -0.000010496277    -0.000012194636
       2        0.000042539439     0.000001785163    -0.000013109962
       3        0.001898527782    -0.004083057333    -0.000289665789
       4        0.002411510758    -0.002758343349     0.002627651691
       5       -0.000096910759     0.000107414500    -0.000215659753
       6       -0.002154740175     0.004107188836    -0.000263683071
       7       -0.002171970302     0.002647752228    -0.001928691462
       8       -0.000062029702     0.000072420960    -0.000086284049
       9        0.000015975396     0.000062779461    -0.000034327599
      10       -0.000051322449    -0.000124812947     0.000063447619
      11        0.000088109358     0.000049676703     0.000096325452
      12        0.000085365217    -0.000072307947     0.000056191560

  **** Optimization is complete! (in 6 steps) ****
    Final optimized geometry and variables:
    Molecular point group: c1

    Geometry (in Angstrom), charge = 0, multiplicity = 1:

    H           -0.076940988778     2.016100405549     0.660320573277
    O            0.005930390604     1.877219936441    -0.275494201471
    C            0.002889056399     0.526043204111    -0.568631878219
    C           -1.275755188987    -0.124450748532    -0.023246171801
    C            1.282977928810    -0.129224376387    -0.065863043883
    H           -0.025017616426     0.452224999431    -1.644940350518
    F           -1.639145812940     0.446750378900     1.113149335162
    F           -2.262318438268     0.049693253189    -0.880909031848
    F           -1.148248630588    -1.415991329624     0.189361715934
    F            2.330028571050     0.540042912287    -0.494872596574
    F            1.397171112437    -1.371918830026    -0.485487049571
    F            1.316542106416    -0.131999389511     1.258380835197

  Mulliken Charges: (a.u.)
   Center  Symbol    Alpha    Beta     Spin     Total
       1     H     0.26535  0.26535  0.00000  0.46930
       2     O     4.36247  4.36247  0.00000 -0.72494
       3     C     3.05903  3.05903  0.00000 -0.11806
       4     C     2.43822  2.43822  0.00000  1.12357
       5     C     2.44255  2.44255  0.00000  1.11490
       6     H     0.37290  0.37290  0.00000  0.25421
       7     F     4.68022  4.68022  0.00000 -0.36045
       8     F     4.67714  4.67714  0.00000 -0.35427
       9     F     4.67188  4.67188  0.00000 -0.34377
      10     F     4.67389  4.67389  0.00000 -0.34779
      11     F     4.67474  4.67474  0.00000 -0.34949
      12     F     4.68161  4.68161  0.00000 -0.36322

   Total alpha = 41.00000, Total beta = 41.00000, Total charge = -0.00000
