                              Psi4 1.0.54 Driver

  ==> Input File <==

--------------------------------------------------------------------------
set {
	reference rhf
	basis cc-pvtz
}

set_num_threads( 4 )
memory 2 gb

molecule MOL {
0 1

H	 2.705061	 -0.855994	 0.469216
N	 2.326826	 -0.066186	 0.000000
C	 0.934676	 -0.005420	 0.000000
H	 2.776134	 0.772288	 0.286541
C	 0.226436	 -0.001077	 -1.195129
C	 0.226436	 -0.001077	 1.195129
H	 0.759091	 -0.011439	 -2.128123
C	 -1.153391	 0.009141	 -1.189028
H	 0.759091	 -0.011439	 2.128123
C	 -1.153391	 0.009141	 1.189028
H	 -1.680905	 0.012964	 -2.124348
C	 -1.857876	 0.014675	 0.000000
H	 -1.680905	 0.012964	 2.124348
H	 -2.930222	 0.022904	 0.000000

	symmetry c1
}
set optking {
	frozen_dihedral = ("
		1 2 3 5
	")
}

ee,wfn = optimize('scf', return_wfn=True)
oeprop( wfn, 'DIPOLE', 'QUADRUPOLE', 'MULLIKEN_CHARGES')
f=open( 'psi4out.xyz', 'w' )
f.write( "14  " )
f.write( str(ee) + "\n" )
f.write( MOL.save_string_xyz() )
f.close()
--------------------------------------------------------------------------

    Molecular point group: c1
  Charge       = 0
  Multiplicity = 1
  Basis Set: CC-PVTZ
  Basis Set:
  @DF-RHF Final Energy:  -285.82517602144969
    Total Energy =                       -285.8251760214498063
    Molecular point group: c1
  Basis Set: CC-PVTZ
  Basis Set:
  Basis Set: CC-PVTZ
  Basis Set:
  @DF-RHF Final Energy:  -285.82669113830218
    Total Energy =                       -285.8266911383021807
  Basis Set: CC-PVTZ
  Basis Set:
  Basis Set: CC-PVTZ
  Basis Set:
  @DF-RHF Final Energy:  -285.82706276952825
    Total Energy =                       -285.8270627695285384
  Basis Set: CC-PVTZ
  Basis Set:
  Basis Set: CC-PVTZ
  Basis Set:
  @DF-RHF Final Energy:  -285.82710804874279
    Total Energy =                       -285.8271080487427867
  Basis Set: CC-PVTZ
  Basis Set:
  Basis Set: CC-PVTZ
  Basis Set:
  @DF-RHF Final Energy:  -285.82710995919365
    Total Energy =                       -285.8271099591936490
  Basis Set: CC-PVTZ
  Basis Set:
  Charge       = 0
  Multiplicity = 1
  Basis Set: CC-PVTZ
  Basis Set:

    Orbital Energies (a.u.)
    -----------------------

    Doubly Occupied:

       1A    -15.541898     2A    -11.259257     3A    -11.228599
       4A    -11.226944     5A    -11.224340     6A    -11.224139
       7A    -11.219707     8A     -1.209192     9A     -1.131784
      10A     -1.016046    11A     -0.990378    12A     -0.830641
      13A     -0.810813    14A     -0.705921    15A     -0.663121
      16A     -0.648899    17A     -0.631789    18A     -0.593953
      19A     -0.585894    20A     -0.508930    21A     -0.499177
      22A     -0.497395    23A     -0.411114    24A     -0.336385
      25A     -0.329969

  @DF-RHF Final Energy:  -285.82711014059430

   => Energetics <=

    Nuclear Repulsion Energy =            272.9241186282415583
    One-Electron Energy =                -926.8498878529229614
    Two-Electron Energy =                 368.0986590840871031
    DFT Exchange-Correlation Energy =       0.0000000000000000
    Empirical Dispersion Energy =           0.0000000000000000
    PCM Polarization Energy =               0.0000000000000000
    EFP Energy =                            0.0000000000000000
    Total Energy =                       -285.8271101405943000
    Molecular point group: c1
  Basis Set: CC-PVTZ
  Basis Set:

  -Total Gradient:
     Atom            X                  Y                   Z
    ------   -----------------  -----------------  -----------------
       1       -0.000000039816    -0.000005378459    -0.000000405682
       2        0.000004614780     0.000037426486     0.000027714710
       3       -0.000013796955     0.000010277278    -0.000028065294
       4       -0.000015362968    -0.000030594458    -0.000021250064
       5        0.000011194588    -0.000030141429     0.000000842613
       6        0.000005735753     0.000007993337     0.000022047300
       7       -0.000003266456     0.000000119224     0.000001621459
       8        0.000013902162     0.000040663573     0.000012421625
       9       -0.000003851133    -0.000005642498    -0.000007710429
      10        0.000015137978    -0.000002765943    -0.000000352023
      11       -0.000001465691    -0.000004290123    -0.000005329453
      12       -0.000012140997    -0.000020436227    -0.000007434743
      13       -0.000006456461     0.000004348763     0.000003982184
      14        0.000005795219    -0.000001579524     0.000001917797

  **** Optimization is complete! (in 6 steps) ****
    Final optimized geometry and variables:
    Molecular point group: c1

    Geometry (in Angstrom), charge = 0, multiplicity = 1:

    H            2.722205431087    -0.842026947646     0.403412392253
    N            2.355454155092    -0.034074990724    -0.053587462924
    C            0.925350568653    -0.013260955538    -0.003610212437
    H            2.745311477621     0.768328321008     0.393856838649
    C            0.222176237217    -0.010489619862    -1.194287272007
    C            0.222136033910     0.004092254369     1.191672688032
    H            0.770885628518    -0.023965375957    -2.115424794440
    C           -1.160980527251     0.009498134301    -1.193226948026
    H            0.760493469612     0.001972894055     2.121491279524
    C           -1.158988416544     0.023825786620     1.194234673738
    H           -1.693377106552     0.011441588269    -2.125366671568
    C           -1.855991996759     0.026540045476     0.000030396083
    H           -1.689901333710     0.037102071196     2.127183815755
    H           -2.929011917148     0.041875574101     0.001166965788

  Mulliken Charges: (a.u.)
   Center  Symbol    Alpha    Beta     Spin     Total
       1     H     0.42272  0.42272  0.00000  0.15456
       2     N     3.70090  3.70090  0.00000 -0.40180
       3     C     2.90899  2.90899  0.00000  0.18202
       4     H     0.42272  0.42272  0.00000  0.15456
       5     C     3.09418  3.09418  0.00000 -0.18837
       6     C     3.11441  3.11441  0.00000 -0.22882
       7     H     0.41653  0.41653  0.00000  0.16695
       8     C     3.06629  3.06629  0.00000 -0.13258
       9     H     0.42564  0.42564  0.00000  0.14873
      10     C     3.07326  3.07326  0.00000 -0.14652
      11     H     0.42305  0.42305  0.00000  0.15390
      12     C     3.08410  3.08410  0.00000 -0.16820
      13     H     0.42359  0.42359  0.00000  0.15283
      14     H     0.42363  0.42363  0.00000  0.15274

   Total alpha = 25.00000, Total beta = 25.00000, Total charge =  0.00000

*** Psi4 exiting successfully. Buy a developer a beer!
