                              Psi4 1.0.54 Driver

  ==> Input File <==

--------------------------------------------------------------------------
set {
	reference rhf
	basis cc-pvtz
}

set_num_threads( 4 )
memory 2 gb

molecule MOL {
0 1

H	 3.887448	 0.331381	 0.118438
N	 3.091268	 -0.241216	 -0.065538
C	 1.860978	 0.530248	 0.016256
H	 3.095735	 -0.977413	 0.609253
C	 0.644130	 -0.381765	 -0.031064
H	 1.835721	 1.204666	 -0.833114
H	 1.808789	 1.151975	 0.911067
C	 -0.678115	 0.376691	 0.025731
H	 0.693998	 -0.977147	 -0.936845
H	 0.693309	 -1.082142	 0.800523
C	 -1.900706	 -0.535531	 -0.022488
H	 -0.725296	 1.079516	 -0.802982
H	 -0.715474	 0.974884	 0.933278
C	 -3.220513	 0.226854	 0.028039
H	 -1.865036	 -1.134397	 -0.928236
H	 -1.857948	 -1.236381	 0.806820
H	 -3.309098	 0.911849	 -0.808725
H	 -4.066838	 -0.449485	 -0.008086
H	 -3.301685	 0.809374	 0.939860

	symmetry c1
}
set optking {
	frozen_dihedral = ("
		1 2 3 6
	")
}

ee,wfn = optimize('scf', return_wfn=True)
oeprop( wfn, 'DIPOLE', 'QUADRUPOLE', 'MULLIKEN_CHARGES')
f=open( 'psi4out.xyz', 'w' )
f.write( "19  " )
f.write( str(ee) + "\n" )
f.write( MOL.save_string_xyz() )
f.close()
--------------------------------------------------------------------------

    Molecular point group: c1
  Charge       = 0
  Multiplicity = 1
  Basis Set: CC-PVTZ
  Basis Set:
  @DF-RHF Final Energy:  -251.44775025501244
    Total Energy =                       -251.4477502550123518
    Molecular point group: c1
  Basis Set: CC-PVTZ
  Basis Set:
  Basis Set: CC-PVTZ
  Basis Set:
  @DF-RHF Final Energy:  -251.44779525552059
    Total Energy =                       -251.4477952555208731
  Basis Set: CC-PVTZ
  Basis Set:
  Basis Set: CC-PVTZ
  Basis Set:
  @DF-RHF Final Energy:  -251.44779981911537
    Total Energy =                       -251.4477998191151755
  Basis Set: CC-PVTZ
  Basis Set:
  Charge       = 0
  Multiplicity = 1
  Basis Set: CC-PVTZ
  Basis Set:

    Orbital Energies (a.u.)
    -----------------------

    Doubly Occupied:

       1A    -15.526517     2A    -11.237754     3A    -11.212595
       4A    -11.211372     5A    -11.209525     6A    -11.205955
       7A     -1.178457     8A     -1.075056     9A     -1.000172
      10A     -0.901274    11A     -0.814334    12A     -0.790864
      13A     -0.661113    14A     -0.646774    15A     -0.617719
      16A     -0.592359    17A     -0.565109    18A     -0.546866
      19A     -0.534832    20A     -0.497264    21A     -0.483304
      22A     -0.465992    23A     -0.462530    24A     -0.449913
      25A     -0.385273

  @DF-RHF Final Energy:  -251.44780030561830

   => Energetics <=

    Nuclear Repulsion Energy =            246.1587666215087040
    One-Electron Energy =                -826.6672904969409501
    Two-Electron Energy =                 329.0607235698139448
    DFT Exchange-Correlation Energy =       0.0000000000000000
    Empirical Dispersion Energy =           0.0000000000000000
    PCM Polarization Energy =               0.0000000000000000
    EFP Energy =                            0.0000000000000000
    Total Energy =                       -251.4478003056183297
    Molecular point group: c1
  Basis Set: CC-PVTZ
  Basis Set:

  -Total Gradient:
     Atom            X                  Y                   Z
    ------   -----------------  -----------------  -----------------
       1       -0.000083417214    -0.000380646023     0.001682742532
       2       -0.000108444068     0.000276421191    -0.002309104224
       3        0.000968839918     0.001223669661     0.001435235115
       4       -0.000006038335    -0.000003727460     0.000012761643
       5       -0.000000243641    -0.000008274649     0.000013067894
       6       -0.000737979611    -0.001084707243    -0.000825380269
       7       -0.000000893588    -0.000008328308    -0.000015125233
       8       -0.000010313003    -0.000001462886     0.000012776696
       9       -0.000001293377    -0.000002017526    -0.000001362933
      10       -0.000011315637    -0.000017113301     0.000005847614
      11        0.000000935192     0.000005935230    -0.000018378697
      12       -0.000003948655    -0.000005342294     0.000003156468
      13       -0.000004419919     0.000006007628     0.000004049686
      14       -0.000001482302     0.000000443676     0.000004837920
      15        0.000000275324    -0.000006391476    -0.000004081990
      16        0.000000744884     0.000006161883    -0.000001818811
      17        0.000000408762    -0.000003190750    -0.000000192753
      18       -0.000001229306     0.000000111498     0.000002233662
      19       -0.000000185424     0.000002451147    -0.000001264319

  **** Optimization is complete! (in 4 steps) ****
    Final optimized geometry and variables:
    Molecular point group: c1

    Geometry (in Angstrom), charge = 0, multiplicity = 1:

    H            3.890157434973     0.330941292844     0.092039634689
    N            3.090791416781    -0.241052776363    -0.082602487108
    C            1.862604147644     0.532451611853     0.026097113230
    H            3.106869994275    -0.966627905168     0.604285368432
    C            0.645406890910    -0.379692464367    -0.023493680837
    H            1.820775049642     1.214317782514    -0.816828320321
    H            1.820200420142     1.137793457332     0.931818191655
    C           -0.676897485150     0.379178599754     0.025794965617
    H            0.697168894215    -0.976246092855    -0.928781889261
    H            0.689771683160    -1.078330317646     0.810021899876
    C           -1.899228235973    -0.533334614553    -0.022315538396
    H           -0.721171435348     1.078192559612    -0.806022386462
    H           -0.716716202457     0.980930887743     0.930826432722
    C           -3.218967003929     0.229429153507     0.022798332046
    H           -1.861569957489    -1.135002976313    -0.926129905291
    H           -1.858530496104    -1.231399190212     0.809437197305
    H           -3.305807928265     0.911099305547    -0.816815953409
    H           -4.065279146957    -0.446995665408    -0.012242512631
    H           -3.301688350443     0.815457203873     0.932216730340

  Mulliken Charges: (a.u.)
   Center  Symbol    Alpha    Beta     Spin     Total
       1     H     0.43173  0.43173  0.00000  0.13654
       2     N     3.68715  3.68715  0.00000 -0.37429
       3     C     3.02317  3.02317  0.00000 -0.04633
       4     H     0.43197  0.43197  0.00000  0.13607
       5     C     3.08481  3.08481  0.00000 -0.16962
       6     H     0.45820  0.45820  0.00000  0.08359
       7     H     0.46900  0.46900  0.00000  0.06201
       8     C     3.09282  3.09282  0.00000 -0.18564
       9     H     0.44839  0.44839  0.00000  0.10323
      10     H     0.46085  0.46085  0.00000  0.07829
      11     C     3.08324  3.08324  0.00000 -0.16648
      12     H     0.45434  0.45434  0.00000  0.09132
      13     H     0.45644  0.45644  0.00000  0.08711
      14     C     3.14997  3.14997  0.00000 -0.29995
      15     H     0.45377  0.45377  0.00000  0.09247
      16     H     0.45502  0.45502  0.00000  0.08996
      17     H     0.45506  0.45506  0.00000  0.08988
      18     H     0.44849  0.44849  0.00000  0.10301
      19     H     0.45558  0.45558  0.00000  0.08883

   Total alpha = 25.00000, Total beta = 25.00000, Total charge = -0.00000

*** Psi4 exiting successfully. Buy a developer a beer!
