  ==> Input File <==

--------------------------------------------------------------------------
set {
	reference rhf
	basis 6-31G*
}

set_num_threads( 4 )
memory 2 gb

molecule MOL {
0 1

H	 3.505974	 -1.194106	 -0.777071
O	 2.690500	 -1.319747	 -0.301706
C	 1.941264	 -0.230543	 -0.471107
C	 0.624473	 -0.343591	 0.253101
O	 2.307760	 0.692881	 -1.122247
C	 -0.265902	 0.883932	 0.072916
H	 0.145381	 -1.250801	 -0.100189
H	 0.848468	 -0.515534	 1.302870
C	 -1.728698	 0.646073	 0.462102
H	 -0.209144	 1.219470	 -0.958188
H	 0.135059	 1.692851	 0.673903
C	 -2.482460	 -0.343073	 -0.431425
H	 -2.245265	 1.602650	 0.432430
H	 -1.779332	 0.308348	 1.496285
C	 -3.960546	 -0.461025	 -0.060175
H	 -2.395034	 -0.026811	 -1.468912
H	 -2.024850	 -1.327147	 -0.371646
H	 -4.472726	 -1.168004	 -0.705284
H	 -4.465146	 0.496508	 -0.151489
H	 -4.081218	 -0.800940	 0.964585

	symmetry c1
}
set optking {
	frozen_dihedral = ("
		7 4 6 10
	")
}

ee = optimize('scf')
oeprop('DIPOLE', 'QUADRUPOLE', 'MULLIKEN_CHARGES')
f=open( 'psi4out.xyz', 'w' )
f.write( "20  " )
f.write( str(ee) + "\n" )
f.write( MOL.save_string_xyz() )
f.close()
--------------------------------------------------------------------------

    Molecular point group: c1
  Charge       = 0
  Multiplicity = 1
  Basis Set: 6-31G*
  Basis Set:
  @DF-RHF Final Energy:  -383.94751292099278
    Total Energy =                       -383.9475129209927218
    Molecular point group: c1
  Basis Set: 6-31G*
  Basis Set:
  Basis Set: 6-31G*
  Basis Set:
  @DF-RHF Final Energy:  -383.94750433677558
    Total Energy =                       -383.9475043367755802
  Basis Set: 6-31G*
  Basis Set:
  Basis Set: 6-31G*
  Basis Set:
  @DF-RHF Final Energy:  -383.94776173080425
    Total Energy =                       -383.9477617308045865
  Basis Set: 6-31G*
  Basis Set:
  Basis Set: 6-31G*
  Basis Set:
  @DF-RHF Final Energy:  -383.94777942981301
    Total Energy =                       -383.9477794298131244
  Basis Set: 6-31G*
  Basis Set:
  Basis Set: 6-31G*
  Basis Set:
  @DF-RHF Final Energy:  -383.94764180768402
    Total Energy =                       -383.9476418076837376
  Basis Set: 6-31G*
  Basis Set:
  Basis Set: 6-31G*
  Basis Set:
  @DF-RHF Final Energy:  -383.94778951698169
    Total Energy =                       -383.9477895169818567
  Basis Set: 6-31G*
  Basis Set:
  Charge       = 0
  Multiplicity = 1
  Basis Set: 6-31G*
  Basis Set:

    Orbital Energies (a.u.)
    -----------------------

    Doubly Occupied:

       1A    -20.612648     2A    -20.551813     3A    -11.381529
       4A    -11.240029     5A    -11.222684     6A    -11.220761
       7A    -11.219936     8A    -11.212197     9A     -1.474772
      10A     -1.365800    11A     -1.095617    12A     -1.040900
      13A     -0.961194    14A     -0.869175    15A     -0.815002
      16A     -0.778467    17A     -0.699731    18A     -0.691038
      19A     -0.662233    20A     -0.635182    21A     -0.603944
      22A     -0.593967    23A     -0.575425    24A     -0.557269
      25A     -0.536330    26A     -0.512482    27A     -0.495618
      28A     -0.479258    29A     -0.471804    30A     -0.467432
      31A     -0.456135    32A     -0.444049

  @DF-RHF Final Energy:  -383.94778993436699

   => Energetics <=

    Nuclear Repulsion Energy =            376.2279806492197736
    One-Electron Energy =               -1268.4627028875988799
    Two-Electron Energy =                 508.2869323040122822
    DFT Exchange-Correlation Energy =       0.0000000000000000
    Empirical Dispersion Energy =           0.0000000000000000
    PCM Polarization Energy =               0.0000000000000000
    EFP Energy =                            0.0000000000000000
    Total Energy =                       -383.9477899343668810
    Molecular point group: c1
  Basis Set: 6-31G*
  Basis Set:

  -Total Gradient:
     Atom            X                  Y                   Z
    ------   -----------------  -----------------  -----------------
       1       -0.000014682877     0.000011419373     0.000002599281
       2        0.000011459379    -0.000004969895     0.000044640690
       3       -0.000027403709    -0.000057531764    -0.000118151619
       4        0.001821382573     0.000803747564    -0.002956477011
       5        0.000013265720     0.000035887003     0.000034091047
       6       -0.002766793748    -0.002096915982    -0.000029861824
       7       -0.001020581411    -0.000319576194     0.002454537113
       8       -0.000007713892    -0.000001082327     0.000002774328
       9       -0.000005119334     0.000026846632    -0.000014001916
      10        0.002006387389     0.001613989386     0.000568324568
      11       -0.000014291091     0.000003295413     0.000003539099
      12        0.000018454633    -0.000045000025     0.000014352645
      13        0.000016389589     0.000025487386     0.000004014028
      14       -0.000015192468    -0.000006142855    -0.000013019256
      15       -0.000003908299     0.000017653512    -0.000006424877
      16       -0.000019015471    -0.000000034900     0.000002026874
      17        0.000000426772    -0.000003432101     0.000003156364
      18        0.000001837859     0.000009323374    -0.000005426491
      19        0.000002724626     0.000000854610     0.000013983420
      20        0.000002373761    -0.000013818209    -0.000004676460

  **** Optimization is complete! (in 7 steps) ****
    Final optimized geometry and variables:
    Molecular point group: c1

    Geometry (in Angstrom), charge = 0, multiplicity = 1:

    H            3.623192788950    -1.093611668122    -0.460651010698
    O            2.796418641409    -1.217842986147    -0.004875083465
    C            2.029280432217    -0.154474745604    -0.243420326260
    C            0.695281086372    -0.266687560854     0.446635496730
    O            2.396410455116     0.749695181852    -0.920760642601
    C           -0.215284349461     0.940738570348     0.221742486882
    H            0.234914414935    -1.196238573546     0.128414488559
    H            0.896608438993    -0.402858838127     1.506234495950
    C           -1.667777674934     0.709638716618     0.651260032640
    H           -0.167153476887     1.242896664401    -0.818817626941
    H            0.190229459628     1.778261211350     0.781556958605
    C           -2.465419107140    -0.226786038702    -0.261059865685
    H           -2.171048952831     1.673160932284     0.678886143318
    H           -1.691324749286     0.328933230368     1.671458087858
    C           -3.920054969728    -0.380276752677     0.182829250127
    H           -2.436775902949     0.158318122016    -1.277965807072
    H           -2.001710909436    -1.209249761767    -0.293795853262
    H           -4.466590385456    -1.040281400177    -0.483478342833
    H           -4.430535499092     0.578499431343     0.191165397094
    H           -3.982615748988    -0.795843500510     1.184642635576

  Mulliken Charges: (a.u.)
   Center  Symbol    Alpha    Beta     Spin     Total
       1     H     0.26780  0.26780  0.00000  0.46440
       2     O     4.35125  4.35125  0.00000 -0.70250
       3     C     2.62269  2.62269  0.00000  0.75461
       4     C     3.21357  3.21357  0.00000 -0.42714
       5     O     4.27918  4.27918  0.00000 -0.55836
       6     C     3.15608  3.15608  0.00000 -0.31215
       7     H     0.39702  0.39702  0.00000  0.20596
       8     H     0.39824  0.39824  0.00000  0.20351
       9     C     3.15610  3.15610  0.00000 -0.31220
      10     H     0.40592  0.40592  0.00000  0.18817
      11     H     0.41282  0.41282  0.00000  0.17435
      12     C     3.15380  3.15380  0.00000 -0.30759
      13     H     0.41779  0.41779  0.00000  0.16443
      14     H     0.42399  0.42399  0.00000  0.15202
      15     C     3.23936  3.23936  0.00000 -0.47872
      16     H     0.42033  0.42033  0.00000  0.15934
      17     H     0.42365  0.42365  0.00000  0.15270
      18     H     0.41823  0.41823  0.00000  0.16354
      19     H     0.42070  0.42070  0.00000  0.15860
      20     H     0.42148  0.42148  0.00000  0.15704

   Total alpha = 32.00000, Total beta = 32.00000, Total charge = -0.00000
