                              Psi4 1.0.54 Driver

  ==> Input File <==

--------------------------------------------------------------------------
set {
	reference rhf
	basis cc-pvtz
}

set_num_threads( 4 )
memory 2 gb

molecule MOL {
0 1

O	 -0.694481	 1.313155	 -0.204815
C	 -0.862519	 0.151932	 -0.046791
C	 -2.171428	 -0.477048	 0.339095
O	 0.085519	 -0.757083	 -0.192238
H	 -2.467997	 -1.191667	 -0.417688
H	 -2.923379	 0.287970	 0.444097
H	 -2.053854	 -1.015120	 1.270901
C	 1.392036	 -0.330828	 -0.560749
C	 2.104186	 0.349999	 0.589562
H	 1.324653	 0.321661	 -1.417214
H	 1.904429	 -1.236690	 -0.848184
H	 3.116613	 0.599966	 0.292983
H	 1.597712	 1.262811	 0.871771
H	 2.153693	 -0.305477	 1.450663

	symmetry c1
}
set optking {
	frozen_dihedral = ("
		10 8 4 2
	")
}

ee,wfn = optimize('scf', return_wfn=True)
oeprop( wfn, 'DIPOLE', 'QUADRUPOLE', 'MULLIKEN_CHARGES')
f=open( 'psi4out.xyz', 'w' )
f.write( "14  " )
f.write( str(ee) + "\n" )
f.write( MOL.save_string_xyz() )
f.close()
--------------------------------------------------------------------------

    Molecular point group: c1
  Charge       = 0
  Multiplicity = 1
  Basis Set: CC-PVTZ
  Basis Set:
  @DF-RHF Final Energy:  -305.99049102315541
    Total Energy =                       -305.9904910231554709
    Molecular point group: c1
  Basis Set: CC-PVTZ
  Basis Set:
  Basis Set: CC-PVTZ
  Basis Set:
  @DF-RHF Final Energy:  -305.99067904573474
    Total Energy =                       -305.9906790457346233
  Basis Set: CC-PVTZ
  Basis Set:
  Basis Set: CC-PVTZ
  Basis Set:
  @DF-RHF Final Energy:  -305.98998347798795
    Total Energy =                       -305.9899834779879484
  Basis Set: CC-PVTZ
  Basis Set:
  Basis Set: CC-PVTZ
  Basis Set:
  @DF-RHF Final Energy:  -305.99075146589604
    Total Energy =                       -305.9907514658961531
  Basis Set: CC-PVTZ
  Basis Set:
  Basis Set: CC-PVTZ
  Basis Set:
  @DF-RHF Final Energy:  -305.99075580509452
    Total Energy =                       -305.9907558050943521
  Basis Set: CC-PVTZ
  Basis Set:
  Charge       = 0
  Multiplicity = 1
  Basis Set: CC-PVTZ
  Basis Set:

    Orbital Energies (a.u.)
    -----------------------

    Doubly Occupied:

       1A    -20.594438     2A    -20.533009     3A    -11.367786
       4A    -11.284131     5A    -11.231531     6A    -11.215951
       7A     -1.470573     8A     -1.365689     9A     -1.055696
      10A     -0.999284    11A     -0.885692    12A     -0.763873
      13A     -0.701012    14A     -0.685552    15A     -0.661788
      16A     -0.611671    17A     -0.588513    18A     -0.571236
      19A     -0.558434    20A     -0.530735    21A     -0.517868
      22A     -0.494560    23A     -0.455519    24A     -0.441089

  @DF-RHF Final Energy:  -305.99075608115982

   => Energetics <=

    Nuclear Repulsion Energy =            249.7217944554554094
    One-Electron Energy =                -912.2538439520712927
    Two-Electron Energy =                 356.5412934154562095
    DFT Exchange-Correlation Energy =       0.0000000000000000
    Empirical Dispersion Energy =           0.0000000000000000
    PCM Polarization Energy =               0.0000000000000000
    EFP Energy =                            0.0000000000000000
    Total Energy =                       -305.9907560811596454
    Molecular point group: c1
  Basis Set: CC-PVTZ
  Basis Set:

  -Total Gradient:
     Atom            X                  Y                   Z
    ------   -----------------  -----------------  -----------------
       1        0.000023560459    -0.000034129574    -0.000004299640
       2        0.000376403538     0.000192284699     0.001857801744
       3       -0.000000619949    -0.000005398971     0.000058520407
       4       -0.000574570135    -0.000705149654    -0.003005171558
       5        0.000004723498     0.000023452959     0.000001272053
       6       -0.000001148318    -0.000004972144    -0.000004033347
       7       -0.000008620153    -0.000002034353    -0.000040755021
       8       -0.000115041888     0.002269123551     0.002449797254
       9       -0.000007327404    -0.000009994582    -0.000013699432
      10        0.000294831343    -0.001727396144    -0.001301862651
      11        0.000012401828     0.000005062043     0.000007349303
      12        0.000004520483    -0.000003396459    -0.000000857513
      13       -0.000007850745     0.000000811104     0.000001393875
      14       -0.000001262560     0.000001737526    -0.000005455474

  **** Optimization is complete! (in 6 steps) ****
    Final optimized geometry and variables:
    Molecular point group: c1

    Geometry (in Angstrom), charge = 0, multiplicity = 1:

    O           -0.743105727130     1.236992525153    -0.269370104308
    C           -0.855700298842     0.077012243923    -0.060926732332
    C           -2.133931653622    -0.596802018666     0.351120471970
    O            0.133555305137    -0.791295783532    -0.174239530497
    H           -2.392406305310    -1.358599275591    -0.372842616106
    H           -2.922580443357     0.134642685329     0.419603546470
    H           -1.994314343838    -1.085644458027     1.306647812670
    C            1.431413562294    -0.314777954603    -0.511706466662
    C            2.123602236083     0.372173702819     0.647202719488
    H            1.358918764690     0.328626057144    -1.376111416361
    H            1.971146172354    -1.205198044720    -0.797954918195
    H            3.136266743232     0.628589243463     0.356963316018
    H            1.610169400187     1.278771304787     0.931338015162
    H            2.174878955078    -0.289071777854     1.504145271642

  Mulliken Charges: (a.u.)
   Center  Symbol    Alpha    Beta     Spin     Total
       1     O     4.19917  4.19917  0.00000 -0.39834
       2     C     2.80173  2.80173  0.00000  0.39654
       3     C     3.13803  3.13803  0.00000 -0.27606
       4     O     4.15680  4.15680  0.00000 -0.31359
       5     H     0.44531  0.44531  0.00000  0.10938
       6     H     0.43831  0.43831  0.00000  0.12337
       7     H     0.44620  0.44620  0.00000  0.10759
       8     C     2.98484  2.98484  0.00000  0.03033
       9     C     3.15169  3.15169  0.00000 -0.30338
      10     H     0.45085  0.45085  0.00000  0.09831
      11     H     0.44472  0.44472  0.00000  0.11057
      12     H     0.45082  0.45082  0.00000  0.09836
      13     H     0.43874  0.43874  0.00000  0.12251
      14     H     0.45280  0.45280  0.00000  0.09440

   Total alpha = 24.00000, Total beta = 24.00000, Total charge =  0.00000

*** Psi4 exiting successfully. Buy a developer a beer!
