                              Psi4 1.0.54 Driver

  ==> Input File <==

--------------------------------------------------------------------------
set {
	reference rhf
	basis cc-pvtz
}

set_num_threads( 4 )
memory 2 gb

molecule MOL {
0 1

O	 2.797398	 1.463004	 0.327483
C	 2.620694	 0.506572	 1.008749
C	 1.329753	 -0.285950	 0.973924
C	 3.683205	 0.012763	 1.964493
C	 0.288398	 0.247429	 0.000314
H	 1.584794	 -1.316878	 0.738957
H	 0.933554	 -0.310996	 1.986547
C	 -0.993089	 -0.581367	 -0.000217
H	 0.712847	 0.270269	 -0.996900
H	 0.061146	 1.277123	 0.251752
C	 -2.258482	 0.271340	 0.000669
H	 -1.002280	 -1.233920	 -0.870484
H	 -1.002061	 -1.235367	 0.868958
C	 -3.544441	 -0.550271	 -0.000253
H	 -2.250545	 0.925250	 -0.867923
H	 -2.250598	 0.923423	 0.870642
C	 -4.804551	 0.308747	 0.000556
H	 -3.553737	 -1.201524	 -0.870151
H	 -3.553831	 -1.203282	 0.868313
H	 -4.842050	 0.949078	 -0.874436
H	 -5.698404	 -0.304480	 -0.000254
H	 -4.842277	 0.947103	 0.876982
H	 3.958780	 -1.007832	 1.722641
H	 4.553386	 0.648050	 1.904600
H	 3.301446	 0.011322	 2.979530

	symmetry c1
}
set optking {
	frozen_dihedral = ("
		9 5 8 12
	")
}

ee,wfn = optimize('scf', return_wfn=True)
oeprop( wfn, 'DIPOLE', 'QUADRUPOLE', 'MULLIKEN_CHARGES')
f=open( 'psi4out.xyz', 'w' )
f.write( "25  " )
f.write( str(ee) + "\n" )
f.write( MOL.save_string_xyz() )
f.close()
--------------------------------------------------------------------------

    Molecular point group: c1
  Charge       = 0
  Multiplicity = 1
  Basis Set: CC-PVTZ
  Basis Set:
  @DF-RHF Final Energy:  -387.26981721016051
    Total Energy =                       -387.2698172101607952
    Molecular point group: c1
  Basis Set: CC-PVTZ
  Basis Set:
  Basis Set: CC-PVTZ
  Basis Set:
  @DF-RHF Final Energy:  -387.27009489772945
    Total Energy =                       -387.2700948977297912
  Basis Set: CC-PVTZ
  Basis Set:
  Basis Set: CC-PVTZ
  Basis Set:
  @DF-RHF Final Energy:  -387.26998754358061
    Total Energy =                       -387.2699875435810100
  Basis Set: CC-PVTZ
  Basis Set:
  Basis Set: CC-PVTZ
  Basis Set:
  @DF-RHF Final Energy:  -387.27016973539332
    Total Energy =                       -387.2701697353933241
  Basis Set: CC-PVTZ
  Basis Set:
  Charge       = 0
  Multiplicity = 1
  Basis Set: CC-PVTZ
  Basis Set:

    Orbital Energies (a.u.)
    -----------------------

    Doubly Occupied:

       1A    -20.538870     2A    -11.320231     3A    -11.230338
       4A    -11.226516     5A    -11.215116     6A    -11.214535
       7A    -11.213599     8A    -11.212120     9A    -11.206786
      10A     -1.398771    11A     -1.093860    12A     -1.057497
      13A     -1.014821    14A     -0.970106    15A     -0.891172
      16A     -0.815759    17A     -0.791401    18A     -0.731975
      19A     -0.661277    20A     -0.651104    21A     -0.637106
      22A     -0.624765    23A     -0.597983    24A     -0.581954
      25A     -0.567954    26A     -0.564059    27A     -0.540797
      28A     -0.524732    29A     -0.516000    30A     -0.494545
      31A     -0.487000    32A     -0.475993    33A     -0.463963
      34A     -0.461316    35A     -0.449353    36A     -0.401025

  @DF-RHF Final Energy:  -387.27017017129941

   => Energetics <=

    Nuclear Repulsion Energy =            439.5977771901893334
    One-Electron Energy =               -1396.0470969500452156
    Two-Electron Energy =                 569.1791495885563563
    DFT Exchange-Correlation Energy =       0.0000000000000000
    Empirical Dispersion Energy =           0.0000000000000000
    PCM Polarization Energy =               0.0000000000000000
    EFP Energy =                            0.0000000000000000
    Total Energy =                       -387.2701701712994691
    Molecular point group: c1
  Basis Set: CC-PVTZ
  Basis Set:

  -Total Gradient:
     Atom            X                  Y                   Z
    ------   -----------------  -----------------  -----------------
       1       -0.000002931630     0.000035886566    -0.000034623007
       2       -0.000024146435    -0.000003519945     0.000021718318
       3       -0.000049699534    -0.000004625303     0.000000628394
       4        0.000007012038    -0.000018634313     0.000015143885
       5       -0.002732000222     0.004183418304    -0.001479473835
       6        0.000002963629     0.000002419803     0.000004679233
       7        0.000016445229    -0.000016559238     0.000017129961
       8        0.002495528896    -0.003758661542     0.002519805470
       9        0.001898214769    -0.002958298662     0.000749934650
      10       -0.000043191440    -0.000014332439     0.000006439276
      11        0.000051654069    -0.000000958082     0.000091850393
      12       -0.001610542241     0.002517551606    -0.001928472139
      13        0.000031785617     0.000045255890     0.000025031726
      14        0.000001131731    -0.000002128543    -0.000014068925
      15        0.000003456682     0.000014732859     0.000019257244
      16       -0.000012661740     0.000005536732     0.000014287447
      17       -0.000010715781    -0.000011873437    -0.000030692991
      18       -0.000013535152    -0.000019252479     0.000005298513
      19       -0.000003789254     0.000015599705    -0.000000277896
      20       -0.000003303094     0.000005700783     0.000002804493
      21       -0.000014507889     0.000005375041    -0.000008093221
      22        0.000009710488    -0.000012928825    -0.000004673690
      23        0.000009366076    -0.000007734698     0.000005006598
      24       -0.000009915060     0.000001539866    -0.000006114170
      25        0.000003670254    -0.000003509655     0.000007474276

  **** Optimization is complete! (in 5 steps) ****
    Final optimized geometry and variables:
    Molecular point group: c1

    Geometry (in Angstrom), charge = 0, multiplicity = 1:

    O            2.922696890412     1.277030601685    -0.174086777204
    C            2.748969333045     0.327971712509     0.518371300722
    C            1.443571446443    -0.441127300213     0.526536379042
    C            3.829989132795    -0.178567819621     1.446559586218
    C            0.381533208633     0.105270432991    -0.420621431785
    H            1.672378929420    -1.478080822795     0.290268870578
    H            1.076913090579    -0.453609629903     1.550465316562
    C           -0.909775262051    -0.732093419267    -0.408192665541
    H            0.804406582030     0.121502376857    -1.416862029031
    H            0.170911384844     1.133494120963    -0.155546446188
    C           -2.176374701872     0.121573853148    -0.453249932275
    H           -0.921103475921    -1.391393882992    -1.270736824503
    H           -0.943954425030    -1.365595945179     0.473283021308
    C           -3.461517965481    -0.698830443472    -0.505905835583
    H           -2.133622789014     0.777970056188    -1.319222487099
    H           -2.200640730562     0.772258148494     0.417888605817
    C           -4.720748648802     0.160607628567    -0.547654423491
    H           -3.438782903763    -1.345814950062    -1.378675535050
    H           -3.503363339223    -1.356542741446     0.358381162291
    H           -4.724880961165     0.806126901063    -1.419608005567
    H           -5.614094849439    -0.452177623345    -0.586043850354
    H           -4.791703465358     0.793797897503     0.330503491886
    H            4.080644584357    -1.205317254663     1.203618501601
    H            4.709083685775     0.440884551481     1.357379923264
    H            3.477853988252    -0.166961213665     2.472194138019

  Mulliken Charges: (a.u.)
   Center  Symbol    Alpha    Beta     Spin     Total
       1     O     4.17048  4.17048  0.00000 -0.34096
       2     C     2.86375  2.86375  0.00000  0.27250
       3     C     3.11377  3.11377  0.00000 -0.22754
       4     C     3.15116  3.15116  0.00000 -0.30232
       5     C     3.08865  3.08865  0.00000 -0.17731
       6     H     0.44353  0.44353  0.00000  0.11293
       7     H     0.44511  0.44511  0.00000  0.10979
       8     C     3.09360  3.09360  0.00000 -0.18720
       9     H     0.44348  0.44348  0.00000  0.11304
      10     H     0.44536  0.44536  0.00000  0.10929
      11     C     3.08678  3.08678  0.00000 -0.17357
      12     H     0.45154  0.45154  0.00000  0.09692
      13     H     0.45611  0.45611  0.00000  0.08778
      14     C     3.08492  3.08492  0.00000 -0.16984
      15     H     0.45174  0.45174  0.00000  0.09652
      16     H     0.45523  0.45523  0.00000  0.08955
      17     C     3.14998  3.14998  0.00000 -0.29996
      18     H     0.45470  0.45470  0.00000  0.09060
      19     H     0.45523  0.45523  0.00000  0.08953
      20     H     0.45458  0.45458  0.00000  0.09084
      21     H     0.44866  0.44866  0.00000  0.10267
      22     H     0.45524  0.45524  0.00000  0.08951
      23     H     0.45045  0.45045  0.00000  0.09909
      24     H     0.43540  0.43540  0.00000  0.12919
      25     H     0.45052  0.45052  0.00000  0.09895

   Total alpha = 36.00000, Total beta = 36.00000, Total charge =  0.00000

*** Psi4 exiting successfully. Buy a developer a beer!
