  ==> Input File <==

--------------------------------------------------------------------------
set {
	reference rhf
	basis cc-pvtz
}

set_num_threads( 4 )
memory 2 gb

molecule MOL {
0 1

H	 -3.162190	 0.493205	 -0.000107
C	 -2.363908	 -0.234727	 0.000005
O	 -1.158738	 0.454634	 -0.000087
H	 -2.464314	 -0.863616	 -0.882153
H	 -2.464327	 -0.863359	 0.882345
C	 -0.436076	 0.352811	 1.186382
C	 0.849690	 1.144341	 1.057233
H	 -0.213679	 -0.692892	 1.400117
H	 -1.028898	 0.732297	 2.018965
C	 1.700858	 1.082659	 2.320585
H	 1.408501	 0.759863	 0.211164
H	 0.599757	 2.173720	 0.825148
H	 1.982915	 0.062253	 2.557868
H	 2.612055	 1.655713	 2.200790
H	 1.168888	 1.485827	 3.175881

	symmetry c1
}
set optking {
	frozen_dihedral = ("
		6 3 2 4
	")
}

ee = optimize('scf')
oeprop('DIPOLE', 'QUADRUPOLE', 'MULLIKEN_CHARGES')
f=open( 'psi4out.xyz', 'w' )
f.write( "15  " )
f.write( str(ee) + "\n" )
f.write( MOL.save_string_xyz() )
f.close()
--------------------------------------------------------------------------

    Molecular point group: c1
  Charge       = 0
  Multiplicity = 1
  Basis Set: CC-PVTZ
  Basis Set:
  @DF-RHF Final Energy:  -232.22416217276029
    Total Energy =                       -232.2241621727604297
    Molecular point group: c1
  Basis Set: CC-PVTZ
  Basis Set:
  Basis Set: CC-PVTZ
  Basis Set:
  @DF-RHF Final Energy:  -232.22470421779531
    Total Energy =                       -232.2247042177950789
  Basis Set: CC-PVTZ
  Basis Set:
  Basis Set: CC-PVTZ
  Basis Set:
  @DF-RHF Final Energy:  -232.22481342213180
    Total Energy =                       -232.2248134221318310
  Basis Set: CC-PVTZ
  Basis Set:
  Charge       = 0
  Multiplicity = 1
  Basis Set: CC-PVTZ
  Basis Set:

    Orbital Energies (a.u.)
    -----------------------

    Doubly Occupied:

       1A    -20.544107     2A    -11.264867     3A    -11.261300
       4A    -11.212231     5A    -11.210462     6A     -1.377051
       7A     -1.058024     8A     -0.956085     9A     -0.877433
      10A     -0.809193    11A     -0.673461    12A     -0.653866
      13A     -0.631323    14A     -0.608698    15A     -0.563381
      16A     -0.545827    17A     -0.502929    18A     -0.489031
      19A     -0.479246    20A     -0.461967    21A     -0.411523

  @DF-RHF Final Energy:  -232.22481392725379

   => Energetics <=

    Nuclear Repulsion Energy =            189.6820810204323209
    One-Electron Energy =                -690.6297813880808008
    Two-Electron Energy =                 268.7228864403946318
    DFT Exchange-Correlation Energy =       0.0000000000000000
    Empirical Dispersion Energy =           0.0000000000000000
    PCM Polarization Energy =               0.0000000000000000
    EFP Energy =                            0.0000000000000000
    Total Energy =                       -232.2248139272538765
    Molecular point group: c1
  Basis Set: CC-PVTZ
  Basis Set:

  -Total Gradient:
     Atom            X                  Y                   Z
    ------   -----------------  -----------------  -----------------
       1       -0.000006538372     0.000001934312    -0.000006856032
       2       -0.000506500796     0.000993646426    -0.001070601974
       3       -0.000753732569     0.001119515122     0.000758587469
       4        0.000608942895    -0.001114149168     0.000716507098
       5        0.000003845736    -0.000002213579    -0.000004650470
       6        0.000642844859    -0.001040292328    -0.000438561679
       7       -0.000015367300    -0.000001290267     0.000023737062
       8       -0.000003662128     0.000001868558     0.000031145475
       9       -0.000003476659     0.000007276247    -0.000056446642
      10        0.000034139058     0.000033953348     0.000018777672
      11       -0.000029291146    -0.000007682469     0.000009013359
      12        0.000013459476     0.000003726305     0.000001856784
      13       -0.000004330858     0.000004609155    -0.000008308485
      14        0.000014623876     0.000002286301     0.000021028042
      15        0.000005043926    -0.000003187964     0.000004772320

  **** Optimization is complete! (in 4 steps) ****
    Final optimized geometry and variables:
    Molecular point group: c1

    Geometry (in Angstrom), charge = 0, multiplicity = 1:

    H           -2.892769733014    -0.069257750401    -0.924652746075
    C           -2.067629432687    -0.773643523186    -0.921812139770
    O           -0.848675960849    -0.098000831806    -0.894445939589
    H           -2.119634756414    -1.381478037237    -1.816839003699
    H           -2.184331682220    -1.431223357339    -0.065969840761
    C           -0.121913450786    -0.192030013929     0.291580590751
    C            1.164090315051     0.596356313981     0.147132839792
    H            0.101715647269    -1.235151249750     0.513019560479
    H           -0.705930990004     0.197456374293     1.125328276775
    C            2.024651268193     0.542151338739     1.404693294207
    H            1.715624188615     0.204633607480    -0.700468768548
    H            0.914591405641     1.624562370736    -0.090727594654
    H            2.307115278203    -0.477052755426     1.646841225841
    H            2.935862265400     1.113089103973     1.274490739332
    H            1.499574005022     0.951859806672     2.261215456826

  Mulliken Charges: (a.u.)
   Center  Symbol    Alpha    Beta     Spin     Total
       1     H     0.46016  0.46016  0.00000  0.07967
       2     C     3.02891  3.02891  0.00000 -0.05781
       3     O     4.17650  4.17650  0.00000 -0.35300
       4     H     0.45554  0.45554  0.00000  0.08891
       5     H     0.47367  0.47367  0.00000  0.05266
       6     C     2.95535  2.95535  0.00000  0.08930
       7     C     3.08209  3.08209  0.00000 -0.16419
       8     H     0.47541  0.47541  0.00000  0.04917
       9     H     0.47604  0.47604  0.00000  0.04792
      10     C     3.15592  3.15592  0.00000 -0.31184
      11     H     0.45124  0.45124  0.00000  0.09751
      12     H     0.45112  0.45112  0.00000  0.09776
      13     H     0.45590  0.45590  0.00000  0.08820
      14     H     0.44629  0.44629  0.00000  0.10742
      15     H     0.45585  0.45585  0.00000  0.08830

   Total alpha = 21.00000, Total beta = 21.00000, Total charge = -0.00000
