  ==> Input File <==

--------------------------------------------------------------------------
set {
	reference rhf
	basis 6-31G*
}

set_num_threads( 4 )
memory 2 gb

molecule MOL {
0 1

H	 2.254579	 -1.523238	 -2.011106
O	 2.624800	 -0.801893	 -1.520903
C	 1.682627	 -0.174351	 -0.789003
C	 2.090234	 0.909019	 -0.016922
C	 0.358605	 -0.568161	 -0.785571
H	 3.124816	 1.195568	 -0.036617
C	 1.172719	 1.592426	 0.753912
H	 0.016950	 -1.399068	 -1.370715
C	 -0.536158	 0.140425	 0.000000
H	 1.496055	 2.427657	 1.346957
C	 -0.163624	 1.216112	 0.774380
N	 -1.935604	 -0.280333	 0.000000
H	 -0.887026	 1.736355	 1.367204
O	 -2.161694	 -1.452901	 0.000000
O	 -2.770341	 0.571417	 0.000000

	symmetry c1
}
set optking {
	frozen_dihedral = ("
		11 9 12 14
	")
}

ee = optimize('scf')
oeprop('DIPOLE', 'QUADRUPOLE', 'MULLIKEN_CHARGES')
f=open( 'psi4out.xyz', 'w' )
f.write( "15  " )
f.write( str(ee) + "\n" )
f.write( MOL.save_string_xyz() )
f.close()
--------------------------------------------------------------------------

    Molecular point group: c1
  Charge       = 0
  Multiplicity = 1
  Basis Set: 6-31G*
  Basis Set:
  @DF-RHF Final Energy:  -509.02428519860274
    Total Energy =                       -509.0242851986027972
    Molecular point group: c1
  Basis Set: 6-31G*
  Basis Set:
  Basis Set: 6-31G*
  Basis Set:
  @DF-RHF Final Energy:  -509.01816603764263
    Total Energy =                       -509.0181660376426862
  Basis Set: 6-31G*
  Basis Set:
  Basis Set: 6-31G*
  Basis Set:
  @DF-RHF Final Energy:  -509.02447869536621
    Total Energy =                       -509.0244786953659286
  Basis Set: 6-31G*
  Basis Set:
  Basis Set: 6-31G*
  Basis Set:
  @DF-RHF Final Energy:  -509.02470531890930
    Total Energy =                       -509.0247053189096960
  Basis Set: 6-31G*
  Basis Set:
  Basis Set: 6-31G*
  Basis Set:
  @DF-RHF Final Energy:  -509.02470622547833
    Total Energy =                       -509.0247062254779848
  Basis Set: 6-31G*
  Basis Set:
  Charge       = 0
  Multiplicity = 1
  Basis Set: 6-31G*
  Basis Set:

    Orbital Energies (a.u.)
    -----------------------

    Doubly Occupied:

       1A    -20.616821     2A    -20.607146     3A    -20.606781
       4A    -15.858953     5A    -11.331981     6A    -11.313150
       7A    -11.268228     8A    -11.267829     9A    -11.264160
      10A    -11.258755    11A     -1.639081    12A     -1.437663
      13A     -1.422863    14A     -1.201814    15A     -1.095789
      16A     -1.047728    17A     -0.966173    18A     -0.881423
      19A     -0.829179    20A     -0.789848    21A     -0.758017
      22A     -0.734918    23A     -0.720985    24A     -0.710171
      25A     -0.671268    26A     -0.635464    27A     -0.616967
      28A     -0.594067    29A     -0.561366    30A     -0.546948
      31A     -0.523346    32A     -0.490844    33A     -0.489639
      34A     -0.453958    35A     -0.375740    36A     -0.343353

  @DF-RHF Final Energy:  -509.02470650747887

   => Energetics <=

    Nuclear Repulsion Energy =            503.3201548732876063
    One-Electron Energy =               -1692.8248903880678427
    Two-Electron Energy =                 680.4800290073015958
    DFT Exchange-Correlation Energy =       0.0000000000000000
    Empirical Dispersion Energy =           0.0000000000000000
    PCM Polarization Energy =               0.0000000000000000
    EFP Energy =                            0.0000000000000000
    Total Energy =                       -509.0247065074787542
    Molecular point group: c1
  Basis Set: 6-31G*
  Basis Set:

  -Total Gradient:
     Atom            X                  Y                   Z
    ------   -----------------  -----------------  -----------------
       1       -0.000001137136     0.000008568644    -0.000012791853
       2        0.000002234628    -0.000019042039     0.000015479662
       3       -0.000001093114     0.000020256533     0.000011709461
       4       -0.000002219730     0.000009758970    -0.000033689679
       5       -0.000036185518     0.000035502030    -0.000004279041
       6       -0.000000103011     0.000000992139    -0.000000106649
       7       -0.000000665079    -0.000026959486     0.000032379504
       8       -0.000004332194    -0.000010385840    -0.000005096757
       9       -0.001241899176     0.003761798181    -0.002730823451
      10       -0.000000698286     0.000000855180    -0.000003107815
      11        0.000908223848    -0.002641622579     0.003156693226
      12        0.000233522204    -0.001045486999    -0.005308519387
      13        0.000002031347    -0.000001083974    -0.000000300022
      14        0.000149484575    -0.000083417166     0.004873675998
      15       -0.000007163356    -0.000009733591     0.000008776802

  **** Optimization is complete! (in 6 steps) ****
    Final optimized geometry and variables:
    Molecular point group: c1

    Geometry (in Angstrom), charge = 0, multiplicity = 1:

    H            2.276461967416    -1.596657524655    -1.818975084083
    O            2.642123866639    -0.867556302429    -1.336986189046
    C            1.698597558928    -0.239065683190    -0.609123648734
    C            2.106080166782     0.839255332204     0.170735477986
    C            0.373508046798    -0.631765095735    -0.608523523359
    H            3.142852663307     1.118242847330     0.161720758439
    C            1.187800021406     1.522917249008     0.940045241535
    H            0.034989594404    -1.478167719563    -1.175478104504
    C           -0.522834018745     0.096202229882     0.153626694005
    H            1.514022640906     2.346775752562     1.547306515293
    C           -0.153571971781     1.161464298590     0.940432244536
    N           -1.912623340432    -0.344674117884     0.181790521360
    H           -0.882670230616     1.689330457934     1.521610056956
    O           -2.115114400061    -1.521134368002     0.164547283977
    O           -2.754319171096     0.497001989206     0.257775176369

  Mulliken Charges: (a.u.)
   Center  Symbol    Alpha    Beta     Spin     Total
       1     H     0.26735  0.26735  0.00000  0.46531
       2     O     4.37496  4.37496  0.00000 -0.74993
       3     C     2.79334  2.79334  0.00000  0.41333
       4     C     3.11100  3.11100  0.00000 -0.22199
       5     C     3.13465  3.13465  0.00000 -0.26929
       6     H     0.38135  0.38135  0.00000  0.23729
       7     C     3.09923  3.09923  0.00000 -0.19847
       8     H     0.37431  0.37431  0.00000  0.25138
       9     C     2.90002  2.90002  0.00000  0.19995
      10     H     0.38655  0.38655  0.00000  0.22690
      11     C     3.09896  3.09896  0.00000 -0.19792
      12     N     3.25396  3.25396  0.00000  0.49207
      13     H     0.37036  0.37036  0.00000  0.25928
      14     O     4.22857  4.22857  0.00000 -0.45713
      15     O     4.22539  4.22539  0.00000 -0.45079

   Total alpha = 36.00000, Total beta = 36.00000, Total charge = -0.00000
