  ==> Input File <==

--------------------------------------------------------------------------
set {
	reference rhf
	basis 6-31G*
}

set_num_threads( 1 )
memory 2 gb

molecule MOL {
0 1

H	 1.019903	 2.498665	 0.369703
O	 1.299894	 1.661738	 0.714682
C	 0.709265	 0.639550	 -0.033818
C	 -0.793441	 0.596080	 0.058728
H	 1.124230	 -0.288825	 0.341850
H	 1.000684	 0.708997	 -1.081328
C	 -1.530462	 -0.493172	 -0.025500
H	 -1.268471	 1.554324	 0.202247
H	 -1.092586	 -1.461565	 -0.186463
H	 -2.602122	 -0.450675	 0.050101

	symmetry c1
}
set optking {
	frozen_dihedral = ("
		5 3 2 1,
		3 4 7 9
	")
}

ee = energy('scf')
oeprop('DIPOLE', 'QUADRUPOLE', 'MULLIKEN_CHARGES')
f=open( 'psi4out.xyz', 'w' )
f.write( "10  " )
f.write( str(ee) + "\n" )
f.write( MOL.save_string_xyz() )
f.close()
--------------------------------------------------------------------------

    Molecular point group: c1

    Geometry (in Angstrom), charge = 0, multiplicity = 1:

       Center              X                  Y                   Z               Mass
    ------------   -----------------  -----------------  -----------------  -----------------
           H          1.027079771419     1.842762336597     0.178152820536     1.007825032070
           O          1.307070771419     1.005835336597     0.523131820536    15.994914619560
           C          0.716441771419    -0.016352663403    -0.225368179464    12.000000000000
           C         -0.786264228581    -0.059822663403    -0.132822179464    12.000000000000
           H          1.131406771419    -0.944727663403     0.150299820536     1.007825032070
           H          1.007860771419     0.053094336597    -1.272878179464     1.007825032070
           C         -1.523285228581    -1.149074663403    -0.217050179464    12.000000000000
           H         -1.261294228581     0.898421336597     0.010696820536     1.007825032070
           H         -1.085409228581    -2.117467663403    -0.378013179464     1.007825032070
           H         -2.594945228581    -1.106577663403    -0.141449179464     1.007825032070

  Charge       = 0
  Multiplicity = 1
  Basis Set: 6-31G*
  Basis Set:

    Orbital Energies (a.u.)
    -----------------------

    Doubly Occupied:

       1A    -20.561020     2A    -11.276850     3A    -11.232775
       4A    -11.222748     5A     -1.369621     6A     -1.062965
       7A     -0.920359     8A     -0.780441     9A     -0.692778
      10A     -0.648316    11A     -0.622025    12A     -0.573578
      13A     -0.536125    14A     -0.498510    15A     -0.444450
      16A     -0.366029

  @DF-RHF Final Energy:  -191.91346289907972

   => Energetics <=

    Nuclear Repulsion Energy =            117.0308904412586486
    One-Electron Energy =                -492.2715240789859763
    Two-Electron Energy =                 183.3271707386476237
    DFT Exchange-Correlation Energy =       0.0000000000000000
    Empirical Dispersion Energy =           0.0000000000000000
    PCM Polarization Energy =               0.0000000000000000
    EFP Energy =                            0.0000000000000000
    Total Energy =                       -191.9134628990797182

  Mulliken Charges: (a.u.)
   Center  Symbol    Alpha    Beta     Spin     Total
       1     H     0.28221  0.28221  0.00000  0.43558
       2     O     4.36564  4.36564  0.00000 -0.73129
       3     C     3.00739  3.00739  0.00000 -0.01478
       4     C     3.08053  3.08053  0.00000 -0.16105
       5     H     0.40844  0.40844  0.00000  0.18313
       6     H     0.42288  0.42288  0.00000  0.15424
       7     C     3.19898  3.19898  0.00000 -0.39795
       8     H     0.41236  0.41236  0.00000  0.17528
       9     H     0.41251  0.41251  0.00000  0.17499
      10     H     0.40907  0.40907  0.00000  0.18185

   Total alpha = 16.00000, Total beta = 16.00000, Total charge =  0.00000
