  ==> Input File <==

--------------------------------------------------------------------------
set {
	reference rhf
	basis 6-31G*
}

set_num_threads( 1 )
memory 2 gb

molecule MOL {
0 1

H	 -3.135461	 -1.215070	 0.001379
O	 -2.310168	 -0.871793	 -0.309793
C	 -2.026376	 0.340750	 0.341611
C	 -0.673256	 0.843270	 -0.132153
H	 -2.792215	 1.080697	 0.115987
H	 -2.013526	 0.200402	 1.421792
C	 0.486613	 -0.083066	 0.235839
H	 -0.715586	 0.970948	 -1.210718
H	 -0.508072	 1.829858	 0.297090
C	 0.952695	 -0.948811	 -0.935941
H	 0.185557	 -0.718896	 1.062034
H	 1.323376	 0.515391	 0.594332
C	 2.115632	 -1.870319	 -0.569782
H	 0.118106	 -1.547678	 -1.294462
H	 1.247360	 -0.309158	 -1.765675
H	 1.840377	 -2.546490	 0.234530
H	 2.423259	 -2.473401	 -1.418665
H	 2.979121	 -1.299613	 -0.239339

	symmetry c1
}
set optking {
	frozen_dihedral = ("
		14 10 7 11,
		2 3 4 8,
		1 2 3 4
	")
}

ee = energy('scf')
oeprop('DIPOLE', 'QUADRUPOLE', 'MULLIKEN_CHARGES')
f=open( 'psi4out.xyz', 'w' )
f.write( "18  " )
f.write( str(ee) + "\n" )
f.write( MOL.save_string_xyz() )
f.close()
--------------------------------------------------------------------------

    Molecular point group: c1

    Geometry (in Angstrom), charge = 0, multiplicity = 1:

       Center              X                  Y                   Z               Mass
    ------------   -----------------  -----------------  -----------------  -----------------
           H         -2.843397857037    -0.759637422334     0.227277918883     1.007825032070
           O         -2.018104857037    -0.416360422334    -0.083894081117    15.994914619560
           C         -1.734312857037     0.796182577666     0.567509918883    12.000000000000
           C         -0.381192857037     1.298702577666     0.093745918883    12.000000000000
           H         -2.500151857037     1.536129577666     0.341885918883     1.007825032070
           H         -1.721462857037     0.655834577666     1.647690918883     1.007825032070
           C          0.778676142963     0.372366577666     0.461737918883    12.000000000000
           H         -0.423522857037     1.426380577666    -0.984819081117     1.007825032070
           H         -0.216008857037     2.285290577666     0.522988918883     1.007825032070
           C          1.244758142963    -0.493378422334    -0.710042081117    12.000000000000
           H          0.477620142963    -0.263463422334     1.287932918883     1.007825032070
           H          1.615439142963     0.970823577666     0.820230918883     1.007825032070
           C          2.407695142963    -1.414886422334    -0.343883081117    12.000000000000
           H          0.410169142963    -1.092245422334    -1.068563081117     1.007825032070
           H          1.539423142963     0.146274577666    -1.539776081117     1.007825032070
           H          2.132440142963    -2.091057422334     0.460428918883     1.007825032070
           H          2.715322142963    -2.017968422334    -1.192766081117     1.007825032070
           H          3.271184142963    -0.844180422334    -0.013440081117     1.007825032070

  Charge       = 0
  Multiplicity = 1
  Basis Set: 6-31G*
  Basis Set:

    Orbital Energies (a.u.)
    -----------------------

    Doubly Occupied:

       1A    -20.554718     2A    -11.268477     3A    -11.211008
       4A    -11.206438     5A    -11.202910     6A    -11.199782
       7A     -1.361260     8A     -1.072691     9A     -1.005549
      10A     -0.911505    11A     -0.818567    12A     -0.779842
      13A     -0.705119    14A     -0.645160    15A     -0.616177
      16A     -0.578193    17A     -0.569500    18A     -0.557544
      19A     -0.522337    20A     -0.503044    21A     -0.484957
      22A     -0.463854    23A     -0.448474    24A     -0.447414
      25A     -0.429042

  @DF-RHF Final Energy:  -271.17577079548101

   => Energetics <=

    Nuclear Repulsion Energy =            253.9374419706861659
    One-Electron Energy =                -871.0991770324721983
    Two-Electron Energy =                 345.9859642663051318
    DFT Exchange-Correlation Energy =       0.0000000000000000
    Empirical Dispersion Energy =           0.0000000000000000
    PCM Polarization Energy =               0.0000000000000000
    EFP Energy =                            0.0000000000000000
    Total Energy =                       -271.1757707954808438

  Mulliken Charges: (a.u.)
   Center  Symbol    Alpha    Beta     Spin     Total
       1     H     0.28042  0.28042  0.00000  0.43915
       2     O     4.36920  4.36920  0.00000 -0.73840
       3     C     2.99878  2.99878  0.00000  0.00244
       4     C     3.16358  3.16358  0.00000 -0.32716
       5     H     0.42988  0.42988  0.00000  0.14025
       6     H     0.43220  0.43220  0.00000  0.13560
       7     C     3.15096  3.15096  0.00000 -0.30191
       8     H     0.41292  0.41292  0.00000  0.17416
       9     H     0.42131  0.42131  0.00000  0.15738
      10     C     3.15538  3.15538  0.00000 -0.31076
      11     H     0.41989  0.41989  0.00000  0.16022
      12     H     0.42424  0.42424  0.00000  0.15153
      13     C     3.23997  3.23997  0.00000 -0.47995
      14     H     0.40682  0.40682  0.00000  0.18637
      15     H     0.42634  0.42634  0.00000  0.14733
      16     H     0.42259  0.42259  0.00000  0.15481
      17     H     0.42082  0.42082  0.00000  0.15835
      18     H     0.42471  0.42471  0.00000  0.15059

   Total alpha = 25.00000, Total beta = 25.00000, Total charge = -0.00000
