  ==> Input File <==

--------------------------------------------------------------------------
set {
	reference rhf
	basis 6-31G*
}

set_num_threads( 1 )
memory 2 gb

molecule MOL {
0 1

O	 -2.439739	 -0.935931	 -0.423848
C	 -1.921153	 0.064240	 -0.045697
C	 -2.624470	 1.379923	 0.150949
O	 -0.632575	 0.154573	 0.251549
H	 -2.168117	 2.136577	 -0.476876
H	 -3.669540	 1.273223	 -0.098610
H	 -2.519365	 1.700893	 1.180846
C	 0.160891	 -1.019931	 0.106212
C	 1.589627	 -0.672828	 0.480843
H	 0.089836	 -1.367806	 -0.916050
H	 -0.238459	 -1.792301	 0.749618
C	 2.627108	 -1.110017	 -0.554965
H	 1.802495	 -1.150607	 1.434964
H	 1.658909	 0.399271	 0.645350
C	 4.055809	 -0.769064	 -0.133580
H	 2.543582	 -2.183109	 -0.714955
H	 2.405865	 -0.637226	 -1.506216
H	 4.771938	 -1.087956	 -0.884245
H	 4.317740	 -1.256319	 0.801435
H	 4.178262	 0.301225	 0.006295

	symmetry c1
}
set optking {
	frozen_dihedral = ("
		16 12 9 8,
		2 4 8 10,
		1 2 4 8
	")
}

ee = energy('scf')
oeprop('DIPOLE', 'QUADRUPOLE', 'MULLIKEN_CHARGES')
f=open( 'psi4out.xyz', 'w' )
f.write( "20  " )
f.write( str(ee) + "\n" )
f.write( MOL.save_string_xyz() )
f.close()
--------------------------------------------------------------------------

    Molecular point group: c1

    Geometry (in Angstrom), charge = 0, multiplicity = 1:

       Center              X                  Y                   Z               Mass
    ------------   -----------------  -----------------  -----------------  -----------------
           O         -2.532676832118    -0.576512108082    -0.402419724743    15.994914619560
           C         -2.014090832118     0.423658891918    -0.024268724743    12.000000000000
           C         -2.717407832118     1.739341891918     0.172377275257    12.000000000000
           O         -0.725512832118     0.513991891918     0.272977275257    15.994914619560
           H         -2.261054832118     2.495995891918    -0.455447724743     1.007825032070
           H         -3.762477832118     1.632641891918    -0.077181724743     1.007825032070
           H         -2.612302832118     2.060311891918     1.202274275257     1.007825032070
           C          0.067953167882    -0.660512108082     0.127640275257    12.000000000000
           C          1.496689167882    -0.313409108082     0.502271275257    12.000000000000
           H         -0.003101832118    -1.008387108082    -0.894621724743     1.007825032070
           H         -0.331396832118    -1.432882108082     0.771046275257     1.007825032070
           C          2.534170167882    -0.750598108082    -0.533536724743    12.000000000000
           H          1.709557167882    -0.791188108082     1.456392275257     1.007825032070
           H          1.565971167882     0.758689891918     0.666778275257     1.007825032070
           C          3.962871167882    -0.409645108082    -0.112151724743    12.000000000000
           H          2.450644167882    -1.823690108082    -0.693526724743     1.007825032070
           H          2.312927167882    -0.277807108082    -1.484787724743     1.007825032070
           H          4.679000167882    -0.728537108082    -0.862816724743     1.007825032070
           H          4.224802167882    -0.896900108082     0.822863275257     1.007825032070
           H          4.085324167882     0.660643891918     0.027723275257     1.007825032070

  Charge       = 0
  Multiplicity = 1
  Basis Set: 6-31G*
  Basis Set:

    Orbital Energies (a.u.)
    -----------------------

    Doubly Occupied:

       1A    -20.601013     2A    -20.543402     3A    -11.373546
       4A    -11.280723     5A    -11.232909     6A    -11.225211
       7A    -11.222498     8A    -11.215150     9A     -1.467176
      10A     -1.361479    11A     -1.087071    12A     -1.029281
      13A     -0.980888    14A     -0.880890    15A     -0.807677
      16A     -0.779685    17A     -0.689527    18A     -0.682826
      19A     -0.667661    20A     -0.634796    21A     -0.599747
      22A     -0.593214    23A     -0.570296    24A     -0.556111
      25A     -0.544592    26A     -0.521122    27A     -0.511783
      28A     -0.481687    29A     -0.480977    30A     -0.476047
      31A     -0.447593    32A     -0.436482

  @DF-RHF Final Energy:  -383.93974978108753

   => Energetics <=

    Nuclear Repulsion Energy =            379.8826931195922612
    One-Electron Energy =               -1275.6788033528669075
    Two-Electron Energy =                 511.8563604521874595
    DFT Exchange-Correlation Energy =       0.0000000000000000
    Empirical Dispersion Energy =           0.0000000000000000
    PCM Polarization Energy =               0.0000000000000000
    EFP Energy =                            0.0000000000000000
    Total Energy =                       -383.9397497810872437

  Mulliken Charges: (a.u.)
   Center  Symbol    Alpha    Beta     Spin     Total
       1     O     4.28352  4.28352  0.00000 -0.56704
       2     C     2.61993  2.61993  0.00000  0.76013
       3     C     3.28156  3.28156  0.00000 -0.56312
       4     O     4.31006  4.31006  0.00000 -0.62012
       5     H     0.40073  0.40073  0.00000  0.19853
       6     H     0.39701  0.39701  0.00000  0.20598
       7     H     0.40069  0.40069  0.00000  0.19863
       8     C     3.00016  3.00016  0.00000 -0.00032
       9     C     3.16977  3.16977  0.00000 -0.33954
      10     H     0.40828  0.40828  0.00000  0.18345
      11     H     0.40921  0.40921  0.00000  0.18158
      12     C     3.15918  3.15918  0.00000 -0.31835
      13     H     0.41747  0.41747  0.00000  0.16506
      14     H     0.40541  0.40541  0.00000  0.18918
      15     C     3.24067  3.24067  0.00000 -0.48133
      16     H     0.42065  0.42065  0.00000  0.15869
      17     H     0.41839  0.41839  0.00000  0.16323
      18     H     0.41713  0.41713  0.00000  0.16575
      19     H     0.42025  0.42025  0.00000  0.15951
      20     H     0.41994  0.41994  0.00000  0.16012

   Total alpha = 32.00000, Total beta = 32.00000, Total charge = -0.00000
