                              Psi4 1.0.54 Driver

  ==> Input File <==

--------------------------------------------------------------------------
set {
	reference rhf
	basis cc-pvtz
}

set_num_threads( 4 )
memory 2 gb

molecule MOL {
0 1

H	 2.955160	 -1.080515	 -0.587715
N	 3.091268	 -0.241216	 -0.065538
C	 1.860978	 0.530248	 0.016256
H	 3.808268	 0.279297	 -0.526326
C	 0.644130	 -0.381765	 -0.031064
H	 1.835721	 1.204666	 -0.833114
H	 1.808789	 1.151975	 0.911067
C	 -0.678115	 0.376691	 0.025731
H	 0.693998	 -0.977147	 -0.936845
H	 0.693309	 -1.082142	 0.800523
C	 -1.900706	 -0.535531	 -0.022488
H	 -0.725296	 1.079516	 -0.802982
H	 -0.715474	 0.974884	 0.933278
C	 -3.220513	 0.226854	 0.028039
H	 -1.865036	 -1.134397	 -0.928236
H	 -1.857948	 -1.236381	 0.806820
H	 -3.309098	 0.911849	 -0.808725
H	 -4.066838	 -0.449485	 -0.008086
H	 -3.301685	 0.809374	 0.939860

	symmetry c1
}
set optking {
	frozen_dihedral = ("
		1 2 3 6
	")
}

ee,wfn = optimize('scf', return_wfn=True)
oeprop( wfn, 'DIPOLE', 'QUADRUPOLE', 'MULLIKEN_CHARGES')
f=open( 'psi4out.xyz', 'w' )
f.write( "19  " )
f.write( str(ee) + "\n" )
f.write( MOL.save_string_xyz() )
f.close()
--------------------------------------------------------------------------

    Molecular point group: c1
  Charge       = 0
  Multiplicity = 1
  Basis Set: CC-PVTZ
  Basis Set:
  @DF-RHF Final Energy:  -251.44455107013098
    Total Energy =                       -251.4445510701309558
    Molecular point group: c1
  Basis Set: CC-PVTZ
  Basis Set:
  Basis Set: CC-PVTZ
  Basis Set:
  @DF-RHF Final Energy:  -251.44612303932593
    Total Energy =                       -251.4461230393256983
  Basis Set: CC-PVTZ
  Basis Set:
  Basis Set: CC-PVTZ
  Basis Set:
  @DF-RHF Final Energy:  -251.44633090762756
    Total Energy =                       -251.4463309076277255
  Basis Set: CC-PVTZ
  Basis Set:
  Basis Set: CC-PVTZ
  Basis Set:
  @DF-RHF Final Energy:  -251.44633653012025
    Total Energy =                       -251.4463365301205044
  Basis Set: CC-PVTZ
  Basis Set:
  Charge       = 0
  Multiplicity = 1
  Basis Set: CC-PVTZ
  Basis Set:

    Orbital Energies (a.u.)
    -----------------------

    Doubly Occupied:

       1A    -15.523425     2A    -11.237244     3A    -11.213477
       4A    -11.212516     5A    -11.211861     6A    -11.206544
       7A     -1.176036     8A     -1.075892     9A     -1.000770
      10A     -0.901605    11A     -0.816338    12A     -0.792550
      13A     -0.655860    14A     -0.653584    15A     -0.614218
      16A     -0.596173    17A     -0.565258    18A     -0.544621
      19A     -0.539633    20A     -0.497095    21A     -0.486008
      22A     -0.467135    23A     -0.463720    24A     -0.450988
      25A     -0.378869

  @DF-RHF Final Energy:  -251.44633714992801

   => Energetics <=

    Nuclear Repulsion Energy =            246.2100603129970295
    One-Electron Energy =                -826.7499588480338844
    Two-Electron Energy =                 329.0935613851090693
    DFT Exchange-Correlation Energy =       0.0000000000000000
    Empirical Dispersion Energy =           0.0000000000000000
    PCM Polarization Energy =               0.0000000000000000
    EFP Energy =                            0.0000000000000000
    Total Energy =                       -251.4463371499277855
    Molecular point group: c1
  Basis Set: CC-PVTZ
  Basis Set:

  -Total Gradient:
     Atom            X                  Y                   Z
    ------   -----------------  -----------------  -----------------
       1       -0.000806086378    -0.001409735591     0.002608216414
       2        0.001422280436     0.002333137092    -0.002834927975
       3       -0.001980075229    -0.002973730922    -0.001275588092
       4       -0.000006710682     0.000001463421    -0.000003214861
       5        0.000076935366     0.000034905821    -0.000005908063
       6        0.001328527509     0.002000004164     0.001496356172
       7        0.000000382417     0.000008263250     0.000016888586
       8       -0.000017683337    -0.000009229947     0.000001172246
       9        0.000002039058     0.000009610344     0.000005800673
      10       -0.000005521992     0.000015229305    -0.000018344969
      11       -0.000018167960     0.000012524282     0.000004823726
      12        0.000012809775    -0.000015570139    -0.000001736466
      13       -0.000000020492    -0.000004347200    -0.000005316343
      14       -0.000011264977    -0.000012455987     0.000011635758
      15        0.000005721921     0.000007742506     0.000000129686
      16       -0.000003123282    -0.000001513417     0.000000270057
      17        0.000004383746    -0.000001581235    -0.000001240514
      18       -0.000003728004     0.000002553700     0.000001313569
      19       -0.000000697897     0.000002730553    -0.000000329603

  **** Optimization is complete! (in 5 steps) ****
    Final optimized geometry and variables:
    Molecular point group: c1

    Geometry (in Angstrom), charge = 0, multiplicity = 1:

    H            2.976781718684    -1.086762713923    -0.684272379335
    N            3.092408298690    -0.234302941080    -0.180480137039
    C            1.856893269067     0.533895136710    -0.135594215797
    H            3.842264609192     0.276609264558    -0.591211195463
    C            0.641547945963    -0.377677765339    -0.079319862127
    H            1.764881645768     1.221751517057    -0.975665880768
    H            1.873421136576     1.153444220421     0.756372684390
    C           -0.673655716725     0.380564027336     0.068179572422
    H            0.608746796590    -0.983403560981    -0.982828562955
    H            0.763432795972    -1.066338283024     0.751821784648
    C           -1.894969665523    -0.533119423500     0.120239204887
    H           -0.784212697895     1.077234465742    -0.759430322455
    H           -0.640755460632     0.984048008016     0.971827844920
    C           -3.207196047325     0.228796308250     0.272119625088
    H           -1.931188916923    -1.135494775336    -0.783413192788
    H           -1.785698201138    -1.230330148798     0.946288478821
    H           -3.362273028296     0.910630927866    -0.557525899715
    H           -4.053071565793    -0.448212860816     0.305716601165
    H           -3.216128160913     0.814470114252     1.185367527988

  Mulliken Charges: (a.u.)
   Center  Symbol    Alpha    Beta     Spin     Total
       1     H     0.42996  0.42996  0.00000  0.14009
       2     N     3.69338  3.69338  0.00000 -0.38676
       3     C     3.01695  3.01695  0.00000 -0.03391
       4     H     0.42944  0.42944  0.00000  0.14112
       5     C     3.08767  3.08767  0.00000 -0.17534
       6     H     0.46877  0.46877  0.00000  0.06245
       7     H     0.46168  0.46168  0.00000  0.07664
       8     C     3.09260  3.09260  0.00000 -0.18519
       9     H     0.46008  0.46008  0.00000  0.07985
      10     H     0.44886  0.44886  0.00000  0.10228
      11     C     3.08334  3.08334  0.00000 -0.16669
      12     H     0.45581  0.45581  0.00000  0.08838
      13     H     0.45365  0.45365  0.00000  0.09271
      14     C     3.15007  3.15007  0.00000 -0.30014
      15     H     0.45501  0.45501  0.00000  0.08998
      16     H     0.45395  0.45395  0.00000  0.09209
      17     H     0.45543  0.45543  0.00000  0.08915
      18     H     0.44844  0.44844  0.00000  0.10311
      19     H     0.45491  0.45491  0.00000  0.09019

   Total alpha = 25.00000, Total beta = 25.00000, Total charge =  0.00000

*** Psi4 exiting successfully. Buy a developer a beer!
