  ==> Input File <==

--------------------------------------------------------------------------
set {
	reference rhf
	basis 6-31G*
}

set_num_threads( 4 )
memory 2 gb

molecule MOL {
0 1

H	 2.591676	 2.013956	 0.335017
O	 3.341076	 1.666752	 -0.126416
C	 3.569581	 0.339145	 0.272707
C	 2.539767	 -0.640285	 -0.279495
H	 4.553106	 0.084646	 -0.100901
H	 3.608576	 0.269204	 1.359154
C	 1.115811	 -0.397273	 0.226630
H	 2.556196	 -0.582511	 -1.364741
H	 2.852081	 -1.648031	 -0.010655
C	 0.114133	 -1.423372	 -0.310565
H	 0.800578	 0.602084	 -0.060213
H	 1.108690	 -0.427813	 1.316290
C	 -1.311803	 -1.276959	 0.233136
H	 0.092354	 -1.367347	 -1.397411
H	 0.475085	 -2.420186	 -0.066074
C	 -2.036420	 0.002286	 -0.194578
H	 -1.894276	 -2.133295	 -0.100377
H	 -1.289323	 -1.332479	 1.320449
C	 -3.488824	 0.053214	 0.284345
H	 -2.014309	 0.081415	 -1.280561
H	 -1.510745	 0.875036	 0.185259
C	 -4.212533	 1.332043	 -0.135783
H	 -4.026251	 -0.809307	 -0.103878
H	 -3.513495	 -0.035489	 1.368507
H	 -4.233532	 1.433405	 -1.217221
H	 -5.239383	 1.337269	 0.216620
H	 -3.720192	 2.212355	 0.267968

	symmetry c1
}
set optking {
	frozen_dihedral = ("
		10 7 4 8
	")
}

ee = optimize('scf')
oeprop('DIPOLE', 'QUADRUPOLE', 'MULLIKEN_CHARGES')
f=open( 'psi4out.xyz', 'w' )
f.write( "27  " )
f.write( str(ee) + "\n" )
f.write( MOL.save_string_xyz() )
f.close()
--------------------------------------------------------------------------

    Molecular point group: c1
  Charge       = 0
  Multiplicity = 1
  Basis Set: 6-31G*
  Basis Set:
  @DF-RHF Final Energy:  -388.28175579727070
    Total Energy =                       -388.2817557972707618
    Molecular point group: c1
  Basis Set: 6-31G*
  Basis Set:
  Charge       = 0
  Multiplicity = 1
  Basis Set: 6-31G*
  Basis Set:

    Orbital Energies (a.u.)
    -----------------------

    Doubly Occupied:

       1A    -20.552312     2A    -11.267069     3A    -11.219817
       4A    -11.217312     5A    -11.216157     6A    -11.215728
       7A    -11.215226     8A    -11.214363     9A    -11.209432
      10A     -1.359079    11A     -1.095259    12A     -1.061600
      13A     -1.011577    14A     -0.948539    15A     -0.888078
      16A     -0.819981    17A     -0.801640    18A     -0.778306
      19A     -0.693713    20A     -0.651980    21A     -0.638383
      22A     -0.614551    23A     -0.600108    24A     -0.583064
      25A     -0.580265    26A     -0.552480    27A     -0.541334
      28A     -0.531614    29A     -0.505302    30A     -0.493815
      31A     -0.485421    32A     -0.474279    33A     -0.469133
      34A     -0.461325    35A     -0.452204    36A     -0.441790
      37A     -0.422914

  @DF-RHF Final Energy:  -388.28175550180708

   => Energetics <=

    Nuclear Repulsion Energy =            459.6915850192788184
    One-Electron Energy =               -1437.3763893368172830
    Two-Electron Energy =                 589.4030488157311538
    DFT Exchange-Correlation Energy =       0.0000000000000000
    Empirical Dispersion Energy =           0.0000000000000000
    PCM Polarization Energy =               0.0000000000000000
    EFP Energy =                            0.0000000000000000
    Total Energy =                       -388.2817555018073108
    Molecular point group: c1
  Basis Set: 6-31G*
  Basis Set:

  -Total Gradient:
     Atom            X                  Y                   Z
    ------   -----------------  -----------------  -----------------
       1        0.000016182136    -0.000019049596     0.000006713167
       2        0.000045923852    -0.000012090529    -0.000036037675
       3       -0.000049930619     0.000022494530     0.000085551163
       4        0.000007203450     0.000086712233    -0.000061712765
       5       -0.000011272126     0.000029184749    -0.000009797791
       6        0.000018191600     0.000001080443     0.000011693775
       7        0.000022072934    -0.000071163130     0.000077378814
       8       -0.000028104577    -0.000075938620    -0.000012896950
       9       -0.000008628958     0.000012727270    -0.000005610008
      10       -0.000017759810     0.000045700316    -0.000066064038
      11        0.000024747707    -0.000040782511    -0.000015498528
      12       -0.000005415929     0.000010884728     0.000016046247
      13        0.000009047121     0.000007731838     0.000013665280
      14       -0.000006562971     0.000009567455    -0.000005325965
      15       -0.000001468636    -0.000000020246    -0.000008965093
      16       -0.000006930261    -0.000001535192    -0.000004901221
      17        0.000004677775    -0.000006591649     0.000009786124
      18        0.000002817099     0.000014855639     0.000002887741
      19        0.000000700935    -0.000002640897     0.000004627794
      20        0.000008923083     0.000008866611    -0.000004508057
      21       -0.000022959027    -0.000015021053     0.000007051640
      22       -0.000001939006    -0.000007121868    -0.000008973654
      23        0.000001207824    -0.000002194994     0.000004704137
      24       -0.000001437704     0.000005486635     0.000001751017
      25        0.000000132856     0.000002447986    -0.000000870055
      26        0.000000370863    -0.000001874846    -0.000002670433
      27        0.000000210390    -0.000001715306     0.000001975337

  **** Optimization is complete! (in 2 steps) ****
    Final optimized geometry and variables:
    Molecular point group: c1

    Geometry (in Angstrom), charge = 0, multiplicity = 1:

    H            2.598384324670     2.008942327272     0.337630340424
    O            3.346685274280     1.659551864020    -0.123917216411
    C            3.571013275557     0.331280170298     0.275180368099
    C            2.539437360191    -0.645364440071    -0.278767043415
    H            4.554214329264     0.074600175606    -0.097702234782
    H            3.608940620443     0.260784333957     1.361638036848
    C            1.115864802604    -0.401019468383     0.227650946585
    H            2.556023387716    -0.586544606975    -1.363955843196
    H            2.849854800790    -1.654046319008    -0.011302139191
    C            0.112936474582    -1.425346660749    -0.310608648917
    H            0.801819979062     0.598848764732    -0.058697164142
    H            1.108739685746    -0.432087337609     1.317286429587
    C           -1.312196460053    -1.279499167952     0.235329419481
    H            0.089787062885    -1.366837473343    -1.397297752630
    H            0.473626792785    -2.422930899137    -0.068859591696
    C           -2.038597760471    -0.001333885234    -0.192497090519
    H           -1.894491561350    -2.136635281796    -0.096390983294
    H           -1.287941816844    -1.333934996256     1.322653741229
    C           -3.490915656425     0.047812936762     0.286896465975
    H           -2.016870413847     0.077550545310    -1.278511367052
    H           -1.513962091968     0.872187068144     0.186988049935
    C           -4.217340318099     1.324177921557    -0.135983445210
    H           -4.026719512590    -0.816680866534    -0.099168131207
    H           -3.515079225326    -0.038419803108     1.371277206219
    H           -4.238651074703     1.423089467546    -1.217630571406
    H           -5.244164120502     1.327982252439     0.216484334086
    H           -3.726834215691     2.206416096445     0.265790179969

  Mulliken Charges: (a.u.)
   Center  Symbol    Alpha    Beta     Spin     Total
       1     H     0.27993  0.27993  0.00000  0.44014
       2     O     4.37090  4.37090  0.00000 -0.74180
       3     C     2.99739  2.99739  0.00000  0.00523
       4     C     3.16097  3.16097  0.00000 -0.32194
       5     H     0.41443  0.41443  0.00000  0.17113
       6     H     0.43204  0.43204  0.00000  0.13591
       7     C     3.16318  3.16318  0.00000 -0.32635
       8     H     0.41495  0.41495  0.00000  0.17011
       9     H     0.42433  0.42433  0.00000  0.15133
      10     C     3.15210  3.15210  0.00000 -0.30419
      11     H     0.42301  0.42301  0.00000  0.15397
      12     H     0.42539  0.42539  0.00000  0.14921
      13     C     3.15356  3.15356  0.00000 -0.30712
      14     H     0.42158  0.42158  0.00000  0.15683
      15     H     0.42149  0.42149  0.00000  0.15701
      16     C     3.15231  3.15231  0.00000 -0.30461
      17     H     0.42122  0.42122  0.00000  0.15756
      18     H     0.42427  0.42427  0.00000  0.15146
      19     C     3.15125  3.15125  0.00000 -0.30250
      20     H     0.42356  0.42356  0.00000  0.15288
      21     H     0.42392  0.42392  0.00000  0.15215
      22     C     3.23916  3.23916  0.00000 -0.47832
      23     H     0.42283  0.42283  0.00000  0.15434
      24     H     0.42330  0.42330  0.00000  0.15339
      25     H     0.42142  0.42142  0.00000  0.15716
      26     H     0.41920  0.41920  0.00000  0.16159
      27     H     0.42229  0.42229  0.00000  0.15542

   Total alpha = 37.00000, Total beta = 37.00000, Total charge = -0.00000
