                              Psi4 1.0.54 Driver

  ==> Input File <==

--------------------------------------------------------------------------
set {
	reference rhf
	basis cc-pvtz
}

set_num_threads( 4 )
memory 2 gb

molecule MOL {
0 1

H	 -1.633988	 -0.265849	 -3.401556
C	 -2.303170	 -0.442210	 -2.548339
C	 -1.819918	 -1.475374	 -1.567049
O	 -3.320044	 0.154167	 -2.461104
C	 -0.388386	 -1.214971	 -1.088947
H	 -2.515902	 -1.516273	 -0.739240
H	 -1.856061	 -2.432984	 -2.081813
C	 -0.247837	 0.040196	 -0.230469
H	 -0.053524	 -2.077748	 -0.523419
H	 0.271403	 -1.144275	 -1.950268
C	 1.181757	 0.280428	 0.247371
H	 -0.907480	 -0.042404	 0.629273
H	 -0.589692	 0.908025	 -0.788532
C	 2.151032	 -0.811012	 -0.202643
H	 1.515939	 1.247397	 -0.115449
H	 1.191514	 0.341223	 1.333422
C	 3.580021	 -0.656538	 0.320835
H	 2.170545	 -0.847575	 -1.289412
H	 1.766632	 -1.772905	 0.124928
C	 4.327657	 0.562694	 -0.213579
H	 4.138806	 -1.549270	 0.057813
H	 3.561991	 -0.620783	 1.406976
H	 4.355973	 0.557257	 -1.298551
H	 3.867136	 1.491650	 0.100501
H	 5.351524	 0.571613	 0.142204

	symmetry c1
}
set optking {
	frozen_dihedral = ("
		12 8 11 14
	")
}

ee,wfn = optimize('scf', return_wfn=True)
oeprop( wfn, 'DIPOLE', 'QUADRUPOLE', 'MULLIKEN_CHARGES')
f=open( 'psi4out.xyz', 'w' )
f.write( "25  " )
f.write( str(ee) + "\n" )
f.write( MOL.save_string_xyz() )
f.close()
--------------------------------------------------------------------------

    Molecular point group: c1
  Charge       = 0
  Multiplicity = 1
  Basis Set: CC-PVTZ
  Basis Set:
  @DF-RHF Final Energy:  -387.24433901244879
    Total Energy =                       -387.2443390124485632
    Molecular point group: c1
  Basis Set: CC-PVTZ
  Basis Set:
  Basis Set: CC-PVTZ
  Basis Set:
  @DF-RHF Final Energy:  -387.05409470030827
    Total Energy =                       -387.0540947003082692
  Basis Set: CC-PVTZ
  Basis Set:
  Basis Set: CC-PVTZ
  Basis Set:
  @DF-RHF Final Energy:  -387.17889026202710
    Total Energy =                       -387.1788902620269255
  Basis Set: CC-PVTZ
  Basis Set:
  Basis Set: CC-PVTZ
  Basis Set:
  @DF-RHF Final Energy:  -387.24259813793157
    Total Energy =                       -387.2425981379315090
  Basis Set: CC-PVTZ
  Basis Set:
  @DF-RHF Final Energy:  -387.24907876474532
    Total Energy =                       -387.2490787647454908
  @DF-RHF Final Energy:  -387.24977710236885
    Total Energy =                       -387.2497771023689666
  Basis Set: CC-PVTZ
  Basis Set:
  @DF-RHF Final Energy:  -387.24979014647738
    Total Energy =                       -387.2497901464770393
  Basis Set: CC-PVTZ
  Basis Set:
  Basis Set: CC-PVTZ
  Basis Set:
  @DF-RHF Final Energy:  -387.24932106946250
    Total Energy =                       -387.2493210694619847
  Basis Set: CC-PVTZ
  Basis Set:
  Basis Set: CC-PVTZ
  Basis Set:
  @DF-RHF Final Energy:  -387.24983759668237
    Total Energy =                       -387.2498375966828235
  Basis Set: CC-PVTZ
  Basis Set:
  Charge       = 0
  Multiplicity = 1
  Basis Set: CC-PVTZ
  Basis Set:

    Orbital Energies (a.u.)
    -----------------------

    Doubly Occupied:

       1A    -20.550963     2A    -11.320712     3A    -11.233317
       4A    -11.232106     5A    -11.222690     6A    -11.218269
       7A    -11.217668     8A    -11.216963     9A    -11.209534
      10A     -1.406041    11A     -1.103149    12A     -1.070399
      13A     -1.010824    14A     -0.941508    15A     -0.886461
      16A     -0.824967    17A     -0.793627    18A     -0.766408
      19A     -0.666250    20A     -0.661552    21A     -0.633834
      22A     -0.630163    23A     -0.604319    24A     -0.589507
      25A     -0.584482    26A     -0.548488    27A     -0.542616
      28A     -0.527664    29A     -0.516284    30A     -0.502706
      31A     -0.486106    32A     -0.480280    33A     -0.453760
      34A     -0.452410    35A     -0.447768    36A     -0.411113

  @DF-RHF Final Energy:  -387.24983702807981

   => Energetics <=

    Nuclear Repulsion Energy =            444.1852023668537868
    One-Electron Energy =               -1404.9402628568300315
    Two-Electron Energy =                 573.5052234618972307
    DFT Exchange-Correlation Energy =       0.0000000000000000
    Empirical Dispersion Energy =           0.0000000000000000
    PCM Polarization Energy =               0.0000000000000000
    EFP Energy =                            0.0000000000000000
    Total Energy =                       -387.2498370280790141
    Molecular point group: c1
  Basis Set: CC-PVTZ
  Basis Set:

  -Total Gradient:
     Atom            X                  Y                   Z
    ------   -----------------  -----------------  -----------------
       1       -0.000063221678    -0.000022458160     0.000003415480
       2        0.000189251164     0.000128293651     0.000059719189
       3       -0.000041108792    -0.000023586444    -0.000125459546
       4       -0.000025553509    -0.000050997423    -0.000022994131
       5       -0.000020093320     0.000024450458     0.000235100832
       6        0.000029818037    -0.000025419516     0.000021246733
       7       -0.000023394660     0.000019043637    -0.000030220945
       8        0.000362496111    -0.001085513595    -0.000166356554
       9       -0.000060711797     0.000028791266     0.000005080897
      10        0.000077078813    -0.000011022913    -0.000073001297
      11        0.000134752492    -0.000172857082     0.000955160309
      12       -0.000307262126     0.000932132601    -0.000142020420
      13       -0.000085547245    -0.000026026440    -0.000025301740
      14       -0.000148903905     0.000284748329    -0.000598118955
      15        0.000088145856     0.000064208795    -0.000057525168
      16        0.000001904602    -0.000011348464     0.000015075015
      17        0.000023554602    -0.000052599030    -0.000034214426
      18       -0.000077288471    -0.000049522461    -0.000039467951
      19        0.000030632963     0.000040003997     0.000012651487
      20       -0.000060237876    -0.000037256446     0.000013595257
      21       -0.000003960956     0.000026186454    -0.000027613892
      22       -0.000006861868    -0.000017078927     0.000021197452
      23        0.000016862618     0.000009417108    -0.000019478502
      24       -0.000057775500     0.000005812408     0.000025112807
      25        0.000027424438     0.000022598197    -0.000005581930

  **** Optimization is complete! (in 10 steps) ****
    Final optimized geometry and variables:
    Molecular point group: c1

    Geometry (in Angstrom), charge = 0, multiplicity = 1:

    H           -2.863557735243    -0.574660965586    -1.476175500101
    C           -3.121789685831    -0.565077986312    -0.408358323374
    C           -2.201000920395    -1.363717031750     0.473870936111
    O           -4.071667364143     0.031475421649    -0.035297886571
    C           -0.721982926413    -1.036860907449     0.245408807961
    H           -2.491140467385    -1.208242854731     1.504954167433
    H           -2.375575727147    -2.410166201368     0.232975405203
    C           -0.363313947455     0.383470385386     0.686848434875
    H           -0.129470742686    -1.761701833722     0.788894958095
    H           -0.487596313435    -1.178438496481    -0.805141036038
    C            1.107989399934     0.843788091916     0.498044117991
    H           -0.634164006014     0.487855139475     1.732252274162
    H           -1.009337491676     1.077723049977     0.159151705350
    C            2.102544005131    -0.184481010512    -0.045988424587
    H            1.111086035473     1.705864984666    -0.157352636916
    H            1.483582448566     1.199835266910     1.451871167541
    C            3.537206000184     0.340202362979    -0.147059554888
    H            1.787025281261    -0.529020552257    -1.026530860822
    H            2.110304906644    -1.058131554141     0.597344589239
    C            3.746560427477     1.445587398977    -1.179480579216
    H            4.186702087815    -0.493069334044    -0.396825203801
    H            3.859754591227     0.692548286600     0.829117572375
    H            3.422663400997     1.124872632226    -2.164583384888
    H            3.200836069241     2.346902543680    -0.928907571445
    H            4.795373019549     1.710583732933    -1.248780884568

  Mulliken Charges: (a.u.)
   Center  Symbol    Alpha    Beta     Spin     Total
       1     H     0.46395  0.46395  0.00000  0.07209
       2     C     2.90568  2.90568  0.00000  0.18864
       3     C     3.08882  3.08882  0.00000 -0.17765
       4     O     4.16639  4.16639  0.00000 -0.33279
       5     C     3.12179  3.12179  0.00000 -0.24359
       6     H     0.44299  0.44299  0.00000  0.11402
       7     H     0.43940  0.43940  0.00000  0.12121
       8     C     3.09750  3.09750  0.00000 -0.19501
       9     H     0.44003  0.44003  0.00000  0.11995
      10     H     0.44746  0.44746  0.00000  0.10508
      11     C     3.10068  3.10068  0.00000 -0.20135
      12     H     0.44624  0.44624  0.00000  0.10752
      13     H     0.44476  0.44476  0.00000  0.11048
      14     C     3.09976  3.09976  0.00000 -0.19952
      15     H     0.44726  0.44726  0.00000  0.10548
      16     H     0.44857  0.44857  0.00000  0.10285
      17     C     3.09092  3.09092  0.00000 -0.18183
      18     H     0.45207  0.45207  0.00000  0.09587
      19     H     0.44707  0.44707  0.00000  0.10586
      20     C     3.15252  3.15252  0.00000 -0.30505
      21     H     0.44781  0.44781  0.00000  0.10439
      22     H     0.45415  0.45415  0.00000  0.09171
      23     H     0.45518  0.45518  0.00000  0.08964
      24     H     0.45322  0.45322  0.00000  0.09356
      25     H     0.44578  0.44578  0.00000  0.10844

   Total alpha = 36.00000, Total beta = 36.00000, Total charge = -0.00000

*** Psi4 exiting successfully. Buy a developer a beer!
