  ==> Input File <==

--------------------------------------------------------------------------
set {
	reference rhf
	basis 6-31G*
}

set_num_threads( 4 )
memory 2 gb

molecule MOL {
0 1

H	 -2.499100	 -0.730091	 -0.745082
O	 -2.347518	 -0.290803	 0.079804
C	 -1.184022	 0.487508	 -0.006784
C	 0.062599	 -0.378592	 0.031606
H	 -1.176523	 1.099369	 -0.904519
H	 -1.187323	 1.153111	 0.844927
O	 1.165746	 0.445725	 -0.176600
H	 0.007860	 -1.148360	 -0.740690
H	 0.125937	 -0.885294	 0.992764
C	 2.393090	 -0.210806	 -0.134960
H	 2.460752	 -0.977065	 -0.904960
H	 3.164357	 0.527195	 -0.306437
H	 2.560699	 -0.678455	 0.833030

	symmetry c1
}
set optking {
	frozen_dihedral = ("
		8 4 3 5
	")
}

ee = optimize('scf')
oeprop('DIPOLE', 'QUADRUPOLE', 'MULLIKEN_CHARGES')
f=open( 'psi4out.xyz', 'w' )
f.write( "13  " )
f.write( str(ee) + "\n" )
f.write( MOL.save_string_xyz() )
f.close()
--------------------------------------------------------------------------

    Molecular point group: c1
  Charge       = 0
  Multiplicity = 1
  Basis Set: 6-31G*
  Basis Set:
  @DF-RHF Final Energy:  -267.95051806938409
    Total Energy =                       -267.9505180693840884
    Molecular point group: c1
  Basis Set: 6-31G*
  Basis Set:
  Basis Set: 6-31G*
  Basis Set:
  @DF-RHF Final Energy:  -267.95053449511386
    Total Energy =                       -267.9505344951139705
  Basis Set: 6-31G*
  Basis Set:
  Charge       = 0
  Multiplicity = 1
  Basis Set: 6-31G*
  Basis Set:

    Orbital Energies (a.u.)
    -----------------------

    Doubly Occupied:

       1A    -20.562842     2A    -20.560347     3A    -11.271098
       4A    -11.270521     5A    -11.269012     6A     -1.389190
       7A     -1.365406     8A     -1.018574     9A     -0.913645
      10A     -0.842192    11A     -0.709358    12A     -0.674879
      13A     -0.660602    14A     -0.636284    15A     -0.598176
      16A     -0.569059    17A     -0.544765    18A     -0.489672
      19A     -0.482114    20A     -0.438528    21A     -0.422271

  @DF-RHF Final Energy:  -267.95054064224723

   => Energetics <=

    Nuclear Repulsion Energy =            190.2284908774573182
    One-Electron Energy =                -742.9809950521284918
    Two-Electron Energy =                 284.8019635324241108
    DFT Exchange-Correlation Energy =       0.0000000000000000
    Empirical Dispersion Energy =           0.0000000000000000
    PCM Polarization Energy =               0.0000000000000000
    EFP Energy =                            0.0000000000000000
    Total Energy =                       -267.9505406422471196
    Molecular point group: c1
  Basis Set: 6-31G*
  Basis Set:

  -Total Gradient:
     Atom            X                  Y                   Z
    ------   -----------------  -----------------  -----------------
       1       -0.000019681885    -0.000016962300    -0.000004709812
       2       -0.000086074601    -0.000116839007    -0.000021866679
       3       -0.000735099083    -0.001042140263    -0.000504061043
       4        0.000725467227     0.000937258245    -0.000824551568
       5        0.000572723494     0.000815673342     0.000622137282
       6        0.000015349641     0.000039550715    -0.000025361448
       7        0.000116492444     0.000099247322    -0.000018751577
       8       -0.000511242048    -0.000694187616     0.000811345345
       9       -0.000010772900    -0.000013217090    -0.000031433221
      10       -0.000081197236    -0.000001967105    -0.000016100876
      11        0.000014729410    -0.000010861116    -0.000000767314
      12       -0.000005388657     0.000008307994     0.000003774779
      13        0.000004694193    -0.000003863119     0.000010346132

  **** Optimization is complete! (in 3 steps) ****
    Final optimized geometry and variables:
    Molecular point group: c1

    Geometry (in Angstrom), charge = 0, multiplicity = 1:

    H           -2.502940936623    -0.730468518780    -0.678092514865
    O           -2.346373848482    -0.283558714940     0.141822786580
    C           -1.182716973361     0.492050576038     0.041322484987
    C            0.064798347606    -0.374106061384     0.069677891768
    H           -1.178112919890     1.105251790911    -0.855410400098
    H           -1.178636678580     1.161122038293     0.890566312136
    O            1.168757965092     0.450450928606    -0.132381719736
    H            0.004619281302    -1.141172284377    -0.704785113351
    H            0.130698936733    -0.889976588575     1.025927077585
    C            2.396146225617    -0.205456595929    -0.079486498657
    H            2.469070000671    -0.974387627562    -0.846287181355
    H            3.168217419025     0.532338093817    -0.248403042987
    H            2.557066491222    -0.669416085805     0.891417933225

  Mulliken Charges: (a.u.)
   Center  Symbol    Alpha    Beta     Spin     Total
       1     H     0.28119  0.28119  0.00000  0.43763
       2     O     4.37078  4.37078  0.00000 -0.74155
       3     C     3.00482  3.00482  0.00000 -0.00965
       4     C     2.99655  2.99655  0.00000  0.00689
       5     H     0.42154  0.42154  0.00000  0.15692
       6     H     0.40906  0.40906  0.00000  0.18187
       7     O     4.30736  4.30736  0.00000 -0.61472
       8     H     0.43733  0.43733  0.00000  0.12533
       9     H     0.42382  0.42382  0.00000  0.15236
      10     C     3.08010  3.08010  0.00000 -0.16020
      11     H     0.42913  0.42913  0.00000  0.14174
      12     H     0.41068  0.41068  0.00000  0.17864
      13     H     0.42763  0.42763  0.00000  0.14474

   Total alpha = 21.00000, Total beta = 21.00000, Total charge =  0.00000
