                              Psi4 1.0.54 Driver

  ==> Input File <==

--------------------------------------------------------------------------
set {
	reference rhf
	basis cc-pvtz
}

set_num_threads( 4 )
memory 2 gb

molecule MOL {
0 1

H	 -0.627796	 2.995099	 2.331575
O	 -0.492445	 3.275128	 1.444916
C	 -0.308880	 2.166501	 0.609818
C	 1.056580	 1.539586	 0.810537
H	 -1.079240	 1.417847	 0.765356
H	 -0.396372	 2.520005	 -0.407562
O	 1.172093	 0.457955	 -0.054438
H	 1.168318	 1.214719	 1.846333
H	 1.828939	 2.280640	 0.615924
C	 2.395478	 -0.199028	 -0.000366
H	 2.505946	 -0.901710	 -0.823354
H	 3.174616	 0.545641	 -0.071768
H	 2.513730	 -0.742241	 0.934223

	symmetry c1
}
set optking {
	frozen_dihedral = ("
		4 7 10 13
	")
}

ee,wfn = optimize('scf', return_wfn=True)
oeprop( wfn, 'DIPOLE', 'QUADRUPOLE', 'MULLIKEN_CHARGES')
f=open( 'psi4out.xyz', 'w' )
f.write( "13  " )
f.write( str(ee) + "\n" )
f.write( MOL.save_string_xyz() )
f.close()
--------------------------------------------------------------------------

    Molecular point group: c1
  Charge       = 0
  Multiplicity = 1
  Basis Set: CC-PVTZ
  Basis Set:
  @DF-RHF Final Energy:  -268.06104307725082
    Total Energy =                       -268.0610430772508153
    Molecular point group: c1
  Basis Set: CC-PVTZ
  Basis Set:
  Basis Set: CC-PVTZ
  Basis Set:
  @DF-RHF Final Energy:  -268.06188212679342
    Total Energy =                       -268.0618821267934209
  Basis Set: CC-PVTZ
  Basis Set:
  Basis Set: CC-PVTZ
  Basis Set:
  @DF-RHF Final Energy:  -268.06210832986920
    Total Energy =                       -268.0621083298692042
  Basis Set: CC-PVTZ
  Basis Set:
  Charge       = 0
  Multiplicity = 1
  Basis Set: CC-PVTZ
  Basis Set:

    Orbital Energies (a.u.)
    -----------------------

    Doubly Occupied:

       1A    -20.555912     2A    -20.552877     3A    -11.269325
       4A    -11.267737     5A    -11.267474     6A     -1.391907
       7A     -1.369271     8A     -1.019801     9A     -0.914017
      10A     -0.842795    11A     -0.712188    12A     -0.676318
      13A     -0.662685    14A     -0.639897    15A     -0.597458
      16A     -0.571405    17A     -0.547039    18A     -0.491463
      19A     -0.483243    20A     -0.441708    21A     -0.424611

  @DF-RHF Final Energy:  -268.06210920686749

   => Energetics <=

    Nuclear Repulsion Energy =            190.4897691286499821
    One-Electron Energy =                -743.7054931381127290
    Two-Electron Energy =                 285.1536148025950297
    DFT Exchange-Correlation Energy =       0.0000000000000000
    Empirical Dispersion Energy =           0.0000000000000000
    PCM Polarization Energy =               0.0000000000000000
    EFP Energy =                            0.0000000000000000
    Total Energy =                       -268.0621092068677171
    Molecular point group: c1
  Basis Set: CC-PVTZ
  Basis Set:

  -Total Gradient:
     Atom            X                  Y                   Z
    ------   -----------------  -----------------  -----------------
       1        0.000003519711    -0.000016625262    -0.000006608032
       2        0.000082703084    -0.000060620273    -0.000051053428
       3       -0.000056452595    -0.000053284600    -0.000068627728
       4        0.000445422924     0.000623131442    -0.000556226353
       5        0.000000664364    -0.000002060435     0.000004433301
       6       -0.000023676153     0.000027803058    -0.000004910981
       7       -0.000676390176    -0.001180483668     0.000846395062
       8        0.000006848040     0.000005739907     0.000007578326
       9        0.000017288397    -0.000028311764    -0.000036590804
      10        0.000827347349     0.001685065628     0.000412056664
      11       -0.000030460423    -0.000000578757    -0.000007466917
      12       -0.000006202824     0.000010907697     0.000000737885
      13       -0.000590611696    -0.001010682966    -0.000539716992

  **** Optimization is complete! (in 4 steps) ****
    Final optimized geometry and variables:
    Molecular point group: c1

    Geometry (in Angstrom), charge = 0, multiplicity = 1:

    H           -1.369656245505     1.535363352255     1.758474550874
    O           -1.228225335960     1.822346800494     0.874977940485
    C           -1.057876303220     0.719544694952     0.029549704935
    C            0.297735996022     0.071365273494     0.229073295147
    H           -1.839636349221    -0.019275886283     0.174839406276
    H           -1.136225524136     1.084374592919    -0.984602916488
    O            0.402783105000    -0.999069798153    -0.651011677018
    H            0.399125944247    -0.268089239870     1.261431211910
    H            1.081501938676     0.803414672088     0.047634687134
    C            1.613322796200    -1.679750429828    -0.597183645365
    H            1.636229692781    -2.377535788293    -1.421769050036
    H            2.457670733868    -1.001494742323    -0.689533393113
    H            1.712659290815    -2.239489324227     0.330201976330

  Mulliken Charges: (a.u.)
   Center  Symbol    Alpha    Beta     Spin     Total
       1     H     0.39411  0.39411  0.00000  0.21177
       2     O     4.20209  4.20209  0.00000 -0.40418
       3     C     2.97346  2.97346  0.00000  0.05308
       4     C     2.96525  2.96525  0.00000  0.06951
       5     H     0.46670  0.46670  0.00000  0.06661
       6     H     0.45276  0.45276  0.00000  0.09449
       7     O     4.17566  4.17566  0.00000 -0.35132
       8     H     0.48277  0.48277  0.00000  0.03446
       9     H     0.46871  0.46871  0.00000  0.06259
      10     C     3.03173  3.03173  0.00000 -0.06346
      11     H     0.44633  0.44633  0.00000  0.10734
      12     H     0.47113  0.47113  0.00000  0.05774
      13     H     0.46931  0.46931  0.00000  0.06139

   Total alpha = 21.00000, Total beta = 21.00000, Total charge = -0.00000

*** Psi4 exiting successfully. Buy a developer a beer!
