                              Psi4 1.0.54 Driver

  ==> Input File <==

--------------------------------------------------------------------------
set {
	reference rhf
	basis cc-pvtz
}

set_num_threads( 4 )
memory 2 gb

molecule MOL {
0 1

O	 -2.374409	 1.338660	 -0.336961
C	 -2.104891	 0.204655	 -0.107126
C	 -0.881910	 -0.448129	 -0.720509
C	 -2.949910	 -0.638219	 0.818225
C	 -0.409639	 0.322587	 -1.959783
H	 -1.155667	 -1.456889	 -1.002594
H	 -0.079617	 -0.503079	 0.007620
C	 0.813831	 -0.319502	 -2.610435
H	 -1.231506	 0.371437	 -2.662901
H	 -0.170950	 1.347257	 -1.685233
C	 1.364121	 0.440506	 -3.818523
H	 0.567445	 -1.335784	 -2.907829
H	 1.601393	 -0.402825	 -1.866521
C	 0.433832	 0.473422	 -5.028629
H	 2.301861	 -0.020456	 -4.112570
H	 1.607560	 1.457446	 -3.522037
H	 0.169170	 -0.530820	 -5.343339
H	 0.913066	 0.965819	 -5.866871
H	 -0.485434	 1.007278	 -4.820715
H	 -3.440322	 -1.417144	 0.243099
H	 -3.694377	 -0.025850	 1.303346
H	 -2.331085	 -1.129829	 1.560495

	symmetry c1
}
set optking {
	frozen_dihedral = ("
		6 3 2 1
	")
}

ee,wfn = optimize('scf', return_wfn=True)
oeprop( wfn, 'DIPOLE', 'QUADRUPOLE', 'MULLIKEN_CHARGES')
f=open( 'psi4out.xyz', 'w' )
f.write( "22  " )
f.write( str(ee) + "\n" )
f.write( MOL.save_string_xyz() )
f.close()
--------------------------------------------------------------------------

    Molecular point group: c1
  Charge       = 0
  Multiplicity = 1
  Basis Set: CC-PVTZ
  Basis Set:
  @DF-RHF Final Energy:  -348.22370083827661
    Total Energy =                       -348.2237008382769545
    Molecular point group: c1
  Basis Set: CC-PVTZ
  Basis Set:
  Basis Set: CC-PVTZ
  Basis Set:
  @DF-RHF Final Energy:  -348.22461187184081
    Total Energy =                       -348.2246118718402386
  Basis Set: CC-PVTZ
  Basis Set:
  Basis Set: CC-PVTZ
  Basis Set:
  @DF-RHF Final Energy:  -348.22198272153622
    Total Energy =                       -348.2219827215361647
  Basis Set: CC-PVTZ
  Basis Set:
  Basis Set: CC-PVTZ
  Basis Set:
  @DF-RHF Final Energy:  -348.22487380433387
    Total Energy =                       -348.2248738043334697
  Basis Set: CC-PVTZ
  Basis Set:
  @DF-RHF Final Energy:  -348.22504123650560
    Total Energy =                       -348.2250412365054899
  Basis Set: CC-PVTZ
  Basis Set:
  @DF-RHF Final Energy:  -348.22505573965498
    Total Energy =                       -348.2250557396544650
  Basis Set: CC-PVTZ
  Basis Set:
  Basis Set: CC-PVTZ
  Basis Set:
  @DF-RHF Final Energy:  -348.22503927588627
    Total Energy =                       -348.2250392758863882
  Basis Set: CC-PVTZ
  Basis Set:
  Basis Set: CC-PVTZ
  Basis Set:
  @DF-RHF Final Energy:  -348.22506269901498
    Total Energy =                       -348.2250626990148135
  Basis Set: CC-PVTZ
  Basis Set:
  Charge       = 0
  Multiplicity = 1
  Basis Set: CC-PVTZ
  Basis Set:

    Orbital Energies (a.u.)
    -----------------------

    Doubly Occupied:

       1A    -20.538397     2A    -11.320623     3A    -11.230265
       4A    -11.226839     5A    -11.215936     6A    -11.215113
       7A    -11.214563     8A    -11.206324     9A     -1.398673
      10A     -1.092198    11A     -1.044240    12A     -1.001991
      13A     -0.936000    14A     -0.855342    15A     -0.782203
      16A     -0.732016    17A     -0.655867    18A     -0.653297
      19A     -0.632347    20A     -0.612787    21A     -0.604402
      22A     -0.580608    23A     -0.559888    24A     -0.549017
      25A     -0.523178    26A     -0.515042    27A     -0.499428
      28A     -0.485677    29A     -0.465242    30A     -0.463345
      31A     -0.459102    32A     -0.401305

  @DF-RHF Final Energy:  -348.22506322335863

   => Energetics <=

    Nuclear Repulsion Energy =            372.9036764085215623
    One-Electron Energy =               -1210.9149726752416427
    Two-Electron Energy =                 489.7862330433613351
    DFT Exchange-Correlation Energy =       0.0000000000000000
    Empirical Dispersion Energy =           0.0000000000000000
    PCM Polarization Energy =               0.0000000000000000
    EFP Energy =                            0.0000000000000000
    Total Energy =                       -348.2250632233588021
    Molecular point group: c1
  Basis Set: CC-PVTZ
  Basis Set:

  -Total Gradient:
     Atom            X                  Y                   Z
    ------   -----------------  -----------------  -----------------
       1        0.000497634412     0.000279933042     0.000576970183
       2       -0.000599635935    -0.000457565447    -0.000612142684
       3       -0.000162093024     0.000391551934    -0.000626049318
       4       -0.000065726515     0.000002376513    -0.000072179997
       5       -0.000008341837    -0.000008173322     0.000001374862
       6        0.000290397261    -0.000217021992     0.000692599096
       7        0.000000483880    -0.000000813785     0.000001171147
       8        0.000004281262     0.000002547662    -0.000000959865
       9        0.000001585705    -0.000001870708     0.000005538225
      10       -0.000000079360     0.000000193597    -0.000002725691
      11       -0.000006118141     0.000002490239     0.000004224820
      12       -0.000004132386     0.000002186915    -0.000000416686
      13       -0.000001068190    -0.000003320701     0.000000158489
      14        0.000003435254     0.000002608750    -0.000003355638
      15       -0.000001036672     0.000001653863     0.000001737794
      16       -0.000000854021     0.000000816619    -0.000002125431
      17       -0.000000484829    -0.000000224879     0.000001219121
      18       -0.000000363764    -0.000001486420     0.000000049215
      19        0.000005394958    -0.000001294270    -0.000002604458
      20        0.000022127365    -0.000011055398     0.000024766819
      21        0.000006619003     0.000000968208     0.000007793794
      22        0.000017975570     0.000015499576     0.000004956204

  **** Optimization is complete! (in 9 steps) ****
    Final optimized geometry and variables:
    Molecular point group: c1

    Geometry (in Angstrom), charge = 0, multiplicity = 1:

    O           -1.670769448590     1.141544873839     1.440075668373
    C           -1.316151535875     0.030184366414     1.662083915068
    C           -0.127727282812    -0.595062501008     0.960171694188
    C           -2.020835050659    -0.833634656925     2.682611500874
    C            0.341026304826     0.157241629394    -0.277860296722
    H           -0.367119280228    -1.628817210085     0.726340006983
    H            0.670701697357    -0.646126188851     1.698866314179
    C            1.557107623023    -0.499078508226    -0.928524974876
    H           -0.480036757428     0.216258109530    -0.982182134257
    H            0.576494307095     1.178479253714    -0.003157588773
    C            2.119051258551     0.257981063609    -2.133018719955
    H            1.304773036949    -1.513273255551    -1.231253428238
    H            2.344015006485    -0.592906350957    -0.184550915815
    C            1.190619605221     0.308293205108    -3.343936821237
    H            3.051510543226    -0.213002775086    -2.428571139851
    H            2.373195936497     1.270440948303    -1.831456057971
    H            0.912082841150    -0.691162875874    -3.662985583993
    H            1.677543638267     0.796667463011    -4.180179724403
    H            0.279570088173     0.855181864634    -3.134269126621
    H           -2.545053679455    -1.635840322403     2.173644353977
    H           -2.729319965590    -0.241179219201     3.240876462228
    H           -1.306718807497    -1.292350318709     3.357082890852

  Mulliken Charges: (a.u.)
   Center  Symbol    Alpha    Beta     Spin     Total
       1     O     4.17203  4.17203  0.00000 -0.34405
       2     C     2.86112  2.86112  0.00000  0.27776
       3     C     3.11318  3.11318  0.00000 -0.22635
       4     C     3.15210  3.15210  0.00000 -0.30421
       5     C     3.08683  3.08683  0.00000 -0.17366
       6     H     0.44538  0.44538  0.00000  0.10925
       7     H     0.44409  0.44409  0.00000  0.11182
       8     C     3.09595  3.09595  0.00000 -0.19190
       9     H     0.44781  0.44781  0.00000  0.10437
      10     H     0.44223  0.44223  0.00000  0.11554
      11     C     3.09000  3.09000  0.00000 -0.18001
      12     H     0.45539  0.45539  0.00000  0.08923
      13     H     0.45032  0.45032  0.00000  0.09935
      14     C     3.15281  3.15281  0.00000 -0.30563
      15     H     0.44865  0.44865  0.00000  0.10271
      16     H     0.45338  0.45338  0.00000  0.09325
      17     H     0.45589  0.45589  0.00000  0.08821
      18     H     0.44625  0.44625  0.00000  0.10750
      19     H     0.45122  0.45122  0.00000  0.09756
      20     H     0.44883  0.44883  0.00000  0.10234
      21     H     0.43570  0.43570  0.00000  0.12861
      22     H     0.45085  0.45085  0.00000  0.09829

   Total alpha = 32.00000, Total beta = 32.00000, Total charge = -0.00000

*** Psi4 exiting successfully. Buy a developer a beer!
