  ==> Input File <==

--------------------------------------------------------------------------
set {
	reference rhf
	basis 6-31G*
}

set_num_threads( 4 )
memory 2 gb

molecule MOL {
0 1

O	 1.055560	 4.192703	 -1.026088
C	 0.058862	 4.534587	 -1.585074
C	 -1.206828	 3.696319	 -1.568537
C	 -0.007106	 5.838500	 -2.353590
C	 -1.080693	 2.395291	 -0.781357
H	 -2.009689	 4.313067	 -1.166760
H	 -1.487093	 3.495532	 -2.601754
C	 -2.374195	 1.578845	 -0.787037
H	 -0.792842	 2.623915	 0.239918
H	 -0.269832	 1.805314	 -1.196783
C	 -2.259874	 0.272531	 0.000494
H	 -3.183846	 2.177650	 -0.372377
H	 -2.657975	 1.354452	 -1.814258
C	 -3.549786	 -0.549746	 -0.000374
H	 -1.976921	 0.495686	 1.027703
H	 -1.451367	 -0.327267	 -0.413698
C	 -4.809590	 0.315458	 -0.000369
H	 -3.560515	 -1.202009	 -0.871156
H	 -3.561123	 -1.202955	 0.869711
H	 -4.844746	 0.956611	 -0.876632
H	 -5.706986	 -0.295590	 -0.001609
H	 -4.845960	 0.954827	 0.877144
H	 -0.785219	 6.478540	 -1.947996
H	 0.945582	 6.346040	 -2.293402
H	 -0.253413	 5.652263	 -3.394880

	symmetry c1
}
set optking {
	frozen_dihedral = ("
		15 11 14 18
	")
}

ee = optimize('scf')
oeprop('DIPOLE', 'QUADRUPOLE', 'MULLIKEN_CHARGES')
f=open( 'psi4out.xyz', 'w' )
f.write( "25  " )
f.write( str(ee) + "\n" )
f.write( MOL.save_string_xyz() )
f.close()
--------------------------------------------------------------------------

    Molecular point group: c1
  Charge       = 0
  Multiplicity = 1
  Basis Set: 6-31G*
  Basis Set:
  @DF-RHF Final Energy:  -387.12928792249113
    Total Energy =                       -387.1292879224913577
    Molecular point group: c1
  Basis Set: 6-31G*
  Basis Set:
  Basis Set: 6-31G*
  Basis Set:
  @DF-RHF Final Energy:  -387.13047254263603
    Total Energy =                       -387.1304725426359710
  Basis Set: 6-31G*
  Basis Set:
  Basis Set: 6-31G*
  Basis Set:
  @DF-RHF Final Energy:  -387.13192213438032
    Total Energy =                       -387.1319221343807158
  Basis Set: 6-31G*
  Basis Set:
  Basis Set: 6-31G*
  Basis Set:
  @DF-RHF Final Energy:  -387.13204747925283
    Total Energy =                       -387.1320474792535151
  Basis Set: 6-31G*
  Basis Set:
  @DF-RHF Final Energy:  -387.13204219158530
    Total Energy =                       -387.1320421915845600
  Basis Set: 6-31G*
  Basis Set:
  @DF-RHF Final Energy:  -387.13192703293868
    Total Energy =                       -387.1319270329381652
  Basis Set: 6-31G*
  Basis Set:
  Basis Set: 6-31G*
  Basis Set:
  @DF-RHF Final Energy:  -387.13206313020493
    Total Energy =                       -387.1320631302048696
  Basis Set: 6-31G*
  Basis Set:
  Basis Set: 6-31G*
  Basis Set:
  @DF-RHF Final Energy:  -387.13206941905838
    Total Energy =                       -387.1320694190577569
  Basis Set: 6-31G*
  Basis Set:
  Charge       = 0
  Multiplicity = 1
  Basis Set: 6-31G*
  Basis Set:

    Orbital Energies (a.u.)
    -----------------------

    Doubly Occupied:

       1A    -20.550446     2A    -11.326290     3A    -11.231844
       4A    -11.228333     5A    -11.216986     6A    -11.216380
       7A    -11.215719     8A    -11.213740     9A    -11.209327
      10A     -1.395750    11A     -1.093122    12A     -1.054824
      13A     -1.013351    14A     -0.966970    15A     -0.897649
      16A     -0.826192    17A     -0.774500    18A     -0.729347
      19A     -0.659003    20A     -0.652211    21A     -0.627007
      22A     -0.623015    23A     -0.602409    24A     -0.592638
      25A     -0.562836    26A     -0.556575    27A     -0.547589
      28A     -0.521746    29A     -0.511582    30A     -0.494836
      31A     -0.489707    32A     -0.476989    33A     -0.457971
      34A     -0.453586    35A     -0.451484    36A     -0.399526

  @DF-RHF Final Energy:  -387.13207017134209

   => Energetics <=

    Nuclear Repulsion Energy =            443.0984436773039761
    One-Electron Energy =               -1402.7780633621964625
    Two-Electron Energy =                 572.5475495135506208
    DFT Exchange-Correlation Energy =       0.0000000000000000
    Empirical Dispersion Energy =           0.0000000000000000
    PCM Polarization Energy =               0.0000000000000000
    EFP Energy =                            0.0000000000000000
    Total Energy =                       -387.1320701713418657
    Molecular point group: c1
  Basis Set: 6-31G*
  Basis Set:

  -Total Gradient:
     Atom            X                  Y                   Z
    ------   -----------------  -----------------  -----------------
       1       -0.000001558154     0.000002684772     0.000001808892
       2        0.000000504606     0.000001955782    -0.000008543568
       3        0.000007427844    -0.000009085970    -0.000018275187
       4        0.000002837059     0.000005453595     0.000005024167
       5       -0.000006619677    -0.000000090564     0.000014906495
       6        0.000006610758    -0.000008544125     0.000002196639
       7       -0.000003237918     0.000006515011    -0.000006684223
       8       -0.000009333091    -0.000007091165     0.000000065943
       9        0.000004452444    -0.000012176400     0.000008440546
      10       -0.000004183382     0.000013365249    -0.000004444521
      11       -0.003357958153     0.004521881668     0.000521852353
      12       -0.000003720419     0.000006516287     0.000002704245
      13       -0.000007514134     0.000001481204     0.000000144781
      14       -0.002558035234     0.003674779017    -0.003462959921
      15        0.003222122500    -0.004411149154     0.000106447011
      16        0.000006344807     0.000009949928     0.000008097574
      17       -0.000002617054     0.000010443139     0.000023957150
      18        0.002715697806    -0.003818804442     0.002826723911
      19       -0.000004334199     0.000000088027    -0.000010092481
      20        0.000005952633     0.000003601498    -0.000008326292
      21       -0.000002519262    -0.000001967591     0.000002593767
      22       -0.000011665478     0.000008805631    -0.000003445814
      23        0.000001876871    -0.000001845590    -0.000000940875
      24       -0.000000217458     0.000003773678     0.000000154091
      25       -0.000000313709    -0.000000539494    -0.000001404680

  **** Optimization is complete! (in 9 steps) ****
    Final optimized geometry and variables:
    Molecular point group: c1

    Geometry (in Angstrom), charge = 0, multiplicity = 1:

    O            2.680626604063     1.678954377807    -0.147227549421
    C            1.691242938905     2.051154665265    -0.699796624975
    C            0.400049678810     1.252947126560    -0.673270700198
    C            1.660737318742     3.355605259745    -1.469640639933
    C            0.490847526227    -0.050220565800     0.115267446803
    H           -0.380187598725     1.895292645382    -0.267107966527
    H            0.106574420516     1.059530559430    -1.704249275631
    C           -0.827469558229    -0.826646077617     0.118199276260
    H            0.790648180237     0.170936924963     1.134866115496
    H            1.281408341513    -0.664793757625    -0.303270377023
    C           -0.737449102204    -2.125380347623     0.920648235237
    H           -1.614597471055    -0.194325918545     0.521476938262
    H           -1.115399624696    -1.056227998494    -0.907169796815
    C           -1.976560945152    -3.037482351765     0.870375636651
    H           -0.483823134211    -1.913578178048     1.957413590869
    H            0.108036477200    -2.699909240332     0.546541749921
    C           -3.329954967852    -2.333288891048     0.960919431140
    H           -1.931098104887    -3.662205463106    -0.018668715935
    H           -1.900362749793    -3.738406177647     1.698862322269
    H           -3.518161311440    -1.699537436593     0.100779355779
    H           -4.134354329995    -3.060446003140     1.012841357214
    H           -3.390932691273    -1.711796709364     1.850344849721
    H            0.906045830090     4.020219451538    -1.059348664591
    H            2.629272710422     3.833082704365    -1.416932081670
    H            1.401220769863     3.176042963563    -2.508900344597

  Mulliken Charges: (a.u.)
   Center  Symbol    Alpha    Beta     Spin     Total
       1     O     4.26116  4.26116  0.00000 -0.52232
       2     C     2.73571  2.73571  0.00000  0.52857
       3     C     3.21076  3.21076  0.00000 -0.42151
       4     C     3.28665  3.28665  0.00000 -0.57330
       5     C     3.14802  3.14802  0.00000 -0.29605
       6     H     0.41004  0.41004  0.00000  0.17992
       7     H     0.41007  0.41007  0.00000  0.17985
       8     C     3.15629  3.15629  0.00000 -0.31257
       9     H     0.41211  0.41211  0.00000  0.17578
      10     H     0.41211  0.41211  0.00000  0.17579
      11     C     3.15402  3.15402  0.00000 -0.30804
      12     H     0.42201  0.42201  0.00000  0.15598
      13     H     0.42497  0.42497  0.00000  0.15005
      14     C     3.15275  3.15275  0.00000 -0.30551
      15     H     0.42166  0.42166  0.00000  0.15667
      16     H     0.42102  0.42102  0.00000  0.15796
      17     C     3.24213  3.24213  0.00000 -0.48426
      18     H     0.42234  0.42234  0.00000  0.15532
      19     H     0.42098  0.42098  0.00000  0.15805
      20     H     0.42040  0.42040  0.00000  0.15921
      21     H     0.41895  0.41895  0.00000  0.16209
      22     H     0.42194  0.42194  0.00000  0.15612
      23     H     0.40873  0.40873  0.00000  0.18253
      24     H     0.39646  0.39646  0.00000  0.20709
      25     H     0.40871  0.40871  0.00000  0.18258

   Total alpha = 36.00000, Total beta = 36.00000, Total charge =  0.00000
