  ==> Input File <==

--------------------------------------------------------------------------
set {
	reference rhf
	basis 6-31G*
}

set_num_threads( 4 )
memory 2 gb

molecule MOL {
0 1

O	 -0.750612	 -1.332194	 0.095278
C	 0.405764	 -1.268246	 0.363170
C	 1.245376	 -0.013843	 0.345420
O	 1.126917	 -2.323021	 0.722362
C	 0.455112	 1.231400	 -0.050772
H	 1.692330	 0.083916	 1.329221
H	 2.071170	 -0.187526	 -0.339851
C	 -0.998893	 1.219485	 0.433193
H	 0.482531	 1.345121	 -1.130325
H	 0.957290	 2.103070	 0.354729
C	 -1.883438	 0.145884	 -0.207175
H	 -1.431207	 2.195402	 0.224832
H	 -1.019646	 1.105716	 1.516076
C	 -3.347647	 0.245583	 0.225435
H	 -1.822183	 0.231698	 -1.291012
H	 -1.510341	 -0.844814	 0.042401
C	 -4.239992	 -0.825570	 -0.404234
H	 -3.732888	 1.230466	 -0.033079
H	 -3.408585	 0.170602	 1.310038
C	 -5.701275	 -0.716658	 0.029921
H	 -4.179496	 -0.752714	 -1.488058
H	 -3.859041	 -1.810759	 -0.143352
H	 -6.308102	 -1.488908	 -0.432678
H	 -6.122175	 0.245478	 -0.248167
H	 -5.799072	 -0.820114	 1.106957
C	 0.458110	 -3.569806	 0.778128
H	 -0.348738	 -3.536532	 1.496037
H	 1.201106	 -4.289896	 1.083796
H	 0.059933	 -3.831322	 -0.191718

	symmetry c1
}
set optking {
	frozen_dihedral = ("
		6 3 5 9
	")
}

ee = optimize('scf')
oeprop('DIPOLE', 'QUADRUPOLE', 'MULLIKEN_CHARGES')
f=open( 'psi4out.xyz', 'w' )
f.write( "29  " )
f.write( str(ee) + "\n" )
f.write( MOL.save_string_xyz() )
f.close()
--------------------------------------------------------------------------

    Molecular point group: c1
  Charge       = 0
  Multiplicity = 1
  Basis Set: 6-31G*
  Basis Set:
  @DF-RHF Final Energy:  -500.73138317995415
    Total Energy =                       -500.7313831799542641
    Molecular point group: c1
  Basis Set: 6-31G*
  Basis Set:
  Basis Set: 6-31G*
  Basis Set:
  @DF-RHF Final Energy:  -500.90138461553215
    Total Energy =                       -500.9013846155316969
  Basis Set: 6-31G*
  Basis Set:
  Basis Set: 6-31G*
  Basis Set:
  @DF-RHF Final Energy:  -500.95238309526030
    Total Energy =                       -500.9523830952603021
  Basis Set: 6-31G*
  Basis Set:
  Basis Set: 6-31G*
  Basis Set:
  @DF-RHF Final Energy:  -500.99725263863729
    Total Energy =                       -500.9972526386368372
  Basis Set: 6-31G*
  Basis Set:
  @DF-RHF Final Energy:  -501.01652270207205
    Total Energy =                       -501.0165227020718248
  @DF-RHF Final Energy:  -501.02463502402782
    Total Energy =                       -501.0246350240280435
  @DF-RHF Final Energy:  -501.02950934632565
    Total Energy =                       -501.0295093463250851
  @DF-RHF Final Energy:  -501.03191897506656
    Total Energy =                       -501.0319189750666737
  @DF-RHF Final Energy:  -501.03311650030969
    Total Energy =                       -501.0331165003094611
  @DF-RHF Final Energy:  -501.03439614351305
    Total Energy =                       -501.0343961435133906
  @DF-RHF Final Energy:  -501.03523075483554
    Total Energy =                       -501.0352307548358795
  @DF-RHF Final Energy:  -501.03554752132698
    Total Energy =                       -501.0355475213279988
  @DF-RHF Final Energy:  -501.03574613921410
    Total Energy =                       -501.0357461392138703
  @DF-RHF Final Energy:  -501.03579019802589
    Total Energy =                       -501.0357901980255519
  @DF-RHF Final Energy:  -501.03583007725524
    Total Energy =                       -501.0358300772550137
  @DF-RHF Final Energy:  -501.03586750837940
    Total Energy =                       -501.0358675083800790
  @DF-RHF Final Energy:  -501.03590245821579
    Total Energy =                       -501.0359024582154461
  @DF-RHF Final Energy:  -501.03597848428819
    Total Energy =                       -501.0359784842888757
  @DF-RHF Final Energy:  -501.03601738223745
    Total Energy =                       -501.0360173822375600
  @DF-RHF Final Energy:  -501.03602386827606
    Total Energy =                       -501.0360238682765157
  @DF-RHF Final Energy:  -501.03606801368426
    Total Energy =                       -501.0360680136839164
  @DF-RHF Final Energy:  -501.03607117731497
    Total Energy =                       -501.0360711773148523
  @DF-RHF Final Energy:  -501.03607553014353
    Total Energy =                       -501.0360755301435347
  @DF-RHF Final Energy:  -501.03596265228884
    Total Energy =                       -501.0359626522888448
  @DF-RHF Final Energy:  -501.03607817383079
    Total Energy =                       -501.0360781738309015
  @DF-RHF Final Energy:  -501.03605486127992
    Total Energy =                       -501.0360548612793536
  @DF-RHF Final Energy:  -501.03608416618260
    Total Energy =                       -501.0360841661822633
  @DF-RHF Final Energy:  -501.03608634623117
    Total Energy =                       -501.0360863462310590
  @DF-RHF Final Energy:  -501.03606744557044
    Total Energy =                       -501.0360674455708931
  @DF-RHF Final Energy:  -501.03608908343824
    Total Energy =                       -501.0360890834375596
  @DF-RHF Final Energy:  -501.03609120119336
    Total Energy =                       -501.0360912011939263
  @DF-RHF Final Energy:  -501.03609382912794
    Total Energy =                       -501.0360938291273669
  @DF-RHF Final Energy:  -501.03609245428379
    Total Energy =                       -501.0360924542840166
  @DF-RHF Final Energy:  -501.03609640350589
    Total Energy =                       -501.0360964035060078
  @DF-RHF Final Energy:  -501.03609723748582
    Total Energy =                       -501.0360972374860467
  @DF-RHF Final Energy:  -501.03609730699736
    Total Energy =                       -501.0360973069975898
  Basis Set: 6-31G*
  Basis Set:
  @DF-RHF Final Energy:  -501.03609720962868
    Total Energy =                       -501.0360972096290197
  Basis Set: 6-31G*
  Basis Set:
  Basis Set: 6-31G*
  Basis Set:
  @DF-RHF Final Energy:  -501.03609468068373
    Total Energy =                       -501.0360946806831635
  Basis Set: 6-31G*
  Basis Set:
  Basis Set: 6-31G*
  Basis Set:
  @DF-RHF Final Energy:  -501.03609141113475
    Total Energy =                       -501.0360914111345210
  Basis Set: 6-31G*
  Basis Set:
  Charge       = 0
  Multiplicity = 1
  Basis Set: 6-31G*
  Basis Set:

    Orbital Energies (a.u.)
    -----------------------

    Doubly Occupied:

       1A    -20.605982     2A    -20.545559     3A    -11.374189
       4A    -11.281946     5A    -11.236332     6A    -11.223227
       7A    -11.212172     8A    -11.207508     9A    -11.204713
      10A    -11.202729    11A    -11.201756    12A     -1.471161
      13A     -1.363600    14A     -1.089684    15A     -1.061583
      16A     -1.015369    17A     -0.975532    18A     -0.924100
      19A     -0.855780    20A     -0.801814    21A     -0.781938
      22A     -0.765379    23A     -0.697159    24A     -0.682292
      25A     -0.671702    26A     -0.644743    27A     -0.617639
      28A     -0.611791    29A     -0.585366    30A     -0.577103
      31A     -0.560033    32A     -0.546275    33A     -0.535603
      34A     -0.524510    35A     -0.514371    36A     -0.501660
      37A     -0.498109    38A     -0.471715    39A     -0.462891
      40A     -0.457301    41A     -0.453541    42A     -0.449952
      43A     -0.441953    44A     -0.425143

  @DF-RHF Final Energy:  -501.03609221945624

   => Energetics <=

    Nuclear Repulsion Energy =            632.0742874964936391
    One-Electron Energy =               -1935.5549446802281182
    Two-Electron Energy =                 802.4445649642782428
    DFT Exchange-Correlation Energy =       0.0000000000000000
    Empirical Dispersion Energy =           0.0000000000000000
    PCM Polarization Energy =               0.0000000000000000
    EFP Energy =                            0.0000000000000000
    Total Energy =                       -501.0360922194561226
    Molecular point group: c1
  Basis Set: 6-31G*
  Basis Set:

  -Total Gradient:
     Atom            X                  Y                   Z
    ------   -----------------  -----------------  -----------------
       1       -0.000009736468    -0.000193305291     0.000153236316
       2       -0.000456252133     0.000511834371    -0.000255992320
       3       -0.003068635807    -0.002944737683     0.004085641466
       4       -0.000356980395    -0.000176581890     0.000388919862
       5       -0.004464705979    -0.003307000188    -0.000357482627
       6        0.003855793176     0.003109139321    -0.003470835522
       7       -0.000273002666    -0.000319054516    -0.000221795551
       8       -0.000031450962    -0.000220745052    -0.000401891627
       9        0.004508076740     0.004027097910    -0.000643076764
      10       -0.000185605133    -0.000200557057     0.000291150857
      11        0.000224271251    -0.000135042464     0.000446236800
      12        0.000051772137    -0.000159119115     0.000221331330
      13       -0.000199275063     0.000109290906     0.000239210847
      14       -0.000004635777     0.000088635718    -0.000011397504
      15        0.000148709304     0.000194651339    -0.000035836430
      16        0.000088461869    -0.000260909448    -0.000216434602
      17       -0.000128090369    -0.000042987888     0.000160516503
      18        0.000013826225    -0.000072527148    -0.000071206603
      19       -0.000049011886    -0.000008770953    -0.000034853001
      20       -0.000112913115     0.000042221714    -0.000019100159
      21        0.000014706522     0.000025396335    -0.000021547276
      22       -0.000008566543    -0.000005086232     0.000016018490
      23        0.000003636716    -0.000001396790     0.000005197973
      24        0.000028541054    -0.000005429983    -0.000027763632
      25        0.000078158003    -0.000028807112    -0.000021939146
      26        0.000310796638    -0.000366843067    -0.000108948705
      27        0.000022840919     0.000358726431    -0.000058258566
      28        0.000015790580     0.000086071308    -0.000016182639
      29       -0.000016518832    -0.000104163471    -0.000012917769

    Molecular point group: c1

    Geometry (in Angstrom), charge = 0, multiplicity = 1:

    O            1.121550593814    -1.349182607078    -0.451227326638
    C            2.010187788985    -0.818805390494     0.135852986640
    C            2.447498068119     0.611523746135    -0.053385200098
    O            2.776957452315    -1.453044549335     1.011883180784
    C            1.353625062513     1.594991656576    -0.502096787121
    H            2.963697723268     0.966935675006     0.829667480751
    H            3.216734064694     0.569068903925    -0.823333678238
    C           -0.007454636802     1.490609252475     0.221585359568
    H            1.235965651652     1.527280635437    -1.577983707578
    H            1.766277503113     2.586207778607    -0.337399171771
    C           -1.162637631017     1.094775891904    -0.700659102489
    H           -0.239717833096     2.446491905256     0.684061394138
    H            0.052335388955     0.778158882715     1.040032314086
    C           -2.501713849578     0.987569410253     0.029735514740
    H           -1.246642755361     1.834983203803    -1.495864342559
    H           -0.927312233900     0.148352092040    -1.176752796805
    C           -3.663869750102     0.609398098254    -0.890494108741
    H           -2.726746576900     1.934126388464     0.519619284245
    H           -2.419226289987     0.245873438897     0.822850950027
    C           -4.998098385343     0.495822533262    -0.153712971533
    H           -3.751583647281     1.350130239581    -1.682740703170
    H           -3.440434629617    -0.335745970824    -1.380144963488
    H           -5.802009951677     0.226825513745    -0.832207164346
    H           -5.265778657731     1.436362427880     0.319922193167
    H           -4.952691404340    -0.263029169386     0.622621699652
    C            2.515006586411    -2.829602813563     1.218630870420
    H            1.510063561467    -2.970091998710     1.588700292541
    H            3.234303800429    -3.159069183539     1.951972391862
    H            2.636715458278    -3.383342192381     0.298773001248

  Mulliken Charges: (a.u.)
   Center  Symbol    Alpha    Beta     Spin     Total
       1     O     4.28832  4.28832  0.00000 -0.57664
       2     C     2.60440  2.60440  0.00000  0.79120
       3     C     3.21231  3.21231  0.00000 -0.42462
       4     O     4.30539  4.30539  0.00000 -0.61079
       5     C     3.15426  3.15426  0.00000 -0.30852
       6     H     0.39924  0.39924  0.00000  0.20153
       7     H     0.39904  0.39904  0.00000  0.20191
       8     C     3.15717  3.15717  0.00000 -0.31434
       9     H     0.41105  0.41105  0.00000  0.17790
      10     H     0.41676  0.41676  0.00000  0.16647
      11     C     3.15608  3.15608  0.00000 -0.31216
      12     H     0.42152  0.42152  0.00000  0.15695
      13     H     0.42130  0.42130  0.00000  0.15739
      14     C     3.15186  3.15186  0.00000 -0.30372
      15     H     0.42793  0.42793  0.00000  0.14415
      16     H     0.40244  0.40244  0.00000  0.19513
      17     C     3.15125  3.15125  0.00000 -0.30250
      18     H     0.42719  0.42719  0.00000  0.14562
      19     H     0.42376  0.42376  0.00000  0.15248
      20     C     3.23895  3.23895  0.00000 -0.47790
      21     H     0.42449  0.42449  0.00000  0.15102
      22     H     0.42104  0.42104  0.00000  0.15791
      23     H     0.42041  0.42041  0.00000  0.15917
      24     H     0.42306  0.42306  0.00000  0.15387
      25     H     0.42227  0.42227  0.00000  0.15546
      26     C     3.09277  3.09277  0.00000 -0.18554
      27     H     0.40861  0.40861  0.00000  0.18279
      28     H     0.40809  0.40809  0.00000  0.18383
      29     H     0.40903  0.40903  0.00000  0.18195

   Total alpha = 44.00000, Total beta = 44.00000, Total charge =  0.00000
