  ==> Input File <==

--------------------------------------------------------------------------
set {
	reference rhf
	basis cc-pvtz
}

set_num_threads( 4 )
memory 2 gb

molecule MOL {
0 1

H	 -2.123894	 -0.667238	 -0.609809
O	 -2.041679	 -0.058866	 0.103463
C	 -0.959304	 0.780994	 -0.094939
C	 0.354905	 0.037902	 -0.006215
H	 -0.985899	 1.279578	 -1.057596
H	 -0.969809	 1.529522	 0.682889
F	 0.659299	 -0.524764	 -1.162305
F	 1.329712	 0.867813	 0.301351
F	 0.334784	 -0.911473	 0.898359

	symmetry c1
}
set optking {
	frozen_dihedral = ("
		7 4 3 5
	")
}

ee = optimize('scf')
oeprop('DIPOLE', 'QUADRUPOLE', 'MULLIKEN_CHARGES')
f=open( 'psi4out.xyz', 'w' )
f.write( "9  " )
f.write( str(ee) + "\n" )
f.write( MOL.save_string_xyz() )
f.close()
--------------------------------------------------------------------------

    Molecular point group: c1
  Charge       = 0
  Multiplicity = 1
  Basis Set: CC-PVTZ
  Basis Set:
  @DF-RHF Final Energy:  -450.84424146455876
    Total Energy =                       -450.8442414645585359
    Molecular point group: c1
  Basis Set: CC-PVTZ
  Basis Set:
  Basis Set: CC-PVTZ
  Basis Set:
  @DF-RHF Final Energy:  -450.84449435990484
    Total Energy =                       -450.8444943599045587
  Basis Set: CC-PVTZ
  Basis Set:
  Basis Set: CC-PVTZ
  Basis Set:
  @DF-RHF Final Energy:  -450.84459531812433
    Total Energy =                       -450.8445953181242203
  Basis Set: CC-PVTZ
  Basis Set:
  Basis Set: CC-PVTZ
  Basis Set:
  @DF-RHF Final Energy:  -450.84460310763421
    Total Energy =                       -450.8446031076341569
  Basis Set: CC-PVTZ
  Basis Set:
  Basis Set: CC-PVTZ
  Basis Set:
  @DF-RHF Final Energy:  -450.84460488543573
    Total Energy =                       -450.8446048854361266
  Basis Set: CC-PVTZ
  Basis Set:
  Charge       = 0
  Multiplicity = 1
  Basis Set: CC-PVTZ
  Basis Set:

    Orbital Energies (a.u.)
    -----------------------

    Doubly Occupied:

       1A    -26.337329     2A    -26.336877     3A    -26.336065
       4A    -20.583048     5A    -11.493060     6A    -11.310346
       7A     -1.746671     8A     -1.643720     9A     -1.641028
      10A     -1.405860    11A     -1.048519    12A     -0.929173
      13A     -0.837093    14A     -0.834102    15A     -0.808587
      16A     -0.734428    17A     -0.717667    18A     -0.703213
      19A     -0.669275    20A     -0.665064    21A     -0.647859
      22A     -0.632278    23A     -0.615711    24A     -0.534113
      25A     -0.484251

  @DF-RHF Final Energy:  -450.84460501502701

   => Energetics <=

    Nuclear Repulsion Energy =            277.1557531158712209
    One-Electron Energy =               -1176.6100423152774965
    Two-Electron Energy =                 448.6096841843794891
    DFT Exchange-Correlation Energy =       0.0000000000000000
    Empirical Dispersion Energy =           0.0000000000000000
    PCM Polarization Energy =               0.0000000000000000
    EFP Energy =                            0.0000000000000000
    Total Energy =                       -450.8446050150267865
    Molecular point group: c1
  Basis Set: CC-PVTZ
  Basis Set:

  -Total Gradient:
     Atom            X                  Y                   Z
    ------   -----------------  -----------------  -----------------
       1        0.000013487488     0.000001579352    -0.000005162981
       2       -0.000025056604    -0.000001680202     0.000016054286
       3        0.003575403549     0.006540466643     0.002125629228
       4       -0.003407058905    -0.005907240424     0.001349774243
       5       -0.002350496712    -0.004413684353    -0.002120595755
       6       -0.000021960207    -0.000013194397     0.000012606744
       7        0.002200996287     0.003748098535    -0.001329046223
       8        0.000023362916     0.000037735424    -0.000012044760
       9       -0.000008677814     0.000007919423    -0.000037214779

  **** Optimization is complete! (in 6 steps) ****
    Final optimized geometry and variables:
    Molecular point group: c1

    Geometry (in Angstrom), charge = 0, multiplicity = 1:

    H           -2.171739972442    -0.624849965035    -0.663110136413
    O           -2.056815427256    -0.070247229168     0.088126714990
    C           -0.969043995117     0.773582895983    -0.083147317507
    C            0.352895440820     0.030166839323    -0.000454475054
    H           -1.000223587920     1.258069396355    -1.051825492391
    H           -0.993544878050     1.511481983775     0.702628993883
    F            0.649000205773    -0.546863960475    -1.152629015526
    F            1.329185489639     0.878457122566     0.260008907323
    F            0.363614978554    -0.893897374575     0.924931781365

  Mulliken Charges: (a.u.)
   Center  Symbol    Alpha    Beta     Spin     Total
       1     H     0.38866  0.38866  0.00000  0.22267
       2     O     4.19021  4.19021  0.00000 -0.38043
       3     C     2.99454  2.99454  0.00000  0.01091
       4     C     2.68576  2.68576  0.00000  0.62849
       5     H     0.46046  0.46046  0.00000  0.07908
       6     H     0.44617  0.44617  0.00000  0.10766
       7     F     4.61659  4.61659  0.00000 -0.23318
       8     F     4.61361  4.61361  0.00000 -0.22722
       9     F     4.60400  4.60400  0.00000 -0.20799

   Total alpha = 25.00000, Total beta = 25.00000, Total charge =  0.00000
