  ==> Input File <==

--------------------------------------------------------------------------
set {
	reference rhf
	basis 6-31G*
}

set_num_threads( 1 )
memory 2 gb

molecule MOL {
0 1

O	 1.459499	 1.971812	 -0.387279
C	 0.564568	 2.105340	 -1.158244
C	 -0.735209	 1.338541	 -1.136632
O	 0.594015	 2.973162	 -2.161815
C	 -0.823008	 0.326187	 0.001381
H	 -1.540383	 2.065967	 -1.079537
H	 -0.842650	 0.854407	 -2.103477
C	 -2.149452	 -0.435131	 -0.000098
H	 -0.693928	 0.840681	 0.948388
H	 0.003778	 -0.372785	 -0.077175
C	 -3.368779	 0.488503	 -0.000883
H	 -2.193746	 -1.087250	 -0.871175
H	 -2.195311	 -1.087803	 0.870418
C	 -4.693822	 -0.272754	 -0.001129
H	 -3.325798	 1.139422	 -0.871284
H	 -3.326423	 1.139959	 0.869145
H	 -4.781274	 -0.907928	 -0.878124
H	 -5.538651	 0.408946	 -0.001420
H	 -4.781694	 -0.907783	 0.875984
C	 1.762342	 3.761931	 -2.295267
H	 1.917280	 4.364146	 -1.411604
H	 1.595504	 4.393579	 -3.153790
H	 2.628021	 3.135124	 -2.454075

	symmetry c1
}
set optking {
	frozen_dihedral = ("
		15 11 8 12,
		1 2 3 6,
		9 5 3 6,
		1 2 4 20
	")
}

ee = energy('scf')
oeprop('DIPOLE', 'QUADRUPOLE', 'MULLIKEN_CHARGES')
f=open( 'psi4out.xyz', 'w' )
f.write( "23  " )
f.write( str(ee) + "\n" )
f.write( MOL.save_string_xyz() )
f.close()
--------------------------------------------------------------------------

    Molecular point group: c1

    Geometry (in Angstrom), charge = 0, multiplicity = 1:

       Center              X                  Y                   Z               Mass
    ------------   -----------------  -----------------  -----------------  -----------------
           O          2.256815473880     0.581075879700     0.421900868075    15.994914619560
           C          1.361884473880     0.714603879700    -0.349064131925    12.000000000000
           C          0.062107473880    -0.052195120300    -0.327452131925    12.000000000000
           O          1.391331473880     1.582425879700    -1.352635131925    15.994914619560
           C         -0.025691526120    -1.064549120300     0.810560868075    12.000000000000
           H         -0.743066526120     0.675230879700    -0.270357131925     1.007825032070
           H         -0.045333526120    -0.536329120300    -1.294297131925     1.007825032070
           C         -1.352135526120    -1.825867120300     0.809081868075    12.000000000000
           H          0.103388473880    -0.550055120300     1.757567868075     1.007825032070
           H          0.801094473880    -1.763521120300     0.732004868075     1.007825032070
           C         -2.571462526120    -0.902233120300     0.808296868075    12.000000000000
           H         -1.396429526120    -2.477986120300    -0.061995131925     1.007825032070
           H         -1.397994526120    -2.478539120300     1.679597868075     1.007825032070
           C         -3.896505526120    -1.663490120300     0.808050868075    12.000000000000
           H         -2.528481526120    -0.251314120300    -0.062104131925     1.007825032070
           H         -2.529106526120    -0.250777120300     1.678324868075     1.007825032070
           H         -3.983957526120    -2.298664120300    -0.068944131925     1.007825032070
           H         -4.741334526120    -0.981790120300     0.807759868075     1.007825032070
           H         -3.984377526120    -2.298519120300     1.685163868075     1.007825032070
           C          2.559658473880     2.371194879700    -1.486087131925    12.000000000000
           H          2.714596473880     2.973409879700    -0.602424131925     1.007825032070
           H          2.392820473880     3.002842879700    -2.344610131925     1.007825032070
           H          3.425337473880     1.744387879700    -1.644895131925     1.007825032070

  Charge       = 0
  Multiplicity = 1
  Basis Set: 6-31G*
  Basis Set:

    Orbital Energies (a.u.)
    -----------------------

    Doubly Occupied:

       1A    -20.603427     2A    -20.545025     3A    -11.371869
       4A    -11.280724     5A    -11.234426     6A    -11.219196
       7A    -11.218443     8A    -11.217687     9A    -11.211129
      10A     -1.469047    11A     -1.362439    12A     -1.096631
      13A     -1.040624    14A     -0.987105    15A     -0.932843
      16A     -0.851865    17A     -0.793203    18A     -0.762497
      19A     -0.702380    20A     -0.682280    21A     -0.671891
      22A     -0.638844    23A     -0.620640    24A     -0.599749
      25A     -0.577715    26A     -0.557982    27A     -0.555157
      28A     -0.527343    29A     -0.520184    30A     -0.511344
      31A     -0.490776    32A     -0.467344    33A     -0.465249
      34A     -0.457146    35A     -0.452537    36A     -0.437128

  @DF-RHF Final Energy:  -422.97267086146974

   => Energetics <=

    Nuclear Repulsion Energy =            459.9960954417261974
    One-Electron Energy =               -1487.6699421065827664
    Two-Electron Energy =                 604.7011758033888782
    DFT Exchange-Correlation Energy =       0.0000000000000000
    Empirical Dispersion Energy =           0.0000000000000000
    PCM Polarization Energy =               0.0000000000000000
    EFP Energy =                            0.0000000000000000
    Total Energy =                       -422.9726708614678046

  Mulliken Charges: (a.u.)
   Center  Symbol    Alpha    Beta     Spin     Total
       1     O     4.28606  4.28606  0.00000 -0.57212
       2     C     2.60363  2.60363  0.00000  0.79273
       3     C     3.21357  3.21357  0.00000 -0.42714
       4     O     4.30727  4.30727  0.00000 -0.61454
       5     C     3.15290  3.15290  0.00000 -0.30581
       6     H     0.39774  0.39774  0.00000  0.20452
       7     H     0.40119  0.40119  0.00000  0.19762
       8     C     3.15435  3.15435  0.00000 -0.30871
       9     H     0.41189  0.41189  0.00000  0.17623
      10     H     0.40967  0.40967  0.00000  0.18066
      11     C     3.15827  3.15827  0.00000 -0.31654
      12     H     0.42370  0.42370  0.00000  0.15261
      13     H     0.41795  0.41795  0.00000  0.16409
      14     C     3.23821  3.23821  0.00000 -0.47641
      15     H     0.42144  0.42144  0.00000  0.15712
      16     H     0.42167  0.42167  0.00000  0.15666
      17     H     0.42150  0.42150  0.00000  0.15700
      18     H     0.41891  0.41891  0.00000  0.16219
      19     H     0.42098  0.42098  0.00000  0.15803
      20     C     3.09243  3.09243  0.00000 -0.18486
      21     H     0.40907  0.40907  0.00000  0.18185
      22     H     0.40850  0.40850  0.00000  0.18300
      23     H     0.40910  0.40910  0.00000  0.18180

   Total alpha = 36.00000, Total beta = 36.00000, Total charge = -0.00000
