  ==> Input File <==

--------------------------------------------------------------------------
set {
	reference rhf
	basis cc-pvtz
}

set_num_threads( 4 )
memory 2 gb

molecule MOL {
0 1

H	 -3.162190	 0.493205	 -0.000107
C	 -2.363908	 -0.234727	 0.000005
O	 -1.158738	 0.454634	 -0.000087
H	 -2.464314	 -0.863616	 -0.882153
H	 -2.464327	 -0.863359	 0.882345
C	 -0.028611	 -0.359694	 0.000037
C	 1.212847	 0.509314	 -0.000053
H	 -0.034155	 -1.007047	 -0.877198
H	 -0.034195	 -1.006836	 0.877430
C	 0.887671	 1.989308	 0.167962
H	 1.866810	 0.177495	 0.798792
H	 1.747605	 0.347564	 -0.929474
H	 0.373049	 2.177221	 1.104412
H	 1.791423	 2.586168	 0.164511
H	 0.253304	 2.348496	 -0.635549

	symmetry c1
}
set optking {
	frozen_dihedral = ("
		11 7 6 8
	")
}

ee = optimize('scf')
oeprop('DIPOLE', 'QUADRUPOLE', 'MULLIKEN_CHARGES')
f=open( 'psi4out.xyz', 'w' )
f.write( "15  " )
f.write( str(ee) + "\n" )
f.write( MOL.save_string_xyz() )
f.close()
--------------------------------------------------------------------------

    Molecular point group: c1
  Charge       = 0
  Multiplicity = 1
  Basis Set: CC-PVTZ
  Basis Set:
  @DF-RHF Final Energy:  -232.21815128466977
    Total Energy =                       -232.2181512846697728
    Molecular point group: c1
  Basis Set: CC-PVTZ
  Basis Set:
  Basis Set: CC-PVTZ
  Basis Set:
  @DF-RHF Final Energy:  -232.21871571324496
    Total Energy =                       -232.2187157132449329
  Basis Set: CC-PVTZ
  Basis Set:
  Basis Set: CC-PVTZ
  Basis Set:
  @DF-RHF Final Energy:  -232.21994788876316
    Total Energy =                       -232.2199478887632722
  Basis Set: CC-PVTZ
  Basis Set:
  Basis Set: CC-PVTZ
  Basis Set:
  @DF-RHF Final Energy:  -232.21999587343919
    Total Energy =                       -232.2199958734393022
  Basis Set: CC-PVTZ
  Basis Set:
  Basis Set: CC-PVTZ
  Basis Set:
  @DF-RHF Final Energy:  -232.21999880679343
    Total Energy =                       -232.2199988067935124
  Basis Set: CC-PVTZ
  Basis Set:
  Charge       = 0
  Multiplicity = 1
  Basis Set: CC-PVTZ
  Basis Set:

    Orbital Energies (a.u.)
    -----------------------

    Doubly Occupied:

       1A    -20.547380     2A    -11.265599     3A    -11.262149
       4A    -11.214232     5A    -11.199139     6A     -1.381965
       7A     -1.048928     8A     -0.949325     9A     -0.890129
      10A     -0.793399    11A     -0.675802    12A     -0.656939
      13A     -0.635281    14A     -0.603762    15A     -0.552673
      16A     -0.541372    17A     -0.505114    18A     -0.480012
      19A     -0.476458    20A     -0.461869    21A     -0.411022

  @DF-RHF Final Energy:  -232.21999902416081

   => Energetics <=

    Nuclear Repulsion Energy =            193.5145383759816582
    One-Electron Energy =                -698.3639833285417353
    Two-Electron Energy =                 272.6294459283992637
    DFT Exchange-Correlation Energy =       0.0000000000000000
    Empirical Dispersion Energy =           0.0000000000000000
    PCM Polarization Energy =               0.0000000000000000
    EFP Energy =                            0.0000000000000000
    Total Energy =                       -232.2199990241608134
    Molecular point group: c1
  Basis Set: CC-PVTZ
  Basis Set:

  -Total Gradient:
     Atom            X                  Y                   Z
    ------   -----------------  -----------------  -----------------
       1        0.000014983281     0.000007614949    -0.000000370482
       2       -0.000000897030    -0.000010240512    -0.000000503819
       3        0.000002869767     0.000011154718    -0.000004106185
       4        0.000005599932     0.000002851183    -0.000001663401
       5        0.000005747542     0.000002600320     0.000001536240
       6        0.001183614868    -0.001744953523     0.001899746937
       7        0.001009157025    -0.001497548735    -0.002160176440
       8       -0.001174056468     0.001701017502    -0.001268242801
       9        0.000032929862    -0.000015365326     0.000006238166
      10       -0.000001441424    -0.000013473477     0.000031346378
      11       -0.001075900455     0.001551268028     0.001526390538
      12        0.000005529906    -0.000015505395    -0.000004725856
      13        0.000011030315     0.000007294275    -0.000009811347
      14       -0.000004926877     0.000008381593    -0.000012677925
      15       -0.000014240242     0.000004904399    -0.000002980002

  **** Optimization is complete! (in 6 steps) ****
    Final optimized geometry and variables:
    Molecular point group: c1

    Geometry (in Angstrom), charge = 0, multiplicity = 1:

    H           -2.882339982896    -0.058587661137    -0.047854916750
    C           -2.058670584815    -0.757862111493    -0.038585848507
    O           -0.879271340600    -0.027277305822    -0.039491362708
    H           -2.133286003786    -1.397746106303    -0.915627515062
    H           -2.140718837869    -1.383033354829     0.848357073294
    C            0.275827613876    -0.810626102803    -0.025450198587
    C            1.542733158265     0.065827808757    -0.040838551542
    H            0.265656425979    -1.461193928660    -0.897691401869
    H            0.267881838257    -1.447370772377     0.856785619315
    C            1.296492349812     1.562551360360     0.141136394634
    H            2.198594827491    -0.265274454690     0.756695586758
    H            2.077443123028    -0.092069259562    -0.970124382871
    H            0.796478804283     1.770978498797     1.078154273377
    H            2.244030787163     2.089773342257     0.139356734497
    H            0.682767370996     1.964322995796    -0.653057479055

  Mulliken Charges: (a.u.)
   Center  Symbol    Alpha    Beta     Spin     Total
       1     H     0.44788  0.44788  0.00000  0.10423
       2     C     3.03293  3.03293  0.00000 -0.06587
       3     O     4.16923  4.16923  0.00000 -0.33846
       4     H     0.47205  0.47205  0.00000  0.05591
       5     H     0.47201  0.47201  0.00000  0.05599
       6     C     2.96504  2.96504  0.00000  0.06993
       7     C     3.09780  3.09780  0.00000 -0.19560
       8     H     0.47126  0.47126  0.00000  0.05748
       9     H     0.47235  0.47235  0.00000  0.05530
      10     C     3.13787  3.13787  0.00000 -0.27574
      11     H     0.45333  0.45333  0.00000  0.09333
      12     H     0.45203  0.45203  0.00000  0.09594
      13     H     0.45282  0.45282  0.00000  0.09437
      14     H     0.45360  0.45360  0.00000  0.09281
      15     H     0.44981  0.44981  0.00000  0.10037

   Total alpha = 21.00000, Total beta = 21.00000, Total charge = -0.00000
