  ==> Input File <==

--------------------------------------------------------------------------
set {
	reference rhf
	basis 6-31G*
}

set_num_threads( 1 )
memory 2 gb

molecule MOL {
0 1

O	 -0.988096	 -1.408613	 0.050699
C	 -0.676749	 -0.249230	 -0.009274
C	 -1.746085	 0.827156	 -0.009539
N	 0.623947	 0.147590	 -0.102813
H	 -1.701500	 1.431508	 -0.908902
H	 -2.703425	 0.330732	 0.036390
H	 -1.647323	 1.487769	 0.845106
C	 1.662229	 -0.768482	 0.326907
C	 1.041370	 1.522411	 -0.269756
H	 2.512360	 -0.690207	 -0.341798
H	 1.283016	 -1.775315	 0.306258
H	 1.997984	 -0.539807	 1.336064
H	 1.963255	 1.546199	 -0.838615
H	 0.308052	 2.096820	 -0.813110
H	 1.224322	 2.010376	 0.685876

	symmetry c1
}
set optking {
	frozen_dihedral = ("
		2 4 8 10
	")
}

ee = energy('scf')
oeprop('DIPOLE', 'QUADRUPOLE', 'MULLIKEN_CHARGES')
f=open( 'psi4out.xyz', 'w' )
f.write( "15  " )
f.write( str(ee) + "\n" )
f.write( MOL.save_string_xyz() )
f.close()
--------------------------------------------------------------------------

    Molecular point group: c1

    Geometry (in Angstrom), charge = 0, multiplicity = 1:

       Center              X                  Y                   Z               Mass
    ------------   -----------------  -----------------  -----------------  -----------------
           O         -0.983087449618    -1.425410786771     0.049080071710    15.994914619560
           C         -0.671740449618    -0.266027786771    -0.010892928290    12.000000000000
           C         -1.741076449618     0.810358213229    -0.011157928290    12.000000000000
           N          0.628955550382     0.130792213229    -0.104431928290    14.003074004780
           H         -1.696491449618     1.414710213229    -0.910520928290     1.007825032070
           H         -2.698416449618     0.313934213229     0.034771071710     1.007825032070
           H         -1.642314449618     1.470971213229     0.843487071710     1.007825032070
           C          1.667237550382    -0.785279786771     0.325288071710    12.000000000000
           C          1.046378550382     1.505613213229    -0.271374928290    12.000000000000
           H          2.517368550382    -0.707004786771    -0.343416928290     1.007825032070
           H          1.288024550382    -1.792112786771     0.304639071710     1.007825032070
           H          2.002992550382    -0.556604786771     1.334445071710     1.007825032070
           H          1.968263550382     1.529401213229    -0.840233928290     1.007825032070
           H          0.313060550382     2.080022213229    -0.814728928290     1.007825032070
           H          1.229330550382     1.993578213229     0.684257071710     1.007825032070

  Charge       = 0
  Multiplicity = 1
  Basis Set: 6-31G*
  Basis Set:

    Orbital Energies (a.u.)
    -----------------------

    Doubly Occupied:

       1A    -20.514601     2A    -15.582816     3A    -11.341956
       4A    -11.266093     5A    -11.249070     6A    -11.228270
       7A     -1.384018     8A     -1.243887     9A     -1.013950
      10A     -0.972972    11A     -0.919679    12A     -0.738215
      13A     -0.680873    14A     -0.659476    15A     -0.651336
      16A     -0.589518    17A     -0.574180    18A     -0.569091
      19A     -0.561939    20A     -0.549301    21A     -0.530340
      22A     -0.502516    23A     -0.410214    24A     -0.365224

  @DF-RHF Final Energy:  -286.02746253945054

   => Energetics <=

    Nuclear Repulsion Energy =            252.3399108244089746
    One-Electron Energy =                -888.5354544760111821
    Two-Electron Energy =                 350.1680811121516967
    DFT Exchange-Correlation Energy =       0.0000000000000000
    Empirical Dispersion Energy =           0.0000000000000000
    PCM Polarization Energy =               0.0000000000000000
    EFP Energy =                            0.0000000000000000
    Total Energy =                       -286.0274625394504824

  Mulliken Charges: (a.u.)
   Center  Symbol    Alpha    Beta     Spin     Total
       1     O     4.30286  4.30286  0.00000 -0.60573
       2     C     2.62471  2.62471  0.00000  0.75059
       3     C     3.29756  3.29756  0.00000 -0.59511
       4     N     3.82306  3.82306  0.00000 -0.64612
       5     H     0.40773  0.40773  0.00000  0.18454
       6     H     0.39084  0.39084  0.00000  0.21833
       7     H     0.40712  0.40712  0.00000  0.18577
       8     C     3.14710  3.14710  0.00000 -0.29421
       9     C     3.14013  3.14013  0.00000 -0.28026
      10     H     0.41813  0.41813  0.00000  0.16374
      11     H     0.38359  0.38359  0.00000  0.23282
      12     H     0.42062  0.42062  0.00000  0.15875
      13     H     0.40935  0.40935  0.00000  0.18131
      14     H     0.40887  0.40887  0.00000  0.18226
      15     H     0.41834  0.41834  0.00000  0.16333

   Total alpha = 24.00000, Total beta = 24.00000, Total charge = -0.00000
