  ==> Input File <==

--------------------------------------------------------------------------
set {
	reference rhf
	basis 6-31G*
}

set_num_threads( 4 )
memory 2 gb

molecule MOL {
0 1

H	 -1.070890	 -1.366565	 0.180696
O	 -1.422729	 -0.573567	 -0.196946
C	 -0.731407	 0.539437	 0.309156
C	 0.680193	 0.672443	 -0.251532
H	 -1.319765	 1.404033	 0.030086
H	 -0.700012	 0.506517	 1.397677
C	 1.656521	 -0.371275	 0.291736
H	 0.630841	 0.598356	 -1.333993
H	 1.047386	 1.669287	 -0.016987
H	 1.357838	 -1.377180	 0.012203
H	 2.655040	 -0.212969	 -0.101794
H	 1.719617	 -0.326655	 1.376306

	symmetry c1
}
set optking {
	frozen_dihedral = ("
		8 4 3 2
	")
}

ee = optimize('scf')
oeprop('DIPOLE', 'QUADRUPOLE', 'MULLIKEN_CHARGES')
f=open( 'psi4out.xyz', 'w' )
f.write( "12  " )
f.write( str(ee) + "\n" )
f.write( MOL.save_string_xyz() )
f.close()
--------------------------------------------------------------------------

    Molecular point group: c1
  Charge       = 0
  Multiplicity = 1
  Basis Set: 6-31G*
  Basis Set:
  @DF-RHF Final Energy:  -193.10958168797185
    Total Energy =                       -193.1095816879718825
    Molecular point group: c1
  Basis Set: 6-31G*
  Basis Set:
  Basis Set: 6-31G*
  Basis Set:
  @DF-RHF Final Energy:  -193.10961847669267
    Total Energy =                       -193.1096184766927593
  Basis Set: 6-31G*
  Basis Set:
  Basis Set: 6-31G*
  Basis Set:
  @DF-RHF Final Energy:  -193.10964218286787
    Total Energy =                       -193.1096421828678444
  Basis Set: 6-31G*
  Basis Set:
  Basis Set: 6-31G*
  Basis Set:
  @DF-RHF Final Energy:  -193.10964383297238
    Total Energy =                       -193.1096438329724663
  Basis Set: 6-31G*
  Basis Set:
  Charge       = 0
  Multiplicity = 1
  Basis Set: 6-31G*
  Basis Set:

    Orbital Energies (a.u.)
    -----------------------

    Doubly Occupied:

       1A    -20.553318     2A    -11.267882     3A    -11.218614
       4A    -11.217792     5A     -1.359984     6A     -1.051258
       7A     -0.926654     8A     -0.810334     9A     -0.696389
      10A     -0.637562    11A     -0.597464    12A     -0.589344
      13A     -0.541881    14A     -0.509456    15A     -0.492244
      16A     -0.468925    17A     -0.429869

  @DF-RHF Final Energy:  -193.10964406004433

   => Energetics <=

    Nuclear Repulsion Energy =            132.8436447217972045
    One-Electron Energy =                -525.1686403127482663
    Two-Electron Energy =                 199.2153515309067302
    DFT Exchange-Correlation Energy =       0.0000000000000000
    Empirical Dispersion Energy =           0.0000000000000000
    PCM Polarization Energy =               0.0000000000000000
    EFP Energy =                            0.0000000000000000
    Total Energy =                       -193.1096440600443316
    Molecular point group: c1
  Basis Set: 6-31G*
  Basis Set:

  -Total Gradient:
     Atom            X                  Y                   Z
    ------   -----------------  -----------------  -----------------
       1        0.000002572161     0.000023451568     0.000005921502
       2       -0.000621570048     0.000952075574    -0.001302368587
       3        0.000884938984    -0.001792216516     0.001798956604
       4       -0.000530961608     0.002926417461    -0.000645280251
       5       -0.000000772727    -0.000011359420    -0.000002112061
       6       -0.000000075873     0.000007425716     0.000001700979
       7       -0.000008706087    -0.000003806984     0.000003894363
       8        0.000273534790    -0.002106468219     0.000147584760
       9       -0.000001604642    -0.000000984606    -0.000009120028
      10        0.000004544984    -0.000002830556    -0.000002471366
      11       -0.000004867553     0.000004011435     0.000000341566
      12        0.000002967623     0.000004284546     0.000002952520

  **** Optimization is complete! (in 5 steps) ****
    Final optimized geometry and variables:
    Molecular point group: c1

    Geometry (in Angstrom), charge = 0, multiplicity = 1:

    H           -1.065238445353    -1.400620187129     0.131287073069
    O           -1.427326491068    -0.610110807062    -0.242357549861
    C           -0.749335611049     0.510311016070     0.266140325737
    C            0.664500709955     0.651375051662    -0.288207605264
    H           -1.344017843684     1.365775251984    -0.027536320092
    H           -0.729556970450     0.488206522875     1.355005687664
    C            1.636429957231    -0.402786660444     0.245781155681
    H            0.611854449330     0.572631052915    -1.369938345000
    H            1.037948552412     1.643867237567    -0.048053591082
    H            1.320205819273    -1.407226273692    -0.022122187075
    H            2.630787320128    -0.261528515344    -0.164646772432
    H            1.716147797025    -0.354289065335     1.328671848257

  Mulliken Charges: (a.u.)
   Center  Symbol    Alpha    Beta     Spin     Total
       1     H     0.28074  0.28074  0.00000  0.43852
       2     O     4.37031  4.37031  0.00000 -0.74061
       3     C     2.99664  2.99664  0.00000  0.00672
       4     C     3.16279  3.16279  0.00000 -0.32557
       5     H     0.41441  0.41441  0.00000  0.17119
       6     H     0.43197  0.43197  0.00000  0.13607
       7     C     3.24794  3.24794  0.00000 -0.49587
       8     H     0.41269  0.41269  0.00000  0.17462
       9     H     0.42230  0.42230  0.00000  0.15539
      10     H     0.42481  0.42481  0.00000  0.15037
      11     H     0.41403  0.41403  0.00000  0.17194
      12     H     0.42138  0.42138  0.00000  0.15724

   Total alpha = 17.00000, Total beta = 17.00000, Total charge =  0.00000
