  ==> Input File <==

--------------------------------------------------------------------------
set {
	reference rhf
	basis cc-pvtz
}

set_num_threads( 4 )
memory 2 gb

molecule MOL {
0 1

O	 1.555027	 -0.270643	 0.524446
C	 0.576499	 0.134701	 -0.003900
C	 -0.765656	 -0.550508	 -0.002152
O	 0.537496	 1.265900	 -0.688620
C	 -1.945526	 0.411052	 0.000603
H	 -0.794329	 -1.203792	 -0.868145
H	 -0.791555	 -1.205429	 0.862701
C	 -3.282915	 -0.321280	 0.002596
H	 -1.880300	 1.059126	 -0.864925
H	 -1.877207	 1.057892	 0.866807
H	 -3.388495	 -0.952755	 -0.873419
H	 -4.107811	 0.380864	 0.004116
H	 -3.385717	 -0.953283	 0.878571
C	 1.734330	 2.012794	 -0.776639
H	 2.073131	 2.306735	 0.205638
H	 1.497977	 2.884189	 -1.365278
H	 2.509164	 1.435677	 -1.258937

	symmetry c1
}
set optking {
	frozen_dihedral = ("
		1 2 3 6
	")
}

ee = optimize('scf')
oeprop('DIPOLE', 'QUADRUPOLE', 'MULLIKEN_CHARGES')
f=open( 'psi4out.xyz', 'w' )
f.write( "17  " )
f.write( str(ee) + "\n" )
f.write( MOL.save_string_xyz() )
f.close()
--------------------------------------------------------------------------

    Molecular point group: c1
  Charge       = 0
  Multiplicity = 1
  Basis Set: CC-PVTZ
  Basis Set:
  @DF-RHF Final Energy:  -345.03269526701456
    Total Energy =                       -345.0326952670145602
    Molecular point group: c1
  Basis Set: CC-PVTZ
  Basis Set:
  Basis Set: CC-PVTZ
  Basis Set:
  @DF-RHF Final Energy:  -345.03225223634286
    Total Energy =                       -345.0322522363426287
  Basis Set: CC-PVTZ
  Basis Set:
  Basis Set: CC-PVTZ
  Basis Set:
  @DF-RHF Final Energy:  -345.03271141860546
    Total Energy =                       -345.0327114186053450
  Basis Set: CC-PVTZ
  Basis Set:
  Basis Set: CC-PVTZ
  Basis Set:
  @DF-RHF Final Energy:  -345.03342749743905
    Total Energy =                       -345.0334274974385380
  Basis Set: CC-PVTZ
  Basis Set:
  Basis Set: CC-PVTZ
  Basis Set:
  @DF-RHF Final Energy:  -345.03343968088603
    Total Energy =                       -345.0334396808859765
  Basis Set: CC-PVTZ
  Basis Set:
  Basis Set: CC-PVTZ
  Basis Set:
  @DF-RHF Final Energy:  -345.03344105621659
    Total Energy =                       -345.0334410562161906
  Basis Set: CC-PVTZ
  Basis Set:
  Charge       = 0
  Multiplicity = 1
  Basis Set: CC-PVTZ
  Basis Set:

    Orbital Energies (a.u.)
    -----------------------

    Doubly Occupied:

       1A    -20.598527     2A    -20.531577     3A    -11.364690
       4A    -11.279388     5A    -11.234158     6A    -11.226262
       7A    -11.215659     8A     -1.473157     9A     -1.364760
      10A     -1.084695    11A     -0.999042    12A     -0.943547
      13A     -0.832452    14A     -0.776881    15A     -0.698988
      16A     -0.685430    17A     -0.675586    18A     -0.639086
      19A     -0.597606    20A     -0.575137    21A     -0.556448
      22A     -0.538167    23A     -0.525685    24A     -0.515097
      25A     -0.490739    26A     -0.482476    27A     -0.458858
      28A     -0.434361

  @DF-RHF Final Energy:  -345.03344119441084

   => Energetics <=

    Nuclear Repulsion Energy =            314.7689312322656292
    One-Electron Energy =               -1094.0078301242297130
    Two-Electron Energy =                 434.2054576975533564
    DFT Exchange-Correlation Energy =       0.0000000000000000
    Empirical Dispersion Energy =           0.0000000000000000
    PCM Polarization Energy =               0.0000000000000000
    EFP Energy =                            0.0000000000000000
    Total Energy =                       -345.0334411944106705
    Molecular point group: c1
  Basis Set: CC-PVTZ
  Basis Set:

  -Total Gradient:
     Atom            X                  Y                   Z
    ------   -----------------  -----------------  -----------------
       1        0.000192827801    -0.000402329507    -0.000731805043
       2       -0.000217978589     0.000412010797     0.001157670231
       3       -0.000279753056     0.000572294441    -0.000831399621
       4        0.000005990944     0.000044286638    -0.000024976565
       5       -0.000000155057     0.000000678135     0.000009682804
       6        0.000307348431    -0.000616457555     0.000423614368
       7       -0.000003325413     0.000005598370    -0.000003991152
       8        0.000000560027    -0.000005296689    -0.000008271290
       9        0.000002825896    -0.000006448413     0.000002602008
      10        0.000004549907     0.000002743568     0.000004449499
      11       -0.000001137355    -0.000003998343    -0.000000532129
      12        0.000003505811     0.000000141773    -0.000001431393
      13       -0.000000098949     0.000004022909     0.000001970535
      14       -0.000019612169    -0.000010959435     0.000005323621
      15        0.000002826700     0.000002261506    -0.000000332416
      16       -0.000000108730     0.000001283247    -0.000001424417
      17        0.000001733802     0.000000168556    -0.000001149045

  **** Optimization is complete! (in 7 steps) ****
    Final optimized geometry and variables:
    Molecular point group: c1

    Geometry (in Angstrom), charge = 0, multiplicity = 1:

    O            1.732787196193    -0.681068823909     0.661181248011
    C            0.771665056050    -0.233967170529     0.132901838125
    C           -0.574556837691    -0.915716274946     0.121419894470
    O            0.783918250741     0.899536587430    -0.546064146371
    C           -1.792571846616     0.004428000452     0.131271100309
    H           -0.587319387877    -1.544643852482    -0.764956810240
    H           -0.583830705750    -1.584132385169     0.971558693266
    C           -3.097868677647    -0.782712779338     0.172666246462
    H           -1.775021609862     0.640767228671    -0.743655060527
    H           -1.739236306362     0.662917681728     0.992450382853
    H           -3.192561149831    -1.430183108609    -0.692757523310
    H           -3.951626097490    -0.115831722131     0.181294536929
    H           -3.155009577538    -1.405565902795     1.058808657470
    C            2.013993182793     1.591142002595    -0.630050147389
    H            2.366386326213     1.861510600481     0.354076215576
    H            1.817931064906     2.476809070435    -1.212337601239
    H            2.760777596986     0.981642563371    -1.116669484269

  Mulliken Charges: (a.u.)
   Center  Symbol    Alpha    Beta     Spin     Total
       1     O     4.20099  4.20099  0.00000 -0.40197
       2     C     2.81316  2.81316  0.00000  0.37367
       3     C     3.08221  3.08221  0.00000 -0.16442
       4     O     4.14525  4.14525  0.00000 -0.29049
       5     C     3.08512  3.08512  0.00000 -0.17024
       6     H     0.44618  0.44618  0.00000  0.10765
       7     H     0.43647  0.43647  0.00000  0.12706
       8     C     3.15196  3.15196  0.00000 -0.30393
       9     H     0.44447  0.44447  0.00000  0.11106
      10     H     0.45061  0.45061  0.00000  0.09877
      11     H     0.45470  0.45470  0.00000  0.09060
      12     H     0.44609  0.44609  0.00000  0.10782
      13     H     0.45368  0.45368  0.00000  0.09264
      14     C     3.03576  3.03576  0.00000 -0.07152
      15     H     0.45363  0.45363  0.00000  0.09274
      16     H     0.44628  0.44628  0.00000  0.10744
      17     H     0.45344  0.45344  0.00000  0.09312

   Total alpha = 28.00000, Total beta = 28.00000, Total charge =  0.00000
