                              Psi4 1.0.54 Driver

  ==> Input File <==

--------------------------------------------------------------------------
set {
	reference rhf
	basis cc-pvtz
}

set_num_threads( 4 )
memory 2 gb

molecule MOL {
0 1

O	 -1.278239	 1.034789	 -0.784693
C	 -1.204115	 0.062668	 -0.112312
C	 -2.386398	 -0.667698	 0.460323
O	 -0.068058	 -0.518372	 0.226882
H	 -2.382952	 -1.693172	 0.114333
H	 -3.296656	 -0.175702	 0.158400
H	 -2.312537	 -0.685191	 1.540100
C	 0.477535	 -1.539163	 -0.615209
C	 1.316984	 -2.425853	 0.282688
C	 1.276851	 -0.906794	 -1.740291
H	 -0.345115	 -2.102703	 -1.028438
H	 0.712371	 -2.851814	 1.073100
H	 1.747547	 -3.235942	 -0.293579
H	 2.123102	 -1.860860	 0.735338
H	 1.700859	 -1.678673	 -2.371893
H	 0.646224	 -0.277812	 -2.352941
H	 2.087976	 -0.308846	 -1.340520

	symmetry c1
}
set optking {
	frozen_dihedral = ("
		8 4 2 1
	")
}

ee,wfn = optimize('scf', return_wfn=True)
oeprop( wfn, 'DIPOLE', 'QUADRUPOLE', 'MULLIKEN_CHARGES')
f=open( 'psi4out.xyz', 'w' )
f.write( "17  " )
f.write( str(ee) + "\n" )
f.write( MOL.save_string_xyz() )
f.close()
--------------------------------------------------------------------------

    Molecular point group: c1
  Charge       = 0
  Multiplicity = 1
  Basis Set: CC-PVTZ
  Basis Set:
  @DF-RHF Final Energy:  -345.02303488386349
    Total Energy =                       -345.0230348838636019
    Molecular point group: c1
  Basis Set: CC-PVTZ
  Basis Set:
  Basis Set: CC-PVTZ
  Basis Set:
  @DF-RHF Final Energy:  -344.96773758161481
    Total Energy =                       -344.9677375816142444
  Basis Set: CC-PVTZ
  Basis Set:
  Basis Set: CC-PVTZ
  Basis Set:
  @DF-RHF Final Energy:  -344.96152961897155
    Total Energy =                       -344.9615296189716673
  Basis Set: CC-PVTZ
  Basis Set:
  Basis Set: CC-PVTZ
  Basis Set:
  @DF-RHF Final Energy:  -344.96308863652968
    Total Energy =                       -344.9630886365294486
  Basis Set: CC-PVTZ
  Basis Set:
  @DF-RHF Final Energy:  -344.98607182657747
    Total Energy =                       -344.9860718265775290
  @DF-RHF Final Energy:  -345.02049617644570
    Total Energy =                       -345.0204961764458176
  @DF-RHF Final Energy:  -345.00976955259711
    Total Energy =                       -345.0097695525975041
  @DF-RHF Final Energy:  -345.02334713613664
    Total Energy =                       -345.0233471361362945
  @DF-RHF Final Energy:  -345.00637032497031
    Total Energy =                       -345.0063703249706464
  @DF-RHF Final Energy:  -345.02329310233495
    Total Energy =                       -345.0232931023351171
  @DF-RHF Final Energy:  -345.02447196151780
    Total Energy =                       -345.0244719615179747
  Basis Set: CC-PVTZ
  Basis Set:
  @DF-RHF Final Energy:  -345.02453375382606
    Total Energy =                       -345.0245337538263470
  Basis Set: CC-PVTZ
  Basis Set:
  Basis Set: CC-PVTZ
  Basis Set:
  @DF-RHF Final Energy:  -345.02455728130917
    Total Energy =                       -345.0245572813092849
  Basis Set: CC-PVTZ
  Basis Set:
  Basis Set: CC-PVTZ
  Basis Set:
  @DF-RHF Final Energy:  -345.02455961492393
    Total Energy =                       -345.0245596149238736
  Basis Set: CC-PVTZ
  Basis Set:
  Charge       = 0
  Multiplicity = 1
  Basis Set: CC-PVTZ
  Basis Set:

    Orbital Energies (a.u.)
    -----------------------

    Doubly Occupied:

       1A    -20.572428     2A    -20.543728     3A    -11.369322
       4A    -11.299672     5A    -11.235099     6A    -11.220685
       7A    -11.213611     8A     -1.458880     9A     -1.367953
      10A     -1.074249    11A     -1.011121    12A     -0.950330
      13A     -0.846954    14A     -0.771553    15A     -0.694943
      16A     -0.677187    17A     -0.654343    18A     -0.617170
      19A     -0.592509    20A     -0.589031    21A     -0.556454
      22A     -0.550976    23A     -0.547720    24A     -0.518795
      25A     -0.507649    26A     -0.483734    27A     -0.449047
      28A     -0.437616

  @DF-RHF Final Energy:  -345.02456004974522

   => Energetics <=

    Nuclear Repulsion Energy =            322.9289847213543680
    One-Electron Energy =               -1110.2815668814228047
    Two-Electron Energy =                 442.3280221103229906
    DFT Exchange-Correlation Energy =       0.0000000000000000
    Empirical Dispersion Energy =           0.0000000000000000
    PCM Polarization Energy =               0.0000000000000000
    EFP Energy =                            0.0000000000000000
    Total Energy =                       -345.0245600497454461
    Molecular point group: c1
  Basis Set: CC-PVTZ
  Basis Set:

  -Total Gradient:
     Atom            X                  Y                   Z
    ------   -----------------  -----------------  -----------------
       1       -0.001391512919     0.001536924750    -0.000100076736
       2        0.002000147422    -0.002282122664     0.001044825595
       3       -0.000060727202     0.000059724676    -0.000038284613
       4       -0.000415240532     0.000766568088    -0.002540118609
       5        0.000021142184    -0.000030600972     0.000002310220
       6        0.000019269512     0.000003372567    -0.000001181410
       7        0.000016546362    -0.000012629986     0.000001329269
       8       -0.000123287720    -0.000056437775     0.001638058750
       9       -0.000035124689     0.000004235958    -0.000012559775
      10       -0.000055405504     0.000003419866    -0.000000140960
      11       -0.000009035028     0.000006346451    -0.000000961660
      12        0.000001868392    -0.000005597611    -0.000010724487
      13        0.000005838282    -0.000004108437     0.000002190640
      14        0.000001417047    -0.000001857101     0.000001701873
      15        0.000007792503    -0.000000417987     0.000012429914
      16        0.000017984772     0.000018197389     0.000005950022
      17       -0.000001672883    -0.000005017217    -0.000004748033

  **** Optimization is complete! (in 15 steps) ****
    Final optimized geometry and variables:
    Molecular point group: c1

    Geometry (in Angstrom), charge = 0, multiplicity = 1:

    O           -1.531874770953    -0.750125155839    -1.121842775343
    C           -1.187660154897    -0.329020426449    -0.078068808514
    C           -1.837363633372    -0.685186945661     1.230557587450
    O           -0.211569062439     0.590144958635     0.039589882391
    H           -1.093926560977    -1.033740734961     1.936897268817
    H           -2.589955319647    -1.442239134352     1.080095381241
    H           -2.286338413374     0.207517509033     1.648443167633
    C            1.135725642708     0.135073757258     0.187876299308
    C            1.885182122361     1.233904229106     0.913130799840
    C            1.736439911115    -0.197643377246    -1.166777967030
    H            1.128602661466    -0.758238589349     0.806489723183
    H            1.437586652645     1.430417090107     1.878705009748
    H            2.919340026200     0.947519382371     1.062493395735
    H            1.861050395987     2.148107079295     0.332878411189
    H            2.751809765927    -0.557466539024    -1.042885090532
    H            1.159590484316    -0.958997647817    -1.672467215239
    H            1.755475371325     0.685236316492    -1.793875263472

  Mulliken Charges: (a.u.)
   Center  Symbol    Alpha    Beta     Spin     Total
       1     O     4.17333  4.17333  0.00000 -0.34666
       2     C     2.80865  2.80865  0.00000  0.38271
       3     C     3.14157  3.14157  0.00000 -0.28314
       4     O     4.18028  4.18028  0.00000 -0.36056
       5     H     0.45112  0.45112  0.00000  0.09776
       6     H     0.43663  0.43663  0.00000  0.12674
       7     H     0.44301  0.44301  0.00000  0.11398
       8     C     2.93369  2.93369  0.00000  0.13262
       9     C     3.13734  3.13734  0.00000 -0.27467
      10     C     3.13945  3.13945  0.00000 -0.27890
      11     H     0.45943  0.45943  0.00000  0.08113
      12     H     0.44733  0.44733  0.00000  0.10533
      13     H     0.45472  0.45472  0.00000  0.09056
      14     H     0.44832  0.44832  0.00000  0.10337
      15     H     0.45332  0.45332  0.00000  0.09336
      16     H     0.44082  0.44082  0.00000  0.11835
      17     H     0.45099  0.45099  0.00000  0.09802

   Total alpha = 28.00000, Total beta = 28.00000, Total charge = -0.00000

*** Psi4 exiting successfully. Buy a developer a beer!
