                              Psi4 1.0.54 Driver

  ==> Input File <==

--------------------------------------------------------------------------
set {
	reference rhf
	basis cc-pvtz
}

set_num_threads( 4 )
memory 2 gb

molecule MOL {
0 1

O	 1.640162	 -0.274913	 -0.722971
C	 0.860843	 0.273204	 -0.013120
C	 -0.623368	 -0.117453	 -0.005652
C	 1.331591	 1.386349	 0.901935
C	 -0.892588	 -1.253841	 -1.002900
C	 -1.473463	 1.100646	 -0.372896
C	 -0.981836	 -0.579025	 1.418506
H	 -0.609333	 -0.970024	 -2.010649
H	 -1.950451	 -1.487353	 -1.013175
H	 -0.360848	 -2.161259	 -0.746463
H	 -1.232203	 1.461623	 -1.364827
H	 -2.524364	 0.834451	 -0.354500
H	 -1.312381	 1.914833	 0.318657
H	 -2.035706	 -0.826342	 1.468082
H	 -0.425078	 -1.458934	 1.716857
H	 -0.788494	 0.205047	 2.140903
H	 1.434738	 0.999299	 1.909564
H	 2.296501	 1.729970	 0.562314
H	 0.636850	 2.214058	 0.940199

	symmetry c1
}
set optking {
	frozen_dihedral = ("
		1 2 3 5
	")
}

ee,wfn = optimize('scf', return_wfn=True)
oeprop( wfn, 'DIPOLE', 'QUADRUPOLE', 'MULLIKEN_CHARGES')
f=open( 'psi4out.xyz', 'w' )
f.write( "19  " )
f.write( str(ee) + "\n" )
f.write( MOL.save_string_xyz() )
f.close()
--------------------------------------------------------------------------

    Molecular point group: c1
  Charge       = 0
  Multiplicity = 1
  Basis Set: CC-PVTZ
  Basis Set:
  @DF-RHF Final Energy:  -309.17282268998963
    Total Energy =                       -309.1728226899894594
    Molecular point group: c1
  Basis Set: CC-PVTZ
  Basis Set:
  Basis Set: CC-PVTZ
  Basis Set:
  @DF-RHF Final Energy:  -309.17197239409387
    Total Energy =                       -309.1719723940940412
  Basis Set: CC-PVTZ
  Basis Set:
  Basis Set: CC-PVTZ
  Basis Set:
  @DF-RHF Final Energy:  -309.17190807673654
    Total Energy =                       -309.1719080767361447
  Basis Set: CC-PVTZ
  Basis Set:
  Basis Set: CC-PVTZ
  Basis Set:
  @DF-RHF Final Energy:  -309.17374609614262
    Total Energy =                       -309.1737460961425086
  Basis Set: CC-PVTZ
  Basis Set:
  Basis Set: CC-PVTZ
  Basis Set:
  @DF-RHF Final Energy:  -309.17380101998805
    Total Energy =                       -309.1738010199881046
  Basis Set: CC-PVTZ
  Basis Set:
  Basis Set: CC-PVTZ
  Basis Set:
  @DF-RHF Final Energy:  -309.17390644652681
    Total Energy =                       -309.1739064465264164
  Basis Set: CC-PVTZ
  Basis Set:
  Basis Set: CC-PVTZ
  Basis Set:
  @DF-RHF Final Energy:  -309.17390784134619
    Total Energy =                       -309.1739078413460788
  Basis Set: CC-PVTZ
  Basis Set:
  Charge       = 0
  Multiplicity = 1
  Basis Set: CC-PVTZ
  Basis Set:

    Orbital Energies (a.u.)
    -----------------------

    Doubly Occupied:

       1A    -20.537628     2A    -11.317786     3A    -11.245761
       4A    -11.224810     5A    -11.222740     6A    -11.222359
       7A    -11.205754     8A     -1.398548     9A     -1.110791
      10A     -1.002554    11A     -0.948259    12A     -0.935388
      13A     -0.835944    14A     -0.705402    15A     -0.666764
      16A     -0.633540    17A     -0.620498    18A     -0.600992
      19A     -0.594687    20A     -0.566057    21A     -0.546219
      22A     -0.544170    23A     -0.523205    24A     -0.514248
      25A     -0.501360    26A     -0.472133    27A     -0.469718
      28A     -0.395165

  @DF-RHF Final Energy:  -309.17390787103983

   => Energetics <=

    Nuclear Repulsion Energy =            326.8113729836506423
    One-Electron Energy =               -1066.8455949392919138
    Two-Electron Energy =                 430.8603140846017823
    DFT Exchange-Correlation Energy =       0.0000000000000000
    Empirical Dispersion Energy =           0.0000000000000000
    PCM Polarization Energy =               0.0000000000000000
    EFP Energy =                            0.0000000000000000
    Total Energy =                       -309.1739078710394324
    Molecular point group: c1
  Basis Set: CC-PVTZ
  Basis Set:

  -Total Gradient:
     Atom            X                  Y                   Z
    ------   -----------------  -----------------  -----------------
       1        0.000258341125    -0.001143595670     0.000926663883
       2       -0.000280575822     0.001764142255    -0.001922542050
       3        0.000447185120    -0.001131373675     0.001653490229
       4       -0.000039715665    -0.000022356786     0.000062318960
       5       -0.000247261726     0.000707629172    -0.000725984072
       6       -0.000068177495     0.000052855288     0.000035332547
       7        0.000016172424    -0.000028556819    -0.000186649157
       8        0.000023586853     0.000004058750    -0.000003346811
       9       -0.000016632354    -0.000045145498    -0.000018566865
      10       -0.000000109705    -0.000096065930     0.000047687551
      11        0.000049857456    -0.000049252282     0.000002094461
      12       -0.000067372645    -0.000042390735    -0.000025552982
      13       -0.000012611954    -0.000032433362     0.000025654842
      14       -0.000024393765     0.000000463288    -0.000007469774
      15        0.000001078091    -0.000004504308    -0.000009471560
      16       -0.000003213605     0.000029975427    -0.000003833063
      17        0.000023851325    -0.000028245722     0.000161912105
      18       -0.000040957246    -0.000036257586    -0.000004099877
      19       -0.000019050406     0.000101054193    -0.000007638369

  **** Optimization is complete! (in 8 steps) ****
    Final optimized geometry and variables:
    Molecular point group: c1

    Geometry (in Angstrom), charge = 0, multiplicity = 1:

    O            1.658580973966    -0.382530005419    -0.735533539642
    C            0.880855356264     0.195940498597    -0.048228535025
    C           -0.606011672332    -0.186008341707    -0.028093431455
    C            1.371323791872     1.300485614854     0.868695488952
    C           -0.843153022146    -1.353926402965    -0.987552860917
    C           -1.453080624322     1.015712139061    -0.482386380804
    C           -1.007017052574    -0.593331553230     1.398193065695
    H           -0.567789969562    -1.091161981732    -1.999826515463
    H           -1.891603699306    -1.630087281002    -0.977595881501
    H           -0.259186995768    -2.219781245952    -0.705852294259
    H           -1.138268619825     1.370715802493    -1.457389521341
    H           -2.492246107338     0.718713150303    -0.559665199411
    H           -1.402691677504     1.844086691769     0.212121069845
    H           -2.043810788766    -0.907890169101     1.411105768168
    H           -0.405185531725    -1.422269990462     1.753781120271
    H           -0.904619898192     0.224975108991     2.100171741716
    H            1.485315156044     0.901192613800     1.870639339250
    H            2.337157095207     1.633635019605     0.521132052084
    H            0.690653431054     2.137737605877     0.924442999379

  Mulliken Charges: (a.u.)
   Center  Symbol    Alpha    Beta     Spin     Total
       1     O     4.17382  4.17382  0.00000 -0.34763
       2     C     2.85463  2.85463  0.00000  0.29074
       3     C     3.00740  3.00740  0.00000 -0.01480
       4     C     3.16200  3.16200  0.00000 -0.32399
       5     C     3.14926  3.14926  0.00000 -0.29853
       6     C     3.16290  3.16290  0.00000 -0.32581
       7     C     3.16294  3.16294  0.00000 -0.32588
       8     H     0.44309  0.44309  0.00000  0.11382
       9     H     0.45227  0.45227  0.00000  0.09545
      10     H     0.44325  0.44325  0.00000  0.11349
      11     H     0.44234  0.44234  0.00000  0.11532
      12     H     0.44400  0.44400  0.00000  0.11200
      13     H     0.44590  0.44590  0.00000  0.10819
      14     H     0.44331  0.44331  0.00000  0.11339
      15     H     0.44221  0.44221  0.00000  0.11558
      16     H     0.44637  0.44637  0.00000  0.10725
      17     H     0.44589  0.44589  0.00000  0.10822
      18     H     0.43186  0.43186  0.00000  0.13629
      19     H     0.44656  0.44656  0.00000  0.10688

   Total alpha = 28.00000, Total beta = 28.00000, Total charge =  0.00000

*** Psi4 exiting successfully. Buy a developer a beer!
