                              Psi4 1.0.54 Driver

  ==> Input File <==

--------------------------------------------------------------------------
set {
	reference rhf
	basis cc-pvtz
}

set_num_threads( 4 )
memory 2 gb

molecule MOL {
0 1

O	 2.539784	 1.861827	 -0.452149
C	 1.832001	 1.727592	 -1.396149
C	 0.567792	 0.893684	 -1.349175
C	 2.149713	 2.386855	 -2.719272
C	 0.288398	 0.247429	 0.000314
H	 -0.258511	 1.534775	 -1.647995
H	 0.643839	 0.139600	 -2.129291
C	 -0.993089	 -0.581367	 -0.000217
H	 0.227371	 1.019788	 0.758503
H	 1.130629	 -0.376531	 0.276820
C	 -2.258482	 0.271340	 0.000669
H	 -1.002280	 -1.233920	 -0.870484
H	 -1.002061	 -1.235367	 0.868958
C	 -3.544441	 -0.550271	 -0.000253
H	 -2.250545	 0.925250	 -0.867923
H	 -2.250598	 0.923423	 0.870642
C	 -4.804551	 0.308747	 0.000556
H	 -3.553737	 -1.201524	 -0.870151
H	 -3.553831	 -1.203282	 0.868313
H	 -4.842050	 0.949078	 -0.874436
H	 -5.698404	 -0.304480	 -0.000254
H	 -4.842277	 0.947103	 0.876982
H	 1.339560	 3.045048	 -3.013351
H	 3.065180	 2.952029	 -2.636265
H	 2.252990	 1.636597	 -3.495473

	symmetry c1
}
set optking {
	frozen_dihedral = ("
		9 5 8 12
	")
}

ee,wfn = optimize('scf', return_wfn=True)
oeprop( wfn, 'DIPOLE', 'QUADRUPOLE', 'MULLIKEN_CHARGES')
f=open( 'psi4out.xyz', 'w' )
f.write( "25  " )
f.write( str(ee) + "\n" )
f.write( MOL.save_string_xyz() )
f.close()
--------------------------------------------------------------------------

    Molecular point group: c1
  Charge       = 0
  Multiplicity = 1
  Basis Set: CC-PVTZ
  Basis Set:
  @DF-RHF Final Energy:  -387.27235028867415
    Total Energy =                       -387.2723502886744882
    Molecular point group: c1
  Basis Set: CC-PVTZ
  Basis Set:
  Basis Set: CC-PVTZ
  Basis Set:
  @DF-RHF Final Energy:  -387.27254416969930
    Total Energy =                       -387.2725441696989037
  Basis Set: CC-PVTZ
  Basis Set:
  Basis Set: CC-PVTZ
  Basis Set:
  @DF-RHF Final Energy:  -387.27256916537766
    Total Energy =                       -387.2725691653778313
  Basis Set: CC-PVTZ
  Basis Set:
  Basis Set: CC-PVTZ
  Basis Set:
  @DF-RHF Final Energy:  -387.27256258419334
    Total Energy =                       -387.2725625841933379
  Basis Set: CC-PVTZ
  Basis Set:
  Basis Set: CC-PVTZ
  Basis Set:
  @DF-RHF Final Energy:  -387.27266717303394
    Total Energy =                       -387.2726671730339376
  Basis Set: CC-PVTZ
  Basis Set:
  Charge       = 0
  Multiplicity = 1
  Basis Set: CC-PVTZ
  Basis Set:

    Orbital Energies (a.u.)
    -----------------------

    Doubly Occupied:

       1A    -20.538771     2A    -11.320434     3A    -11.229736
       4A    -11.226538     5A    -11.215522     6A    -11.215240
       7A    -11.214914     8A    -11.213837     9A    -11.208441
      10A     -1.398832    11A     -1.095880    12A     -1.057200
      13A     -1.015528    14A     -0.969186    15A     -0.897254
      16A     -0.816366    17A     -0.789082    18A     -0.732696
      19A     -0.661016    20A     -0.648597    21A     -0.641411
      22A     -0.623261    23A     -0.598942    24A     -0.578556
      25A     -0.570251    26A     -0.567850    27A     -0.543159
      28A     -0.528052    29A     -0.517268    30A     -0.495447
      31A     -0.488781    32A     -0.478329    33A     -0.464416
      34A     -0.460005    35A     -0.447899    36A     -0.402551

  @DF-RHF Final Energy:  -387.27266749621629

   => Energetics <=

    Nuclear Repulsion Energy =            444.8034384935135677
    One-Electron Energy =               -1406.4097185562241066
    Two-Electron Energy =                 574.3336125664945939
    DFT Exchange-Correlation Energy =       0.0000000000000000
    Empirical Dispersion Energy =           0.0000000000000000
    PCM Polarization Energy =               0.0000000000000000
    EFP Energy =                            0.0000000000000000
    Total Energy =                       -387.2726674962159450
    Molecular point group: c1
  Basis Set: CC-PVTZ
  Basis Set:

  -Total Gradient:
     Atom            X                  Y                   Z
    ------   -----------------  -----------------  -----------------
       1        0.000024839276     0.000005493662     0.000020680288
       2       -0.000023171605     0.000000746556    -0.000028582344
       3        0.000005252599     0.000013318412     0.000036506143
       4        0.000019091530    -0.000005283814    -0.000007603038
       5        0.000554530461    -0.000870038655     0.000967057396
       6       -0.000019925852     0.000003464876    -0.000012496341
       7        0.000001760060    -0.000003863330     0.000008368400
       8        0.000648825798    -0.001005320819     0.000710913995
       9       -0.000551132887     0.000868919832    -0.000953989575
      10        0.000011970315     0.000006518123     0.000006131346
      11       -0.000003641725    -0.000025472719     0.000019696547
      12       -0.000635555857     0.000986337459    -0.000739015840
      13       -0.000005945745    -0.000012075998     0.000000600946
      14       -0.000003696829     0.000012696011    -0.000015235175
      15       -0.000007592260     0.000009124764    -0.000009450721
      16        0.000005600208     0.000001652002     0.000004936941
      17       -0.000011992591    -0.000000700802    -0.000000916946
      18       -0.000001714862    -0.000009636352    -0.000003851949
      19        0.000008288591     0.000001999139     0.000007788341
      20       -0.000002192895     0.000011086689    -0.000011384363
      21       -0.000014862513    -0.000004299793     0.000000887811
      22        0.000000873777    -0.000000205280     0.000003327437
      23       -0.000009310886     0.000008110553    -0.000001547511
      24        0.000012385247     0.000005265791    -0.000000292550
      25       -0.000002681354     0.000002163694    -0.000002529236

  **** Optimization is complete! (in 6 steps) ****
    Final optimized geometry and variables:
    Molecular point group: c1

    Geometry (in Angstrom), charge = 0, multiplicity = 1:

    O            3.036135324002     1.112023975260     0.244161916986
    C            2.349462131948     0.993264995784    -0.717280632030
    C            1.062935136499     0.192233875797    -0.702383891137
    C            2.718039646488     1.641034321810    -2.033120390936
    C            0.745747623312    -0.456517451887     0.640045241605
    H            0.266107642258     0.858686520597    -1.020017480262
    H            1.138551116695    -0.561397873327    -1.483124954782
    C           -0.540660179046    -1.286285752515     0.632033578069
    H            0.678395588726     0.318430575552     1.395095124007
    H            1.581079983843    -1.084226800708     0.924042718949
    C           -1.827848398215    -0.462378036923     0.635877451719
    H           -0.544529466547    -1.942532561372    -0.235504188908
    H           -0.541547106120    -1.932234916387     1.504531251219
    C           -3.089812147281    -1.320648681378     0.661614238558
    H           -1.861664112702     0.183516510424    -0.237392781625
    H           -1.825708880660     0.196234501892     1.501104826507
    C           -4.374543283540    -0.498973790327     0.672882639878
    H           -3.092598574104    -1.980989157702    -0.201448918698
    H           -3.066845829418    -1.964560424553     1.536438228982
    H           -4.445022354785     0.130286802492    -0.208314809120
    H           -5.249726972796    -1.138215346608     0.692587671036
    H           -4.417867983402     0.147542756128     1.543054872836
    H            1.932607507572     2.318563601022    -2.349532147267
    H            3.644896053929     2.183492323090    -1.927337769541
    H            2.822878446399     0.886377820240    -2.804824165871

  Mulliken Charges: (a.u.)
   Center  Symbol    Alpha    Beta     Spin     Total
       1     O     4.17095  4.17095  0.00000 -0.34190
       2     C     2.86085  2.86085  0.00000  0.27831
       3     C     3.11137  3.11137  0.00000 -0.22274
       4     C     3.15064  3.15064  0.00000 -0.30127
       5     C     3.09298  3.09298  0.00000 -0.18596
       6     H     0.44563  0.44563  0.00000  0.10873
       7     H     0.44575  0.44575  0.00000  0.10849
       8     C     3.10097  3.10097  0.00000 -0.20194
       9     H     0.44610  0.44610  0.00000  0.10780
      10     H     0.43999  0.43999  0.00000  0.12002
      11     C     3.08719  3.08719  0.00000 -0.17438
      12     H     0.45587  0.45587  0.00000  0.08826
      13     H     0.44506  0.44506  0.00000  0.10987
      14     C     3.08432  3.08432  0.00000 -0.16864
      15     H     0.45680  0.45680  0.00000  0.08639
      16     H     0.45302  0.45302  0.00000  0.09397
      17     C     3.14961  3.14961  0.00000 -0.29923
      18     H     0.45473  0.45473  0.00000  0.09054
      19     H     0.45328  0.45328  0.00000  0.09344
      20     H     0.45603  0.45603  0.00000  0.08794
      21     H     0.44805  0.44805  0.00000  0.10390
      22     H     0.45453  0.45453  0.00000  0.09095
      23     H     0.45061  0.45061  0.00000  0.09878
      24     H     0.43531  0.43531  0.00000  0.12938
      25     H     0.45036  0.45036  0.00000  0.09929

   Total alpha = 36.00000, Total beta = 36.00000, Total charge = -0.00000

*** Psi4 exiting successfully. Buy a developer a beer!
