  ==> Input File <==

--------------------------------------------------------------------------
set {
	reference rhf
	basis 6-31G*
}

set_num_threads( 1 )
memory 2 gb

molecule MOL {
0 1

O	 0.625848	 1.349995	 -0.000749
C	 0.486307	 0.169203	 0.000779
C	 1.608116	 -0.841643	 0.000302
O	 -0.698257	 -0.426125	 0.001050
C	 2.990107	 -0.200498	 -0.000684
H	 1.468623	 -1.481519	 -0.865924
H	 1.469683	 -1.481289	 0.866878
H	 3.129736	 0.423364	 -0.875135
H	 3.757882	 -0.966877	 -0.001197
H	 3.130964	 0.423383	 0.873533
C	 -1.569248	 -0.157529	 1.094956
C	 -2.842533	 -0.943738	 0.864888
H	 -1.759124	 0.906130	 1.141441
H	 -1.080321	 -0.448498	 2.014673
H	 -3.317187	 -0.644509	 -0.062649
H	 -3.537904	 -0.767247	 1.679110
H	 -2.634787	 -2.006588	 0.815406

	symmetry c1
}
set optking {
	frozen_dihedral = ("
		2 4 11 13,
		4 2 3 6
	")
}

ee = energy('scf')
oeprop('DIPOLE', 'QUADRUPOLE', 'MULLIKEN_CHARGES')
f=open( 'psi4out.xyz', 'w' )
f.write( "17  " )
f.write( str(ee) + "\n" )
f.write( MOL.save_string_xyz() )
f.close()
--------------------------------------------------------------------------

    Molecular point group: c1

    Geometry (in Angstrom), charge = 0, multiplicity = 1:

       Center              X                  Y                   Z               Mass
    ------------   -----------------  -----------------  -----------------  -----------------
           O          0.551904334398     1.496996687993    -0.286416706186    15.994914619560
           C          0.412363334398     0.316204687993    -0.284888706186    12.000000000000
           C          1.534172334398    -0.694641312007    -0.285365706186    12.000000000000
           O         -0.772200665602    -0.279123312007    -0.284617706186    15.994914619560
           C          2.916163334398    -0.053496312007    -0.286351706186    12.000000000000
           H          1.394679334398    -1.334517312007    -1.151591706186     1.007825032070
           H          1.395739334398    -1.334287312007     0.581210293814     1.007825032070
           H          3.055792334398     0.570365687993    -1.160802706186     1.007825032070
           H          3.683938334398    -0.819875312007    -0.286864706186     1.007825032070
           H          3.057020334398     0.570384687993     0.587865293814     1.007825032070
           C         -1.643191665602    -0.010527312007     0.809288293814    12.000000000000
           C         -2.916476665602    -0.796736312007     0.579220293814    12.000000000000
           H         -1.833067665602     1.053131687993     0.855773293814     1.007825032070
           H         -1.154264665602    -0.301496312007     1.729005293814     1.007825032070
           H         -3.391130665602    -0.497507312007    -0.348316706186     1.007825032070
           H         -3.611847665602    -0.620245312007     1.393442293814     1.007825032070
           H         -2.708730665602    -1.859586312007     0.529738293814     1.007825032070

  Charge       = 0
  Multiplicity = 1
  Basis Set: 6-31G*
  Basis Set:

    Orbital Energies (a.u.)
    -----------------------

    Doubly Occupied:

       1A    -20.587448     2A    -20.550611     3A    -11.372058
       4A    -11.293485     5A    -11.237941     6A    -11.225217
       7A    -11.215591     8A     -1.463448     9A     -1.363845
      10A     -1.067766    11A     -1.035477    12A     -0.907548
      13A     -0.857985    14A     -0.773088    15A     -0.699875
      16A     -0.684046    17A     -0.660423    18A     -0.631831
      19A     -0.599771    20A     -0.563435    21A     -0.557526
      22A     -0.527677    23A     -0.522615    24A     -0.518971
      25A     -0.504019    26A     -0.490229    27A     -0.450729
      28A     -0.432994

  @DF-RHF Final Energy:  -344.89742694482266

   => Energetics <=

    Nuclear Repulsion Energy =            314.8706412431849913
    One-Electron Energy =               -1093.9448495058888966
    Two-Electron Energy =                 434.1767813178827282
    DFT Exchange-Correlation Energy =       0.0000000000000000
    Empirical Dispersion Energy =           0.0000000000000000
    PCM Polarization Energy =               0.0000000000000000
    EFP Energy =                            0.0000000000000000
    Total Energy =                       -344.8974269448211771

  Mulliken Charges: (a.u.)
   Center  Symbol    Alpha    Beta     Spin     Total
       1     O     4.26959  4.26959  0.00000 -0.53917
       2     C     2.60817  2.60817  0.00000  0.78365
       3     C     3.20702  3.20702  0.00000 -0.41404
       4     O     4.31699  4.31699  0.00000 -0.63398
       5     C     3.23985  3.23985  0.00000 -0.47970
       6     H     0.39919  0.39919  0.00000  0.20161
       7     H     0.40604  0.40604  0.00000  0.18792
       8     H     0.40908  0.40908  0.00000  0.18183
       9     H     0.41873  0.41873  0.00000  0.16255
      10     H     0.41119  0.41119  0.00000  0.17761
      11     C     3.00462  3.00462  0.00000 -0.00924
      12     C     3.24802  3.24802  0.00000 -0.49604
      13     H     0.40472  0.40472  0.00000  0.19055
      14     H     0.42098  0.42098  0.00000  0.15805
      15     H     0.40735  0.40735  0.00000  0.18530
      16     H     0.41679  0.41679  0.00000  0.16641
      17     H     0.41166  0.41166  0.00000  0.17669

   Total alpha = 28.00000, Total beta = 28.00000, Total charge = -0.00000
