                              Psi4 1.0.54 Driver

  ==> Input File <==

--------------------------------------------------------------------------
set {
	reference rhf
	basis cc-pvtz
}

set_num_threads( 4 )
memory 2 gb

molecule MOL {
0 1

H	 -2.447058	 3.321118	 -1.317977
O	 -1.753035	 2.733470	 -1.552915
C	 -1.392091	 1.946577	 -0.448861
C	 -0.273027	 1.014161	 -0.866495
H	 -1.062160	 2.575563	 0.375333
H	 -2.244587	 1.368356	 -0.098517
C	 0.196029	 0.106276	 0.266738
H	 0.555512	 1.613279	 -1.230913
H	 -0.617868	 0.417055	 -1.704627
C	 1.330220	 -0.826136	 -0.155230
H	 0.513534	 0.718483	 1.105253
H	 -0.640778	 -0.490825	 0.622839
C	 2.719700	 -0.407669	 0.328325
H	 1.339388	 -0.911200	 -1.239363
H	 1.119001	 -1.821953	 0.224128
C	 3.241564	 0.893452	 -0.276737
H	 3.418299	 -1.204729	 0.093035
H	 2.711776	 -0.323368	 1.411960
H	 3.254204	 0.841071	 -1.360784
H	 2.634460	 1.745075	 0.005842
H	 4.254264	 1.092401	 0.054971

	symmetry c1
}
set optking {
	frozen_dihedral = ("
		4 7 10 14
	")
}

ee,wfn = optimize('scf', return_wfn=True)
oeprop( wfn, 'DIPOLE', 'QUADRUPOLE', 'MULLIKEN_CHARGES')
f=open( 'psi4out.xyz', 'w' )
f.write( "21  " )
f.write( str(ee) + "\n" )
f.write( MOL.save_string_xyz() )
f.close()
--------------------------------------------------------------------------

    Molecular point group: c1
  Charge       = 0
  Multiplicity = 1
  Basis Set: CC-PVTZ
  Basis Set:
  @DF-RHF Final Energy:  -310.32789439136286
    Total Energy =                       -310.3278943913630314
    Molecular point group: c1
  Basis Set: CC-PVTZ
  Basis Set:
  Basis Set: CC-PVTZ
  Basis Set:
  @DF-RHF Final Energy:  -310.32821106112044
    Total Energy =                       -310.3282110611206690
  Basis Set: CC-PVTZ
  Basis Set:
  Basis Set: CC-PVTZ
  Basis Set:
  @DF-RHF Final Energy:  -310.32830912593499
    Total Energy =                       -310.3283091259347657
  Basis Set: CC-PVTZ
  Basis Set:
  Basis Set: CC-PVTZ
  Basis Set:
  @DF-RHF Final Energy:  -310.32831214338285
    Total Energy =                       -310.3283121433830729
  Basis Set: CC-PVTZ
  Basis Set:
  Charge       = 0
  Multiplicity = 1
  Basis Set: CC-PVTZ
  Basis Set:

    Orbital Energies (a.u.)
    -----------------------

    Doubly Occupied:

       1A    -20.545312     2A    -11.264698     3A    -11.213576
       4A    -11.212856     5A    -11.211232     6A    -11.208541
       7A    -11.205215     8A     -1.363134     9A     -1.085704
      10A     -1.032323    11A     -0.955864    12A     -0.877260
      13A     -0.808054    14A     -0.777894    15A     -0.695688
      16A     -0.661382    17A     -0.619927    18A     -0.611481
      19A     -0.588794    20A     -0.559370    21A     -0.551232
      22A     -0.521008    23A     -0.499704    24A     -0.498398
      25A     -0.480925    26A     -0.459798    27A     -0.448852
      28A     -0.443163    29A     -0.437286

  @DF-RHF Final Energy:  -310.32831238752715

   => Energetics <=

    Nuclear Repulsion Energy =            318.4654971254069551
    One-Electron Energy =               -1051.9102796071747434
    Two-Electron Energy =                 423.1164700942405830
    DFT Exchange-Correlation Energy =       0.0000000000000000
    Empirical Dispersion Energy =           0.0000000000000000
    PCM Polarization Energy =               0.0000000000000000
    EFP Energy =                            0.0000000000000000
    Total Energy =                       -310.3283123875272054
    Molecular point group: c1
  Basis Set: CC-PVTZ
  Basis Set:

  -Total Gradient:
     Atom            X                  Y                   Z
    ------   -----------------  -----------------  -----------------
       1        0.000001522853    -0.000004594832     0.000000295910
       2        0.000007462546     0.000001784129    -0.000002075404
       3       -0.000000858184    -0.000014314058     0.000025181293
       4       -0.000378271767    -0.000465182852    -0.000180604425
       5        0.000001309930     0.000002498691    -0.000003444347
       6        0.000001685076     0.000001977424     0.000000834573
       7        0.000738256394     0.000736990722     0.000203641552
       8       -0.000003775413     0.000011174628    -0.000004952303
       9        0.000000918307    -0.000009126553    -0.000002668883
      10       -0.000848716401    -0.000941927392    -0.000034812947
      11        0.000045341448    -0.000005526990    -0.000007156260
      12       -0.000016493639    -0.000042318232    -0.000000446148
      13       -0.000006169847     0.000020919015     0.000032609748
      14        0.000492952750     0.000662000864    -0.000067412654
      15       -0.000055122341     0.000041364426     0.000026487846
      16        0.000008205066     0.000007238981     0.000018755117
      17       -0.000004974619     0.000000046832    -0.000007203640
      18        0.000022082997    -0.000003081967     0.000001180949
      19       -0.000002874616    -0.000005917641    -0.000002055559
      20       -0.000008731430    -0.000002792596     0.000000724742
      21        0.000006250892     0.000008787405     0.000003120839

  **** Optimization is complete! (in 5 steps) ****
    Final optimized geometry and variables:
    Molecular point group: c1

    Geometry (in Angstrom), charge = 0, multiplicity = 1:

    H           -2.999919041994     2.486534353342    -0.911575996773
    O           -2.313551137310     1.893549446909    -1.155225411621
    C           -1.926323512540     1.122189010309    -0.049077783879
    C           -0.819029243613     0.182129920545    -0.480433657291
    H           -1.575313893465     1.762766580513     0.757425061177
    H           -2.770569259639     0.550695756154     0.331160108089
    C           -0.339785627905    -0.723297282788     0.652772862450
    H            0.000300484203     0.773625672999    -0.872606818718
    H           -1.184589210435    -0.424802555869    -1.302472770147
    C            0.807271508206    -1.674135991888     0.259236140483
    H           -0.034726469679    -0.117499737786     1.501994361184
    H           -1.184792744365    -1.311405998395     0.997576016914
    C            2.196318089739    -1.256313001956     0.749335684521
    H            0.833376069103    -1.781527498527    -0.821666366794
    H            0.601126568292    -2.662169458937     0.655797494160
    C            2.717198783710     0.058752184764     0.176303979746
    H            2.898025521979    -2.046921528389     0.500645217859
    H            2.184287309362    -1.193844207284     1.834374135488
    H            2.751892244742     0.027225232827    -0.907690162089
    H            2.095652259315     0.898974523233     0.462577938484
    H            3.720752622829     0.261021740880     0.532961544901

  Mulliken Charges: (a.u.)
   Center  Symbol    Alpha    Beta     Spin     Total
       1     H     0.39743  0.39743  0.00000  0.20514
       2     O     4.19515  4.19515  0.00000 -0.39030
       3     C     2.96427  2.96427  0.00000  0.07146
       4     C     3.08583  3.08583  0.00000 -0.17166
       5     H     0.47472  0.47472  0.00000  0.05056
       6     H     0.47415  0.47415  0.00000  0.05170
       7     C     3.11691  3.11691  0.00000 -0.23381
       8     H     0.44819  0.44819  0.00000  0.10363
       9     H     0.44979  0.44979  0.00000  0.10041
      10     C     3.09951  3.09951  0.00000 -0.19903
      11     H     0.45293  0.45293  0.00000  0.09414
      12     H     0.44508  0.44508  0.00000  0.10984
      13     C     3.08579  3.08579  0.00000 -0.17158
      14     H     0.45337  0.45337  0.00000  0.09327
      15     H     0.44406  0.44406  0.00000  0.11188
      16     C     3.15797  3.15797  0.00000 -0.31593
      17     H     0.44947  0.44947  0.00000  0.10105
      18     H     0.45548  0.45548  0.00000  0.08905
      19     H     0.45214  0.45214  0.00000  0.09572
      20     H     0.45360  0.45360  0.00000  0.09280
      21     H     0.44416  0.44416  0.00000  0.11167

   Total alpha = 29.00000, Total beta = 29.00000, Total charge = -0.00000

*** Psi4 exiting successfully. Buy a developer a beer!
