  ==> Input File <==

--------------------------------------------------------------------------
set {
	reference rhf
	basis 6-31G*
}

set_num_threads( 1 )
memory 2 gb

molecule MOL {
0 1

O	 0.888359	 0.152864	 0.864761
C	 1.705091	 0.115954	 0.001797
C	 1.739592	 1.009887	 -1.213752
O	 2.721346	 -0.737485	 -0.000216
C	 0.591988	 2.014108	 -1.260541
H	 2.703019	 1.512366	 -1.219980
H	 1.736194	 0.366980	 -2.089753
C	 0.652062	 2.906745	 -2.500965
H	 0.615420	 2.625878	 -0.364228
H	 -0.352358	 1.479394	 -1.236039
C	 -0.491411	 3.920851	 -2.563569
H	 1.602795	 3.437476	 -2.521642
H	 0.630612	 2.287304	 -3.396350
C	 -0.431539	 4.811642	 -3.803794
H	 -0.469822	 4.542138	 -1.671001
H	 -1.441804	 3.392170	 -2.543881
H	 0.493633	 5.380279	 -3.834188
H	 -1.254767	 5.519100	 -3.819578
H	 -0.485617	 4.221070	 -4.714074
C	 4.024888	 -0.184556	 -0.001949
H	 4.179030	 0.422472	 -0.882452
H	 4.701782	 -1.024608	 -0.003642
H	 4.181981	 0.421185	 0.878906

	symmetry c1
}
set optking {
	frozen_dihedral = ("
		15 11 8 12,
		9 5 8 12,
		1 2 3 6,
		9 5 3 6
	")
}

ee = energy('scf')
oeprop('DIPOLE', 'QUADRUPOLE', 'MULLIKEN_CHARGES')
f=open( 'psi4out.xyz', 'w' )
f.write( "23  " )
f.write( str(ee) + "\n" )
f.write( MOL.save_string_xyz() )
f.close()
--------------------------------------------------------------------------

    Molecular point group: c1

    Geometry (in Angstrom), charge = 0, multiplicity = 1:

       Center              X                  Y                   Z               Mass
    ------------   -----------------  -----------------  -----------------  -----------------
           O         -0.404474586040    -1.389329576799     2.017090864002    15.994914619560
           C          0.412257413960    -1.426239576799     1.154126864002    12.000000000000
           C          0.446758413960    -0.532306576799    -0.061422135998    12.000000000000
           O          1.428512413960    -2.279678576799     1.152113864002    15.994914619560
           C         -0.700845586040     0.471914423201    -0.108211135998    12.000000000000
           H          1.410185413960    -0.029827576799    -0.067650135998     1.007825032070
           H          0.443360413960    -1.175213576799    -0.937423135998     1.007825032070
           C         -0.640771586040     1.364551423201    -1.348635135998    12.000000000000
           H         -0.677413586040     1.083684423201     0.788101864002     1.007825032070
           H         -1.645191586040    -0.062799576799    -0.083709135998     1.007825032070
           C         -1.784244586040     2.378657423201    -1.411239135998    12.000000000000
           H          0.309961413960     1.895282423201    -1.369312135998     1.007825032070
           H         -0.662221586040     0.745110423201    -2.244020135998     1.007825032070
           C         -1.724372586040     3.269448423201    -2.651464135998    12.000000000000
           H         -1.762655586040     2.999944423201    -0.518671135998     1.007825032070
           H         -2.734637586040     1.849976423201    -1.391551135998     1.007825032070
           H         -0.799200586040     3.838085423201    -2.681858135998     1.007825032070
           H         -2.547600586040     3.976906423201    -2.667248135998     1.007825032070
           H         -1.778450586040     2.678876423201    -3.561744135998     1.007825032070
           C          2.732054413960    -1.726749576799     1.150380864002    12.000000000000
           H          2.886196413960    -1.119721576799     0.269877864002     1.007825032070
           H          3.408948413960    -2.566801576799     1.148687864002     1.007825032070
           H          2.889147413960    -1.121008576799     2.031235864002     1.007825032070

  Charge       = 0
  Multiplicity = 1
  Basis Set: 6-31G*
  Basis Set:

    Orbital Energies (a.u.)
    -----------------------

    Doubly Occupied:

       1A    -20.592813     2A    -20.553015     3A    -11.374129
       4A    -11.297141     5A    -11.238514     6A    -11.221694
       7A    -11.220430     8A    -11.218443     9A    -11.211509
      10A     -1.464869    11A     -1.369219    12A     -1.095018
      13A     -1.041518    14A     -0.986983    15A     -0.950937
      16A     -0.854056    17A     -0.798251    18A     -0.767466
      19A     -0.697308    20A     -0.682016    21A     -0.680866
      22A     -0.653238    23A     -0.623475    24A     -0.604286
      25A     -0.580972    26A     -0.566789    27A     -0.560039
      28A     -0.542573    29A     -0.511061    30A     -0.500729
      31A     -0.484381    32A     -0.476778    33A     -0.470213
      34A     -0.467724    35A     -0.452588    36A     -0.429508

  @DF-RHF Final Energy:  -422.95077329877563

   => Energetics <=

    Nuclear Repulsion Energy =            456.2269415002473352
    One-Electron Energy =               -1479.8744719280568916
    Two-Electron Energy =                 600.6967571290329033
    DFT Exchange-Correlation Energy =       0.0000000000000000
    Empirical Dispersion Energy =           0.0000000000000000
    PCM Polarization Energy =               0.0000000000000000
    EFP Energy =                            0.0000000000000000
    Total Energy =                       -422.9507732987766531

  Mulliken Charges: (a.u.)
   Center  Symbol    Alpha    Beta     Spin     Total
       1     O     4.26020  4.26020  0.00000 -0.52039
       2     C     2.60678  2.60678  0.00000  0.78645
       3     C     3.22592  3.22592  0.00000 -0.45183
       4     O     4.30545  4.30545  0.00000 -0.61089
       5     C     3.15089  3.15089  0.00000 -0.30178
       6     H     0.40712  0.40712  0.00000  0.18577
       7     H     0.39876  0.39876  0.00000  0.20248
       8     C     3.15301  3.15301  0.00000 -0.30602
       9     H     0.41226  0.41226  0.00000  0.17549
      10     H     0.40987  0.40987  0.00000  0.18026
      11     C     3.15171  3.15171  0.00000 -0.30342
      12     H     0.42575  0.42575  0.00000  0.14850
      13     H     0.42401  0.42401  0.00000  0.15197
      14     C     3.23962  3.23962  0.00000 -0.47923
      15     H     0.42130  0.42130  0.00000  0.15740
      16     H     0.42061  0.42061  0.00000  0.15879
      17     H     0.42223  0.42223  0.00000  0.15555
      18     H     0.41804  0.41804  0.00000  0.16393
      19     H     0.42170  0.42170  0.00000  0.15660
      20     C     3.09789  3.09789  0.00000 -0.19577
      21     H     0.41734  0.41734  0.00000  0.16531
      22     H     0.39876  0.39876  0.00000  0.20247
      23     H     0.41081  0.41081  0.00000  0.17838

   Total alpha = 36.00000, Total beta = 36.00000, Total charge = -0.00000
