  ==> Input File <==

--------------------------------------------------------------------------
set {
	reference rhf
	basis 6-31G*
}

set_num_threads( 1 )
memory 2 gb

molecule MOL {
0 1

H	 -2.328036	 -0.967661	 -0.581915
O	 -2.347518	 -0.290803	 0.079804
C	 -1.184022	 0.487508	 -0.006784
C	 0.062599	 -0.378592	 0.031606
H	 -1.176523	 1.099369	 -0.904519
H	 -1.187323	 1.153111	 0.844927
O	 1.171513	 0.459272	 -0.058250
H	 0.050699	 -1.089204	 -0.797170
H	 0.078739	 -0.954914	 0.954740
C	 2.397842	 -0.198080	 -0.002151
H	 2.508049	 -0.905315	 -0.822092
H	 3.173794	 0.550865	 -0.078850
H	 2.517602	 -0.735921	 0.936026

	symmetry c1
}
set optking {
	frozen_dihedral = ("
		8 4 3 5,
		10 7 4 8,
		4 7 10 13
	")
}

ee = energy('scf')
oeprop('DIPOLE', 'QUADRUPOLE', 'MULLIKEN_CHARGES')
f=open( 'psi4out.xyz', 'w' )
f.write( "13  " )
f.write( str(ee) + "\n" )
f.write( MOL.save_string_xyz() )
f.close()
--------------------------------------------------------------------------

    Molecular point group: c1

    Geometry (in Angstrom), charge = 0, multiplicity = 1:

       Center              X                  Y                   Z               Mass
    ------------   -----------------  -----------------  -----------------  -----------------
           H         -2.330302713679    -0.964512324046    -0.584077207068     1.007825032070
           O         -2.349784713679    -0.287654324046     0.077641792932    15.994914619560
           C         -1.186288713679     0.490656675954    -0.008946207068    12.000000000000
           C          0.060332286321    -0.375443324046     0.029443792932    12.000000000000
           H         -1.178789713679     1.102517675954    -0.906681207068     1.007825032070
           H         -1.189589713679     1.156259675954     0.842764792932     1.007825032070
           O          1.169246286321     0.462420675954    -0.060412207068    15.994914619560
           H          0.048432286321    -1.086055324046    -0.799332207068     1.007825032070
           H          0.076472286321    -0.951765324046     0.952577792932     1.007825032070
           C          2.395575286321    -0.194931324046    -0.004313207068    12.000000000000
           H          2.505782286321    -0.902166324046    -0.824254207068     1.007825032070
           H          3.171527286321     0.554013675954    -0.081012207068     1.007825032070
           H          2.515335286321    -0.732772324046     0.933863792932     1.007825032070

  Charge       = 0
  Multiplicity = 1
  Basis Set: 6-31G*
  Basis Set:

    Orbital Energies (a.u.)
    -----------------------

    Doubly Occupied:

       1A    -20.565054     2A    -20.559823     3A    -11.274970
       4A    -11.272097     5A    -11.268922     6A     -1.391346
       7A     -1.365373     8A     -1.020101     9A     -0.914529
      10A     -0.846825    11A     -0.705630    12A     -0.676227
      13A     -0.666457    14A     -0.634071    15A     -0.597072
      16A     -0.576761    17A     -0.545388    18A     -0.493896
      19A     -0.477990    20A     -0.439589    21A     -0.424924

  @DF-RHF Final Energy:  -267.94987622687438

   => Energetics <=

    Nuclear Repulsion Energy =            190.3987423461641981
    One-Electron Energy =                -743.2630889770891827
    Two-Electron Energy =                 284.9144704040514284
    DFT Exchange-Correlation Energy =       0.0000000000000000
    Empirical Dispersion Energy =           0.0000000000000000
    PCM Polarization Energy =               0.0000000000000000
    EFP Energy =                            0.0000000000000000
    Total Energy =                       -267.9498762268735277

  Mulliken Charges: (a.u.)
   Center  Symbol    Alpha    Beta     Spin     Total
       1     H     0.28252  0.28252  0.00000  0.43496
       2     O     4.37156  4.37156  0.00000 -0.74312
       3     C     2.99760  2.99760  0.00000  0.00479
       4     C     3.00280  3.00280  0.00000 -0.00560
       5     H     0.42180  0.42180  0.00000  0.15640
       6     H     0.40856  0.40856  0.00000  0.18287
       7     O     4.30647  4.30647  0.00000 -0.61295
       8     H     0.43840  0.43840  0.00000  0.12321
       9     H     0.42306  0.42306  0.00000  0.15388
      10     C     3.08063  3.08063  0.00000 -0.16127
      11     H     0.42903  0.42903  0.00000  0.14195
      12     H     0.41001  0.41001  0.00000  0.17998
      13     H     0.42755  0.42755  0.00000  0.14490

   Total alpha = 21.00000, Total beta = 21.00000, Total charge =  0.00000
