  ==> Input File <==

--------------------------------------------------------------------------
set {
	reference rhf
	basis cc-pvtz
}

set_num_threads( 4 )
memory 2 gb

molecule MOL {
0 1

O	 0.252391	 -0.046656	 -2.080160
C	 -0.157426	 -0.581358	 -1.107523
C	 -1.526396	 -1.182945	 -0.967275
O	 0.550743	 -0.719877	 0.000412
H	 -1.437863	 -2.235353	 -0.730624
H	 -2.073933	 -1.053191	 -1.886460
H	 -2.050618	 -0.705156	 -0.149751
C	 1.863204	 -0.194033	 0.000410
H	 2.031502	 0.409177	 -0.879273
H	 2.524488	 -1.045142	 0.000793
H	 2.031291	 0.409823	 0.879686

	symmetry c1
}
set optking {
	frozen_dihedral = ("
		2 4 8 9
	")
}

ee = optimize('scf')
oeprop('DIPOLE', 'QUADRUPOLE', 'MULLIKEN_CHARGES')
f=open( 'psi4out.xyz', 'w' )
f.write( "11  " )
f.write( str(ee) + "\n" )
f.write( MOL.save_string_xyz() )
f.close()
--------------------------------------------------------------------------

    Molecular point group: c1
  Charge       = 0
  Multiplicity = 1
  Basis Set: CC-PVTZ
  Basis Set:
  @DF-RHF Final Energy:  -266.93618299957086
    Total Energy =                       -266.9361829995709741
    Molecular point group: c1
  Basis Set: CC-PVTZ
  Basis Set:
  Basis Set: CC-PVTZ
  Basis Set:
  @DF-RHF Final Energy:  -266.93680881531145
    Total Energy =                       -266.9368088153113376
  Basis Set: CC-PVTZ
  Basis Set:
  Basis Set: CC-PVTZ
  Basis Set:
  @DF-RHF Final Energy:  -266.93702990720953
    Total Energy =                       -266.9370299072092507
  Basis Set: CC-PVTZ
  Basis Set:
  Basis Set: CC-PVTZ
  Basis Set:
  @DF-RHF Final Energy:  -266.93718744702153
    Total Energy =                       -266.9371874470213015
  Basis Set: CC-PVTZ
  Basis Set:
  Basis Set: CC-PVTZ
  Basis Set:
  @DF-RHF Final Energy:  -266.93729613551977
    Total Energy =                       -266.9372961355197731
  Basis Set: CC-PVTZ
  Basis Set:
  Basis Set: CC-PVTZ
  Basis Set:
  @DF-RHF Final Energy:  -266.93729643233053
    Total Energy =                       -266.9372964323308111
  Basis Set: CC-PVTZ
  Basis Set:
  Charge       = 0
  Multiplicity = 1
  Basis Set: CC-PVTZ
  Basis Set:

    Orbital Energies (a.u.)
    -----------------------

    Doubly Occupied:

       1A    -20.597694     2A    -20.534587     3A    -11.370156
       4A    -11.278534     5A    -11.232620     6A     -1.471694
       7A     -1.368230     8A     -1.036997     9A     -0.954091
      10A     -0.779107    11A     -0.699403    12A     -0.682175
      13A     -0.680978    14A     -0.598031    15A     -0.592669
      16A     -0.561594    17A     -0.530821    18A     -0.520686
      19A     -0.458505    20A     -0.446146

  @DF-RHF Final Energy:  -266.93729926736910

   => Energetics <=

    Nuclear Repulsion Energy =            183.2506233874044312
    One-Electron Energy =                -727.5864071557755324
    Two-Electron Energy =                 277.3984845010018603
    DFT Exchange-Correlation Energy =       0.0000000000000000
    Empirical Dispersion Energy =           0.0000000000000000
    PCM Polarization Energy =               0.0000000000000000
    EFP Energy =                            0.0000000000000000
    Total Energy =                       -266.9372992673692693
    Molecular point group: c1
  Basis Set: CC-PVTZ
  Basis Set:

  -Total Gradient:
     Atom            X                  Y                   Z
    ------   -----------------  -----------------  -----------------
       1       -0.000011513763    -0.000000003585    -0.000009504487
       2       -0.000193817596     0.000555573380     0.000226565958
       3        0.000002480598    -0.000000293737     0.000001311443
       4        0.000387667938    -0.000950201441    -0.000399759543
       5        0.000000529491    -0.000001802026    -0.000000235732
       6       -0.000001364994    -0.000000350827    -0.000002037865
       7        0.000006097197     0.000001991053    -0.000003711880
       8       -0.000427126226     0.000955366444     0.000546164534
       9        0.000233325406    -0.000567210461    -0.000357470966
      10        0.000003112763     0.000001436332     0.000001447899
      11        0.000000609186     0.000005494867    -0.000002769356

  **** Optimization is complete! (in 7 steps) ****
    Final optimized geometry and variables:
    Molecular point group: c1

    Geometry (in Angstrom), charge = 0, multiplicity = 1:

    O            0.006118909540     0.487116298374    -1.281818522034
    C           -0.376091027882    -0.038216900826    -0.293472733257
    C           -1.742207662993    -0.638239615865    -0.118141244068
    O            0.347969819522    -0.175116865608     0.805879901492
    H           -1.648173369021    -1.688195668957     0.126943810473
    H           -2.309250314291    -0.517325803868    -1.026638976457
    H           -2.248355041203    -0.152430475845     0.705961038572
    C            1.665008016734     0.341932657335     0.843778253042
    H            1.862034265352     0.957603020470    -0.016591189603
    H            2.359738590343    -0.485706103413     0.866344160852
    H            1.761615183683     0.917515905158     1.751766450160

  Mulliken Charges: (a.u.)
   Center  Symbol    Alpha    Beta     Spin     Total
       1     O     4.19709  4.19709  0.00000 -0.39418
       2     C     2.79800  2.79800  0.00000  0.40399
       3     C     3.13941  3.13941  0.00000 -0.27883
       4     O     4.14999  4.14999  0.00000 -0.29997
       5     H     0.44555  0.44555  0.00000  0.10889
       6     H     0.43800  0.43800  0.00000  0.12401
       7     H     0.44580  0.44580  0.00000  0.10841
       8     C     3.03700  3.03700  0.00000 -0.07401
       9     H     0.44344  0.44344  0.00000  0.11313
      10     H     0.45452  0.45452  0.00000  0.09097
      11     H     0.45120  0.45120  0.00000  0.09760

   Total alpha = 20.00000, Total beta = 20.00000, Total charge =  0.00000
