  ==> Input File <==

--------------------------------------------------------------------------
set {
	reference rhf
	basis 6-31G*
}

set_num_threads( 4 )
memory 2 gb

molecule MOL {
0 1

H	 2.639869	 0.391682	 0.468377
O	 2.064459	 -0.086912	 -0.111827
C	 0.745630	 0.005118	 0.354752
H	 0.739005	 0.037656	 1.444976
C	 -0.064159	 -1.194875	 -0.122754
C	 -0.046302	 1.193543	 -0.190431
H	 0.197384	 -1.376065	 -1.160690
H	 0.162855	 -2.097978	 0.431858
C	 -1.535782	 -0.752177	 0.006642
H	 0.154512	 1.271315	 -1.255561
H	 0.226209	 2.140461	 0.267302
C	 -1.509193	 0.801505	 0.065617
H	 -2.127797	 -1.112194	 -0.826847
H	 -1.986849	 -1.158408	 0.905561
H	 -2.183670	 1.254107	 -0.651985
H	 -1.821727	 1.144320	 1.047089

	symmetry c1
}
set optking {
	frozen_dihedral = ("
		1 2 3 6
	")
}

ee = optimize('scf')
oeprop('DIPOLE', 'QUADRUPOLE', 'MULLIKEN_CHARGES')
f=open( 'psi4out.xyz', 'w' )
f.write( "16  " )
f.write( str(ee) + "\n" )
f.write( MOL.save_string_xyz() )
f.close()
--------------------------------------------------------------------------

    Molecular point group: c1
  Charge       = 0
  Multiplicity = 1
  Basis Set: 6-31G*
  Basis Set:
  @DF-RHF Final Energy:  -270.01379062421347
    Total Energy =                       -270.0137906242137547
    Molecular point group: c1
  Basis Set: 6-31G*
  Basis Set:
  Basis Set: 6-31G*
  Basis Set:
  @DF-RHF Final Energy:  -270.01382649409931
    Total Energy =                       -270.0138264940991917
  Basis Set: 6-31G*
  Basis Set:
  Basis Set: 6-31G*
  Basis Set:
  @DF-RHF Final Energy:  -270.01383080890332
    Total Energy =                       -270.0138308089033785
  Basis Set: 6-31G*
  Basis Set:
  Charge       = 0
  Multiplicity = 1
  Basis Set: 6-31G*
  Basis Set:

    Orbital Energies (a.u.)
    -----------------------

    Doubly Occupied:

       1A    -20.551929     2A    -11.269171     3A    -11.215137
       4A    -11.213972     5A    -11.208466     6A    -11.207449
       7A     -1.360581     8A     -1.111975     9A     -0.963627
      10A     -0.947653    11A     -0.783791    12A     -0.775724
      13A     -0.710400    14A     -0.652750    15A     -0.618958
      16A     -0.580299    17A     -0.558603    18A     -0.522891
      19A     -0.514216    20A     -0.479722    21A     -0.468831
      22A     -0.455863    23A     -0.451365    24A     -0.412656

  @DF-RHF Final Energy:  -270.01383100245891

   => Energetics <=

    Nuclear Repulsion Energy =            255.0127619264896737
    One-Electron Energy =                -871.9811260895828582
    Two-Electron Energy =                 346.9545331606341279
    DFT Exchange-Correlation Energy =       0.0000000000000000
    Empirical Dispersion Energy =           0.0000000000000000
    PCM Polarization Energy =               0.0000000000000000
    EFP Energy =                            0.0000000000000000
    Total Energy =                       -270.0138310024590282
    Molecular point group: c1
  Basis Set: 6-31G*
  Basis Set:

  -Total Gradient:
     Atom            X                  Y                   Z
    ------   -----------------  -----------------  -----------------
       1        0.000238098649    -0.001411956391     0.000908117138
       2       -0.000453695726     0.001467896255    -0.001467115304
       3        0.000600042970     0.000558928762     0.001395572609
       4        0.000003207599    -0.000004088780    -0.000007997805
       5       -0.000020645480     0.000020786582    -0.000008418191
       6       -0.000343162147    -0.000626835032    -0.000856879069
       7        0.000005844555    -0.000000439782    -0.000003809882
       8        0.000004424941     0.000001364531     0.000000632099
       9        0.000007152248     0.000014550016    -0.000012043688
      10        0.000015912778    -0.000011827773     0.000012826199
      11        0.000003655134    -0.000006366297     0.000003378826
      12       -0.000032394591     0.000002575977     0.000025700825
      13       -0.000006379488    -0.000000707271     0.000004983994
      14       -0.000002643658     0.000009172281     0.000006324893
      15       -0.000003959942    -0.000006182950    -0.000002657108
      16       -0.000015457848    -0.000006870127     0.000001384463

  **** Optimization is complete! (in 4 steps) ****
    Final optimized geometry and variables:
    Molecular point group: c1

    Geometry (in Angstrom), charge = 0, multiplicity = 1:

    H            2.644929434529     0.403569881550     0.449201944384
    O            2.063628723517    -0.076192958568    -0.122165125618
    C            0.746297915242     0.005694894833     0.356459495263
    H            0.745889499040     0.035151324197     1.445826198280
    C           -0.067115378083    -1.194068148179    -0.120806492196
    C           -0.046081709463     1.193651694558    -0.188879734813
    H            0.199144384254    -1.377715637650    -1.157233552406
    H            0.157347726904    -2.097058679243     0.435503988726
    C           -1.538506544087    -0.750143343126     0.000589066018
    H            0.160300896999     1.269469004593    -1.252660741239
    H            0.227816716068     2.140460737573     0.267166319364
    C           -1.509770581274     0.803487009985     0.062200701677
    H           -2.126568821063    -1.107728689520    -0.836818116277
    H           -1.995561810587    -1.157376331364     0.896193240843
    H           -2.182223539937     1.257729295790    -0.656354526640
    H           -1.825269449683     1.144733240537     1.043476142458

  Mulliken Charges: (a.u.)
   Center  Symbol    Alpha    Beta     Spin     Total
       1     H     0.28096  0.28096  0.00000  0.43808
       2     O     4.37674  4.37674  0.00000 -0.75349
       3     C     2.91037  2.91037  0.00000  0.17927
       4     H     0.43099  0.43099  0.00000  0.13801
       5     C     3.16682  3.16682  0.00000 -0.33364
       6     C     3.17036  3.17036  0.00000 -0.34073
       7     H     0.41086  0.41086  0.00000  0.17829
       8     H     0.41445  0.41445  0.00000  0.17109
       9     C     3.16891  3.16891  0.00000 -0.33782
      10     H     0.41335  0.41335  0.00000  0.17329
      11     H     0.42091  0.42091  0.00000  0.15818
      12     C     3.16968  3.16968  0.00000 -0.33936
      13     H     0.41473  0.41473  0.00000  0.17055
      14     H     0.41765  0.41765  0.00000  0.16471
      15     H     0.41419  0.41419  0.00000  0.17163
      16     H     0.41903  0.41903  0.00000  0.16194

   Total alpha = 24.00000, Total beta = 24.00000, Total charge =  0.00000
