                              Psi4 1.0.54 Driver

  ==> Input File <==

--------------------------------------------------------------------------
set {
	reference rhf
	basis cc-pvtz
}

set_num_threads( 4 )
memory 2 gb

molecule MOL {
0 1

H	 -0.710468	 4.361700	 5.849653
C	 -1.377401	 3.516963	 5.721251
C	 -1.471433	 3.106644	 4.255604
H	 -0.999864	 2.702082	 6.329239
H	 -2.348919	 3.799876	 6.113567
C	 -2.412347	 1.924338	 4.034686
H	 -0.482377	 2.854581	 3.890676
H	 -1.816534	 3.953692	 3.667183
C	 -2.531305	 1.495240	 2.575710
H	 -2.077753	 1.079872	 4.624392
H	 -3.402827	 2.188237	 4.393977
C	 -1.302389	 0.797824	 2.017263
H	 -3.353775	 0.793249	 2.463827
H	 -2.778295	 2.340876	 1.940563
C	 -1.180025	 0.697761	 0.509157
O	 -0.474306	 0.327502	 2.728845
C	 -2.285431	 -0.137488	 -0.145671
H	 -0.211365	 0.265470	 0.297821
H	 -1.195490	 1.702993	 0.096281
C	 -3.646545	 0.082747	 0.508954
H	 -2.348635	 0.118247	 -1.199806
H	 -2.034895	 -1.192387	 -0.096473
C	 -4.757412	 -0.737227	 -0.138149
H	 -3.900211	 1.137405	 0.459735
H	 -3.580878	 -0.166775	 1.564416
H	 -4.867876	 -0.486707	 -1.187777
H	 -4.549650	 -1.800049	 -0.072540
H	 -5.709585	 -0.556397	 0.346597

	symmetry c1
}
set optking {
	frozen_dihedral = ("
		12 15 17 21
	")
}

ee,wfn = optimize('scf', return_wfn=True)
oeprop( wfn, 'DIPOLE', 'QUADRUPOLE', 'MULLIKEN_CHARGES')
f=open( 'psi4out.xyz', 'w' )
f.write( "28  " )
f.write( str(ee) + "\n" )
f.write( MOL.save_string_xyz() )
f.close()
--------------------------------------------------------------------------

    Molecular point group: c1
  Charge       = 0
  Multiplicity = 1
  Basis Set: CC-PVTZ
  Basis Set:
  @DF-RHF Final Energy:  -426.28223915105218
    Total Energy =                       -426.2822391510519537
    Molecular point group: c1
  Basis Set: CC-PVTZ
  Basis Set:
  Basis Set: CC-PVTZ
  Basis Set:
  @DF-RHF Final Energy:  -426.02809556010686
    Total Energy =                       -426.0280955601073174
  Basis Set: CC-PVTZ
  Basis Set:
  Basis Set: CC-PVTZ
  Basis Set:
  @DF-RHF Final Energy:  -426.19010253299734
    Total Energy =                       -426.1901025329977983
  Basis Set: CC-PVTZ
  Basis Set:
  Basis Set: CC-PVTZ
  Basis Set:
  @DF-RHF Final Energy:  -426.29746834513332
    Total Energy =                       -426.2974683451325291
  Basis Set: CC-PVTZ
  Basis Set:
  @DF-RHF Final Energy:  -426.30993939586733
    Total Energy =                       -426.3099393958671044
  @DF-RHF Final Energy:  -426.31122274312213
    Total Energy =                       -426.3112227431226984
  @DF-RHF Final Energy:  -426.15635967938692
    Total Energy =                       -426.1563596793869237
  @DF-RHF Final Energy:  -426.28899752501570
    Total Energy =                       -426.2889975250154748
  @DF-RHF Final Energy:  -426.31097172446994
    Total Energy =                       -426.3109717244701642
  @DF-RHF Final Energy:  -426.31199848878202
    Total Energy =                       -426.3119984887816827
  @DF-RHF Final Energy:  -426.31414365658929
    Total Energy =                       -426.3141436565895219
  @DF-RHF Final Energy:  -426.31454253164952
    Total Energy =                       -426.3145425316489536
  @DF-RHF Final Energy:  -426.31492941448084
    Total Energy =                       -426.3149294144809573
  @DF-RHF Final Energy:  -426.31533566796452
    Total Energy =                       -426.3153356679649733
  @DF-RHF Final Energy:  -426.31587364986751
    Total Energy =                       -426.3158736498673989
  @DF-RHF Final Energy:  -426.31622472872766
    Total Energy =                       -426.3162247287274340
  @DF-RHF Final Energy:  -426.30488044531080
    Total Energy =                       -426.3048804453110279
  @DF-RHF Final Energy:  -426.31637981451649
    Total Energy =                       -426.3163798145161536
  @DF-RHF Final Energy:  -426.31648754545131
    Total Energy =                       -426.3164875454515368
  @DF-RHF Final Energy:  -426.31657436220075
    Total Energy =                       -426.3165743622007540
  @DF-RHF Final Energy:  -426.31660918279238
    Total Energy =                       -426.3166091827918081
  @DF-RHF Final Energy:  -426.31666839813590
    Total Energy =                       -426.3166683981360165
  @DF-RHF Final Energy:  -426.31661346473823
    Total Energy =                       -426.3166134647377703
  @DF-RHF Final Energy:  -426.31683683989820
    Total Energy =                       -426.3168368398989969
  @DF-RHF Final Energy:  -426.31610263742357
    Total Energy =                       -426.3161026374243647
  @DF-RHF Final Energy:  -426.31689351758837
    Total Energy =                       -426.3168935175888237
  Basis Set: CC-PVTZ
  Basis Set:
  @DF-RHF Final Energy:  -426.31700272025000
    Total Energy =                       -426.3170027202502297
  Basis Set: CC-PVTZ
  Basis Set:
  Basis Set: CC-PVTZ
  Basis Set:
  @DF-RHF Final Energy:  -426.31700952277095
    Total Energy =                       -426.3170095227709453
  Basis Set: CC-PVTZ
  Basis Set:
  Basis Set: CC-PVTZ
  Basis Set:
  @DF-RHF Final Energy:  -426.31701088908505
    Total Energy =                       -426.3170108890857364
  Basis Set: CC-PVTZ
  Basis Set:
  Charge       = 0
  Multiplicity = 1
  Basis Set: CC-PVTZ
  Basis Set:

    Orbital Energies (a.u.)
    -----------------------

    Doubly Occupied:

       1A    -20.536890     2A    -11.318609     3A    -11.229672
       4A    -11.229597     5A    -11.220093     6A    -11.215014
       7A    -11.210854     8A    -11.210293     9A    -11.205223
      10A    -11.204132    11A     -1.398186    12A     -1.088595
      13A     -1.077104    14A     -1.022224    15A     -0.990292
      16A     -0.910732    17A     -0.866940    18A     -0.809099
      19A     -0.790620    20A     -0.722439    21A     -0.674890
      22A     -0.641395    23A     -0.633088    24A     -0.617823
      25A     -0.607476    26A     -0.584560    27A     -0.578189
      28A     -0.575256    29A     -0.546367    30A     -0.525733
      31A     -0.521383    32A     -0.510401    33A     -0.496541
      34A     -0.480046    35A     -0.473607    36A     -0.467729
      37A     -0.466168    38A     -0.460881    39A     -0.458045
      40A     -0.394259

  @DF-RHF Final Energy:  -426.31701115971941

   => Energetics <=

    Nuclear Repulsion Energy =            540.3302477708075457
    One-Electron Energy =               -1649.3536220086807589
    Two-Electron Energy =                 682.7063630781535721
    DFT Exchange-Correlation Energy =       0.0000000000000000
    Empirical Dispersion Energy =           0.0000000000000000
    PCM Polarization Energy =               0.0000000000000000
    EFP Energy =                            0.0000000000000000
    Total Energy =                       -426.3170111597196410
    Molecular point group: c1
  Basis Set: CC-PVTZ
  Basis Set:

  -Total Gradient:
     Atom            X                  Y                   Z
    ------   -----------------  -----------------  -----------------
       1       -0.000004976154     0.000009614360    -0.000004068518
       2       -0.000001781422    -0.000003612317     0.000009855487
       3       -0.000000742122     0.000000465718    -0.000003016675
       4        0.000008949319     0.000000972992     0.000003052643
       5       -0.000004027541    -0.000010568396    -0.000005145743
       6        0.000003987320    -0.000002306556     0.000010068031
       7        0.000005883147     0.000012299244     0.000005170667
       8       -0.000009791634     0.000001253621    -0.000003467967
       9        0.000001436453     0.000018529459    -0.000020437897
      10        0.000005997284    -0.000000405646     0.000003530072
      11       -0.000003734394    -0.000013520399    -0.000009049907
      12       -0.000289237827     0.005152797460    -0.001339738202
      13       -0.000000634355    -0.000008679428     0.000006599007
      14       -0.000005903827    -0.000002773170     0.000000569077
      15       -0.000120492745    -0.006149237146     0.001866920168
      16        0.000037779941     0.000030714714    -0.000006093576
      17        0.002687519807    -0.005636586695    -0.000145745202
      18       -0.000010211500     0.000001875742    -0.000004438595
      19        0.000014719254    -0.000001065702    -0.000004917127
      20        0.000002344950    -0.000013310372    -0.000004628185
      21       -0.002314606249     0.006607396119    -0.000366427425
      22        0.000004990357    -0.000002885727     0.000000926230
      23        0.000001342434     0.000002289196     0.000006252923
      24       -0.000004279090    -0.000002645808     0.000000046866
      25       -0.000009093876     0.000003270062     0.000007723039
      26        0.000004511616     0.000000643200    -0.000005419682
      27        0.000001153939     0.000004485603     0.000004995819
      28       -0.000001103086     0.000000989870    -0.000003115333

  **** Optimization is complete! (in 30 steps) ****
    Final optimized geometry and variables:
    Molecular point group: c1

    Geometry (in Angstrom), charge = 0, multiplicity = 1:

    H            0.409883314401    -0.848040774090     5.151196751058
    C            0.099558013067    -0.017251471526     4.528064666242
    C            0.711443661578    -0.114809462891     3.134783763485
    H           -0.983774846867    -0.027987081020     4.478147432524
    H            0.398755819233     0.899495588481     5.025909860858
    C            0.306038072397     1.047884658843     2.231380852547
    H            0.411511502444    -1.049716059675     2.676319708843
    H            1.795352826106    -0.140005684413     3.219900867256
    C            0.903388854896     0.977721462176     0.830787059185
    H           -0.773775726221     1.086278487521     2.153212287987
    H            0.622320171350     1.979703593612     2.691135816917
    C            0.296992982590    -0.074711221752    -0.077222874529
    H            0.770611691289     1.926051909117     0.313675662274
    H            1.977982160028     0.819556160326     0.870924202218
    C            1.061222326830    -0.368012131092    -1.355707525466
    O           -0.705628727916    -0.648897327676     0.201226673798
    C            0.225869921287    -0.727845432020    -2.591938106275
    H            1.748341158740    -1.176142658329    -1.117836118332
    H            1.684252315842     0.491762137657    -1.580225172898
    C           -1.028705757708     0.125211639078    -2.798993030025
    H            0.856327594050    -0.553671007416    -3.458599108452
    H           -0.046537940524    -1.775730573669    -2.575681120705
    C           -1.699209097748    -0.156753243461    -4.139727914654
    H           -0.757519337071     1.178255310670    -2.751308649746
    H           -1.733840511598    -0.051955118663    -1.999766782846
    H           -1.031931182683     0.052876583007    -4.969515917533
    H           -1.999623392779    -1.196732691966    -4.212923657555
    H           -2.587009487252     0.451677684218    -4.267530258406

  Mulliken Charges: (a.u.)
   Center  Symbol    Alpha    Beta     Spin     Total
       1     H     0.44869  0.44869  0.00000  0.10263
       2     C     3.15161  3.15161  0.00000 -0.30322
       3     C     3.08467  3.08467  0.00000 -0.16935
       4     H     0.45194  0.45194  0.00000  0.09611
       5     H     0.45696  0.45696  0.00000  0.08608
       6     C     3.08713  3.08713  0.00000 -0.17426
       7     H     0.44525  0.44525  0.00000  0.10949
       8     H     0.45851  0.45851  0.00000  0.08298
       9     C     3.12276  3.12276  0.00000 -0.24553
      10     H     0.44538  0.44538  0.00000  0.10923
      11     H     0.44757  0.44757  0.00000  0.10485
      12     C     2.85807  2.85807  0.00000  0.28386
      13     H     0.43627  0.43627  0.00000  0.12747
      14     H     0.44248  0.44248  0.00000  0.11504
      15     C     3.12269  3.12269  0.00000 -0.24538
      16     O     4.18289  4.18289  0.00000 -0.36579
      17     C     3.07855  3.07855  0.00000 -0.15709
      18     H     0.43660  0.43660  0.00000  0.12679
      19     H     0.44333  0.44333  0.00000  0.11334
      20     C     3.09507  3.09507  0.00000 -0.19015
      21     H     0.45091  0.45091  0.00000  0.09818
      22     H     0.44692  0.44692  0.00000  0.10617
      23     C     3.15174  3.15174  0.00000 -0.30347
      24     H     0.45851  0.45851  0.00000  0.08298
      25     H     0.43642  0.43642  0.00000  0.12715
      26     H     0.45744  0.45744  0.00000  0.08512
      27     H     0.45386  0.45386  0.00000  0.09228
      28     H     0.44776  0.44776  0.00000  0.10448

   Total alpha = 40.00000, Total beta = 40.00000, Total charge = -0.00000

*** Psi4 exiting successfully. Buy a developer a beer!
