  ==> Input File <==

--------------------------------------------------------------------------
set {
	reference rhf
	basis 6-31G*
}

set_num_threads( 1 )
memory 2 gb

molecule MOL {
0 1

H	 2.171896	 -1.330634	 0.005549
N	 2.434251	 -0.367735	 -0.081097
C	 1.267428	 0.496480	 0.024474
H	 2.866899	 -0.265354	 -0.979567
C	 -0.016086	 -0.325158	 -0.029487
H	 1.288818	 1.183521	 -0.816092
H	 1.267576	 1.109062	 0.929528
C	 -1.282277	 0.529072	 0.046735
H	 -0.012495	 -0.908639	 -0.945788
H	 -0.015903	 -1.041248	 0.791956
C	 -2.563920	 -0.301775	 -0.006060
H	 -1.284084	 1.244622	 -0.773004
H	 -1.271387	 1.115393	 0.963286
H	 -2.621848	 -0.873522	 -0.927727
H	 -3.445135	 0.329952	 0.047812
H	 -2.609542	 -1.004582	 0.821105

	symmetry c1
}
set optking {
	frozen_dihedral = ("
		6 3 5 9,
		12 8 5 9
	")
}

ee = energy('scf')
oeprop('DIPOLE', 'QUADRUPOLE', 'MULLIKEN_CHARGES')
f=open( 'psi4out.xyz', 'w' )
f.write( "16  " )
f.write( str(ee) + "\n" )
f.write( MOL.save_string_xyz() )
f.close()
--------------------------------------------------------------------------

    Molecular point group: c1

    Geometry (in Angstrom), charge = 0, multiplicity = 1:

       Center              X                  Y                   Z               Mass
    ------------   -----------------  -----------------  -----------------  -----------------
           H          2.182091062523    -1.319539663531     0.027406065735     1.007825032070
           N          2.444446062523    -0.356640663531    -0.059239934265    14.003074004780
           C          1.277623062523     0.507574336469     0.046331065735    12.000000000000
           H          2.877094062523    -0.254259663531    -0.957709934265     1.007825032070
           C         -0.005890937477    -0.314063663531    -0.007629934265    12.000000000000
           H          1.299013062523     1.194615336469    -0.794234934265     1.007825032070
           H          1.277771062523     1.120156336469     0.951385065735     1.007825032070
           C         -1.272081937477     0.540166336469     0.068592065735    12.000000000000
           H         -0.002299937477    -0.897544663531    -0.923930934265     1.007825032070
           H         -0.005707937477    -1.030153663531     0.813813065735     1.007825032070
           C         -2.553724937477    -0.290680663531     0.015797065735    12.000000000000
           H         -1.273888937477     1.255716336469    -0.751146934265     1.007825032070
           H         -1.261191937477     1.126487336469     0.985143065735     1.007825032070
           H         -2.611652937477    -0.862427663531    -0.905869934265     1.007825032070
           H         -3.434939937477     0.341046336469     0.069669065735     1.007825032070
           H         -2.599346937477    -0.993487663531     0.842962065735     1.007825032070

  Charge       = 0
  Multiplicity = 1
  Basis Set: 6-31G*
  Basis Set:

    Orbital Energies (a.u.)
    -----------------------

    Doubly Occupied:

       1A    -15.529674     2A    -11.240129     3A    -11.218303
       4A    -11.215546     5A    -11.210936     6A     -1.177836
       7A     -1.062180     8A     -0.959728     9A     -0.846998
      10A     -0.799738    11A     -0.669105    12A     -0.634367
      13A     -0.594609    14A     -0.587641    15A     -0.563907
      16A     -0.523286    17A     -0.509488    18A     -0.475904
      19A     -0.474870    20A     -0.466678    21A     -0.373554

  @DF-RHF Final Energy:  -212.31166519284025

   => Energetics <=

    Nuclear Repulsion Energy =            186.7620392581202680
    One-Electron Energy =                -655.8785001429838530
    Two-Electron Energy =                 256.8047956920231627
    DFT Exchange-Correlation Energy =       0.0000000000000000
    Empirical Dispersion Energy =           0.0000000000000000
    PCM Polarization Energy =               0.0000000000000000
    EFP Energy =                            0.0000000000000000
    Total Energy =                       -212.3116651928404508

  Mulliken Charges: (a.u.)
   Center  Symbol    Alpha    Beta     Spin     Total
       1     H     0.33173  0.33173  0.00000  0.33653
       2     N     3.92717  3.92717  0.00000 -0.85433
       3     C     3.04783  3.04783  0.00000 -0.09566
       4     H     0.33236  0.33236  0.00000  0.33529
       5     C     3.16698  3.16698  0.00000 -0.33396
       6     H     0.42668  0.42668  0.00000  0.14664
       7     H     0.42090  0.42090  0.00000  0.15819
       8     C     3.15513  3.15513  0.00000 -0.31026
       9     H     0.42502  0.42502  0.00000  0.14996
      10     H     0.42196  0.42196  0.00000  0.15608
      11     C     3.23899  3.23899  0.00000 -0.47798
      12     H     0.42262  0.42262  0.00000  0.15475
      13     H     0.42077  0.42077  0.00000  0.15845
      14     H     0.42188  0.42188  0.00000  0.15625
      15     H     0.41871  0.41871  0.00000  0.16257
      16     H     0.42126  0.42126  0.00000  0.15747

   Total alpha = 21.00000, Total beta = 21.00000, Total charge =  0.00000
