  ==> Input File <==

--------------------------------------------------------------------------
set {
	reference rhf
	basis 6-31G*
}

set_num_threads( 4 )
memory 2 gb

molecule MOL {
0 1

H	 -1.836216	 1.387520	 -0.000064
C	 -1.301823	 0.443321	 -0.000031
O	 -0.003969	 0.658512	 0.000451
O	 -1.829879	 -0.616434	 -0.000857
C	 0.448232	 1.940662	 0.434953
C	 1.959059	 1.942954	 0.347103
H	 0.104311	 2.107178	 1.446540
H	 0.007611	 2.698983	 -0.197580
H	 2.382560	 1.172077	 0.980687
H	 2.345036	 2.904030	 0.670504
H	 2.285558	 1.766753	 -0.671347

	symmetry c1
}
set optking {
	frozen_dihedral = ("
		5 3 2 4
	")
}

ee = optimize('scf')
oeprop('DIPOLE', 'QUADRUPOLE', 'MULLIKEN_CHARGES')
f=open( 'psi4out.xyz', 'w' )
f.write( "11  " )
f.write( str(ee) + "\n" )
f.write( MOL.save_string_xyz() )
f.close()
--------------------------------------------------------------------------

    Molecular point group: c1
  Charge       = 0
  Multiplicity = 1
  Basis Set: 6-31G*
  Basis Set:
  @DF-RHF Final Energy:  -266.81730456990908
    Total Energy =                       -266.8173045699090835
    Molecular point group: c1
  Basis Set: 6-31G*
  Basis Set:
  Basis Set: 6-31G*
  Basis Set:
  @DF-RHF Final Energy:  -266.81829017188426
    Total Energy =                       -266.8182901718843141
  Basis Set: 6-31G*
  Basis Set:
  Basis Set: 6-31G*
  Basis Set:
  @DF-RHF Final Energy:  -266.81776924238136
    Total Energy =                       -266.8177692423813596
  Basis Set: 6-31G*
  Basis Set:
  Basis Set: 6-31G*
  Basis Set:
  @DF-RHF Final Energy:  -266.81852687505818
    Total Energy =                       -266.8185268750581827
  Basis Set: 6-31G*
  Basis Set:
  Basis Set: 6-31G*
  Basis Set:
  @DF-RHF Final Energy:  -266.81853764056433
    Total Energy =                       -266.8185376405644433
  Basis Set: 6-31G*
  Basis Set:
  Basis Set: 6-31G*
  Basis Set:
  @DF-RHF Final Energy:  -266.81853909628410
    Total Energy =                       -266.8185390962840984
  Basis Set: 6-31G*
  Basis Set:
  Charge       = 0
  Multiplicity = 1
  Basis Set: 6-31G*
  Basis Set:

    Orbital Energies (a.u.)
    -----------------------

    Doubly Occupied:

       1A    -20.610937     2A    -20.556474     3A    -11.379785
       4A    -11.306982     5A    -11.233693     6A     -1.473001
       7A     -1.380204     8A     -1.055597     9A     -0.889234
      10A     -0.847222    11A     -0.739161    12A     -0.694357
      13A     -0.665016    14A     -0.607722    15A     -0.572427
      16A     -0.561411    17A     -0.534250    18A     -0.518918
      19A     -0.457677    20A     -0.449637

  @DF-RHF Final Energy:  -266.81853940378335

   => Energetics <=

    Nuclear Repulsion Energy =            176.2659843808563949
    One-Electron Energy =                -713.1016374823229853
    Two-Electron Energy =                 270.0171136976831576
    DFT Exchange-Correlation Energy =       0.0000000000000000
    Empirical Dispersion Energy =           0.0000000000000000
    PCM Polarization Energy =               0.0000000000000000
    EFP Energy =                            0.0000000000000000
    Total Energy =                       -266.8185394037834612
    Molecular point group: c1
  Basis Set: 6-31G*
  Basis Set:

  -Total Gradient:
     Atom            X                  Y                   Z
    ------   -----------------  -----------------  -----------------
       1       -0.000007058789    -0.000008931291     0.000000428105
       2        0.000507038926    -0.000798461119    -0.003381662372
       3        0.000141489921     0.001070842208    -0.002064482994
       4       -0.000442795902     0.000325127966     0.003068374542
       5       -0.000212268265    -0.000598529348     0.002376982470
       6        0.000008960291     0.000007927928     0.000004698929
       7        0.000007369809     0.000005784287    -0.000003589904
       8        0.000001918115    -0.000001797207    -0.000001573662
       9        0.000000432387    -0.000000909196    -0.000000163407
      10        0.000000613148    -0.000001025934    -0.000000198439
      11       -0.000005699637    -0.000000028293     0.000001186731

  **** Optimization is complete! (in 7 steps) ****
    Final optimized geometry and variables:
    Molecular point group: c1

    Geometry (in Angstrom), charge = 0, multiplicity = 1:

    H           -1.713012361511     0.511257334446    -0.386236581328
    C           -1.163065422363    -0.415298013652    -0.219334260444
    O            0.138692889501    -0.239325147829    -0.054728012811
    O           -1.683978566255    -1.471416013933    -0.187165528800
    C            0.600155753098     1.050298138379     0.315344960808
    C            2.104205579661     1.074189960028     0.145657675684
    H            0.322636986234     1.242507747861     1.345437615167
    H            0.128517257866     1.801638785349    -0.310461797479
    H            2.567005503482     0.316630324092     0.766368306408
    H            2.495170366426     2.044550777300     0.433001552678
    H            2.372540967802     0.883085195335    -0.886587004123

  Mulliken Charges: (a.u.)
   Center  Symbol    Alpha    Beta     Spin     Total
       1     H     0.43241  0.43241  0.00000  0.13518
       2     C     2.72019  2.72019  0.00000  0.55962
       3     O     4.28470  4.28470  0.00000 -0.56941
       4     O     4.24695  4.24695  0.00000 -0.49391
       5     C     3.00962  3.00962  0.00000 -0.01923
       6     C     3.24698  3.24698  0.00000 -0.49395
       7     H     0.41271  0.41271  0.00000  0.17457
       8     H     0.41836  0.41836  0.00000  0.16328
       9     H     0.40470  0.40470  0.00000  0.19059
      10     H     0.41558  0.41558  0.00000  0.16885
      11     H     0.40780  0.40780  0.00000  0.18441

   Total alpha = 20.00000, Total beta = 20.00000, Total charge = -0.00000
