  ==> Input File <==

--------------------------------------------------------------------------
set {
	reference rhf
	basis 6-31G*
}

set_num_threads( 4 )
memory 2 gb

molecule MOL {
0 1

H	 -3.420663	 1.227371	 -1.044276
O	 -3.452007	 0.283848	 -0.965577
C	 -3.181085	 -0.079926	 0.364119
C	 -1.765924	 0.277073	 0.805136
H	 -3.327791	 -1.152017	 0.410903
H	 -3.905698	 0.375695	 1.036898
C	 -0.677594	 -0.417312	 -0.014550
H	 -1.637766	 1.358238	 0.744969
H	 -1.659588	 0.017670	 1.857098
C	 0.738335	 -0.034840	 0.421385
H	 -0.814977	 -0.178223	 -1.064632
H	 -0.802730	 -1.495410	 0.071702
C	 1.822265	 -0.738362	 -0.399735
H	 0.853533	 1.043532	 0.342250
H	 0.871597	 -0.279636	 1.474438
C	 3.251946	 -0.263624	 -0.115498
H	 1.607572	 -0.614187	 -1.460010
H	 1.768462	 -1.807200	 -0.203504
C	 3.533060	 1.184963	 -0.519200
H	 3.942558	 -0.913433	 -0.647563
H	 3.469852	 -0.392313	 0.942878
H	 3.311887	 1.346631	 -1.570906
H	 4.577961	 1.433557	 -0.360386
H	 2.940884	 1.889376	 0.055511

	symmetry c1
}
set optking {
	frozen_dihedral = ("
		17 13 10 7
	")
}

ee = optimize('scf')
oeprop('DIPOLE', 'QUADRUPOLE', 'MULLIKEN_CHARGES')
f=open( 'psi4out.xyz', 'w' )
f.write( "24  " )
f.write( str(ee) + "\n" )
f.write( MOL.save_string_xyz() )
f.close()
--------------------------------------------------------------------------

    Molecular point group: c1
  Charge       = 0
  Multiplicity = 1
  Basis Set: 6-31G*
  Basis Set:
  @DF-RHF Final Energy:  -349.24722217732364
    Total Energy =                       -349.2472221773239767
    Molecular point group: c1
  Basis Set: 6-31G*
  Basis Set:
  Basis Set: 6-31G*
  Basis Set:
  @DF-RHF Final Energy:  -349.24703677367376
    Total Energy =                       -349.2470367736736421
  Basis Set: 6-31G*
  Basis Set:
  Basis Set: 6-31G*
  Basis Set:
  @DF-RHF Final Energy:  -349.24729976421236
    Total Energy =                       -349.2472997642125847
  Basis Set: 6-31G*
  Basis Set:
  Basis Set: 6-31G*
  Basis Set:
  @DF-RHF Final Energy:  -349.24730733045749
    Total Energy =                       -349.2473073304573745
  Basis Set: 6-31G*
  Basis Set:
  Basis Set: 6-31G*
  Basis Set:
  @DF-RHF Final Energy:  -349.24730877460655
    Total Energy =                       -349.2473087746065517
  Basis Set: 6-31G*
  Basis Set:
  Basis Set: 6-31G*
  Basis Set:
  @DF-RHF Final Energy:  -349.24731021482432
    Total Energy =                       -349.2473102148242674
  Basis Set: 6-31G*
  Basis Set:
  Charge       = 0
  Multiplicity = 1
  Basis Set: 6-31G*
  Basis Set:

    Orbital Energies (a.u.)
    -----------------------

    Doubly Occupied:

       1A    -20.553586     2A    -11.267704     3A    -11.217463
       4A    -11.214259     5A    -11.212398     6A    -11.211565
       7A    -11.211111     8A    -11.207394     9A     -1.360177
      10A     -1.088406    11A     -1.048252    12A     -0.985838
      13A     -0.915111    14A     -0.850073    15A     -0.800480
      16A     -0.777182    17A     -0.678989    18A     -0.653972
      19A     -0.624420    20A     -0.619858    21A     -0.598109
      22A     -0.582417    23A     -0.560251    24A     -0.538823
      25A     -0.514030    26A     -0.511494    27A     -0.497958
      28A     -0.472996    29A     -0.467383    30A     -0.459052
      31A     -0.456794    32A     -0.450105    33A     -0.419001

  @DF-RHF Final Energy:  -349.24731022993541

   => Energetics <=

    Nuclear Repulsion Energy =            384.6091668712929845
    One-Electron Energy =               -1235.6596509390515166
    Two-Electron Energy =                 501.8031738378233513
    DFT Exchange-Correlation Energy =       0.0000000000000000
    Empirical Dispersion Energy =           0.0000000000000000
    PCM Polarization Energy =               0.0000000000000000
    EFP Energy =                            0.0000000000000000
    Total Energy =                       -349.2473102299352377
    Molecular point group: c1
  Basis Set: 6-31G*
  Basis Set:

  -Total Gradient:
     Atom            X                  Y                   Z
    ------   -----------------  -----------------  -----------------
       1       -0.000001213161     0.000004217454    -0.000003110615
       2       -0.000014483751     0.000012890098     0.000009916460
       3        0.000007882283    -0.000030988790    -0.000005299720
       4        0.000001482106     0.000021322265    -0.000006307105
       5       -0.000001386299    -0.000002426477    -0.000000170576
       6        0.000001984828    -0.000000729940    -0.000001806867
       7       -0.000008396837     0.000970931282    -0.000839964136
       8        0.000004752827     0.000004638402    -0.000000358083
       9       -0.000002806633     0.000004277253    -0.000001494479
      10       -0.000225365077    -0.001720120395     0.001173445274
      11       -0.000000041105    -0.000002163109     0.000009435012
      12        0.000003410518    -0.000001293964    -0.000005019223
      13        0.001153425596     0.002222311628    -0.000345449232
      14       -0.000001538658    -0.000007492076    -0.000006117649
      15        0.000005610117     0.000005961108     0.000004104119
      16        0.000014599255    -0.000003808488    -0.000001841529
      17       -0.000947073635    -0.001493485377     0.000013059988
      18       -0.000009831363     0.000008428364    -0.000002435332
      19        0.000003239328     0.000000770766     0.000008721418
      20        0.000005276932     0.000000718340     0.000002112778
      21        0.000009090332     0.000005224464    -0.000001449230
      22        0.000001989485    -0.000003524931     0.000000660768
      23       -0.000001073221     0.000002132504     0.000000819339
      24        0.000000466139     0.000002209620    -0.000001451379

  **** Optimization is complete! (in 7 steps) ****
    Final optimized geometry and variables:
    Molecular point group: c1

    Geometry (in Angstrom), charge = 0, multiplicity = 1:

    H           -3.410663585326     1.202643857760    -0.931995559195
    O           -3.435381329511     0.256886944076    -0.884240511089
    C           -3.164376184521    -0.148168186868     0.433483867717
    C           -1.752278505007     0.203453236226     0.888513909428
    H           -3.304054029105    -1.222060380500     0.445041660706
    H           -3.893099526181     0.280540888189     1.119303702478
    C           -0.658210610226    -0.457481103459     0.049113529410
    H           -1.630900105219     1.286811031016     0.862975347368
    H           -1.646109551173    -0.088616632896     1.931856075467
    C            0.754394526310    -0.070421117639     0.491449219049
    H           -0.798778077362    -0.191260595841    -0.993729234871
    H           -0.772995646782    -1.538930812485     0.106100597027
    C            1.845045435713    -0.768379634786    -0.326372132053
    H            0.860226596774     1.008768844544     0.409575269389
    H            0.889539001883    -0.310073314772     1.545048193991
    C            3.274774714791    -0.306191576884    -0.023075888451
    H            1.637366292989    -0.645094430504    -1.388048513640
    H            1.780740170354    -1.838376534963    -0.137881608741
    C            3.592590287888     1.119492464085    -0.478140768516
    H            3.968006171330    -0.987546578973    -0.510128994492
    H            3.463040165359    -0.395990900613     1.045025272798
    H            3.415671628570     1.236166712154    -1.543941733810
    H            4.634077693067     1.361041244088    -0.288768602044
    H            2.989268657169     1.857497423168     0.039875556085

  Mulliken Charges: (a.u.)
   Center  Symbol    Alpha    Beta     Spin     Total
       1     H     0.28338  0.28338  0.00000  0.43324
       2     O     4.36831  4.36831  0.00000 -0.73662
       3     C     2.99616  2.99616  0.00000  0.00767
       4     C     3.16898  3.16898  0.00000 -0.33797
       5     H     0.41630  0.41630  0.00000  0.16740
       6     H     0.42816  0.42816  0.00000  0.14367
       7     C     3.15209  3.15209  0.00000 -0.30417
       8     H     0.42836  0.42836  0.00000  0.14327
       9     H     0.42232  0.42232  0.00000  0.15537
      10     C     3.15338  3.15338  0.00000 -0.30677
      11     H     0.41179  0.41179  0.00000  0.17642
      12     H     0.42374  0.42374  0.00000  0.15253
      13     C     3.15278  3.15278  0.00000 -0.30556
      14     H     0.42346  0.42346  0.00000  0.15308
      15     H     0.42487  0.42487  0.00000  0.15027
      16     C     3.15254  3.15254  0.00000 -0.30507
      17     H     0.42338  0.42338  0.00000  0.15323
      18     H     0.42220  0.42220  0.00000  0.15560
      19     C     3.24061  3.24061  0.00000 -0.48122
      20     H     0.42091  0.42091  0.00000  0.15817
      21     H     0.42374  0.42374  0.00000  0.15252
      22     H     0.42200  0.42200  0.00000  0.15600
      23     H     0.41956  0.41956  0.00000  0.16088
      24     H     0.42097  0.42097  0.00000  0.15806

   Total alpha = 33.00000, Total beta = 33.00000, Total charge = -0.00000
