  ==> Input File <==

--------------------------------------------------------------------------
set {
	reference rhf
	basis cc-pvtz
}

set_num_threads( 4 )
memory 2 gb

molecule MOL {
0 1

O	 -0.294688	 1.318815	 -0.000872
C	 -0.448732	 0.145721	 -0.000187
C	 -1.780748	 -0.548101	 0.000195
O	 0.550743	 -0.719877	 0.000412
H	 -1.859389	 -1.183260	 -0.872613
H	 -2.570236	 0.185547	 -0.001342
H	 -1.860233	 -1.180337	 0.875064
C	 0.897504	 -1.308235	 1.238417
H	 1.197398	 -0.551976	 1.948463
H	 1.720597	 -1.972652	 1.031655
H	 0.063557	 -1.861720	 1.643644

	symmetry c1
}
set optking {
	frozen_dihedral = ("
		8 4 2 1
	")
}

ee = optimize('scf')
oeprop('DIPOLE', 'QUADRUPOLE', 'MULLIKEN_CHARGES')
f=open( 'psi4out.xyz', 'w' )
f.write( "11  " )
f.write( str(ee) + "\n" )
f.write( MOL.save_string_xyz() )
f.close()
--------------------------------------------------------------------------

    Molecular point group: c1
  Charge       = 0
  Multiplicity = 1
  Basis Set: CC-PVTZ
  Basis Set:
  @DF-RHF Final Energy:  -266.91699290899771
    Total Energy =                       -266.9169929089974858
    Molecular point group: c1
  Basis Set: CC-PVTZ
  Basis Set:
  Basis Set: CC-PVTZ
  Basis Set:
  @DF-RHF Final Energy:  -266.91608271072471
    Total Energy =                       -266.9160827107247087
  Basis Set: CC-PVTZ
  Basis Set:
  Basis Set: CC-PVTZ
  Basis Set:
  @DF-RHF Final Energy:  -266.91809390243509
    Total Energy =                       -266.9180939024350891
  Basis Set: CC-PVTZ
  Basis Set:
  Basis Set: CC-PVTZ
  Basis Set:
  @DF-RHF Final Energy:  -266.91891650766405
    Total Energy =                       -266.9189165076641075
  Basis Set: CC-PVTZ
  Basis Set:
  @DF-RHF Final Energy:  -266.91894319418941
    Total Energy =                       -266.9189431941893531
  Basis Set: CC-PVTZ
  Basis Set:
  @DF-RHF Final Energy:  -266.91894877506837
    Total Energy =                       -266.9189487750683156
  Basis Set: CC-PVTZ
  Basis Set:
  Basis Set: CC-PVTZ
  Basis Set:
  @DF-RHF Final Energy:  -266.91895130339685
    Total Energy =                       -266.9189513033971934
  Basis Set: CC-PVTZ
  Basis Set:
  Basis Set: CC-PVTZ
  Basis Set:
  @DF-RHF Final Energy:  -266.91895260268541
    Total Energy =                       -266.9189526026854082
  Basis Set: CC-PVTZ
  Basis Set:
  Charge       = 0
  Multiplicity = 1
  Basis Set: CC-PVTZ
  Basis Set:

    Orbital Energies (a.u.)
    -----------------------

    Doubly Occupied:

       1A    -20.580912     2A    -20.547000     3A    -11.372358
       4A    -11.291905     5A    -11.238608     6A     -1.463817
       7A     -1.372558     8A     -1.026348     9A     -0.967602
      10A     -0.780786    11A     -0.697368    12A     -0.687283
      13A     -0.672162    14A     -0.617268    15A     -0.589704
      16A     -0.580072    17A     -0.544400    18A     -0.497265
      19A     -0.464831    20A     -0.444385

  @DF-RHF Final Energy:  -266.91895327555085

   => Energetics <=

    Nuclear Repulsion Energy =            182.7139989060775918
    One-Electron Energy =                -726.3926401142522309
    Two-Electron Energy =                 276.7596879326240469
    DFT Exchange-Correlation Energy =       0.0000000000000000
    Empirical Dispersion Energy =           0.0000000000000000
    PCM Polarization Energy =               0.0000000000000000
    EFP Energy =                            0.0000000000000000
    Total Energy =                       -266.9189532755506207
    Molecular point group: c1
  Basis Set: CC-PVTZ
  Basis Set:

  -Total Gradient:
     Atom            X                  Y                   Z
    ------   -----------------  -----------------  -----------------
       1       -0.000024908558    -0.000046393014    -0.001106912209
       2       -0.000275473420    -0.000221278882     0.001552728862
       3        0.000004197681    -0.000015846524     0.000006423295
       4        0.000859382543     0.000950720185    -0.000338656931
       5        0.000002009578     0.000004371619    -0.000002859082
       6       -0.000004359476     0.000000234821    -0.000003787058
       7        0.000007428787     0.000008793733    -0.000003189840
       8       -0.000569527362    -0.000695056109    -0.000094685224
       9        0.000000351322     0.000001420037    -0.000002770880
      10       -0.000002050089     0.000008726160    -0.000006253831
      11        0.000002948995     0.000004307974    -0.000000037101

  **** Optimization is complete! (in 9 steps) ****
    Final optimized geometry and variables:
    Molecular point group: c1

    Geometry (in Angstrom), charge = 0, multiplicity = 1:

    O           -0.081359034944     1.530191445452    -0.290443625439
    C           -0.264794063637     0.370218044941    -0.248587374626
    C           -1.623528203625    -0.273830315375    -0.285373053110
    O            0.764161414136    -0.503368941309    -0.244520040634
    H           -1.707029400770    -0.853132142574    -1.196810140731
    H           -2.390317703359     0.483189953487    -0.257637246319
    H           -1.748892935918    -0.955958743942     0.545604425130
    C            1.150465060833    -1.051174174221     0.994403253782
    H            1.457057469359    -0.269550620199     1.678236439388
    H            1.987216810772    -1.701242019304     0.797680870395
    H            0.350935854634    -1.631246088921     1.440773397909

  Mulliken Charges: (a.u.)
   Center  Symbol    Alpha    Beta     Spin     Total
       1     O     4.16649  4.16649  0.00000 -0.33298
       2     C     2.79906  2.79906  0.00000  0.40188
       3     C     3.14381  3.14381  0.00000 -0.28763
       4     O     4.16277  4.16277  0.00000 -0.32554
       5     H     0.44335  0.44335  0.00000  0.11330
       6     H     0.43637  0.43637  0.00000  0.12727
       7     H     0.45151  0.45151  0.00000  0.09698
       8     C     3.03132  3.03132  0.00000 -0.06264
       9     H     0.45642  0.45642  0.00000  0.08715
      10     H     0.44208  0.44208  0.00000  0.11584
      11     H     0.46681  0.46681  0.00000  0.06637

   Total alpha = 20.00000, Total beta = 20.00000, Total charge = -0.00000
