  ==> Input File <==

--------------------------------------------------------------------------
set {
	reference rhf
	basis 6-31G*
}

set_num_threads( 4 )
memory 2 gb

molecule MOL {
0 1

O	 0.749854	 1.307668	 -0.000040
C	 0.576249	 0.131685	 -0.000108
C	 -0.766779	 -0.556801	 -0.000461
O	 1.568443	 -0.749345	 -0.000005
C	 -1.945214	 0.412366	 0.000161
H	 -0.796911	 -1.211249	 -0.867467
H	 -0.796854	 -1.212390	 0.865687
C	 -3.287791	 -0.317055	 0.000105
H	 -1.876087	 1.060580	 -0.866812
H	 -1.875822	 1.059691	 0.867761
H	 -3.394745	 -0.949193	 -0.877058
H	 -4.111778	 0.388953	 0.000015
H	 -3.394954	 -0.949187	 0.877259
C	 1.323522	 -1.993160	 -0.630993
H	 0.503878	 -2.507978	 -0.150694
H	 2.234615	 -2.561376	 -0.526569
H	 1.089308	 -1.849582	 -1.676000

	symmetry c1
}
set optking {
	frozen_dihedral = ("
		14 4 2 1
	")
}

ee = optimize('scf')
oeprop('DIPOLE', 'QUADRUPOLE', 'MULLIKEN_CHARGES')
f=open( 'psi4out.xyz', 'w' )
f.write( "17  " )
f.write( str(ee) + "\n" )
f.write( MOL.save_string_xyz() )
f.close()
--------------------------------------------------------------------------

    Molecular point group: c1
  Charge       = 0
  Multiplicity = 1
  Basis Set: 6-31G*
  Basis Set:
  @DF-RHF Final Energy:  -344.88107089207494
    Total Energy =                       -344.8810708920747743
    Molecular point group: c1
  Basis Set: 6-31G*
  Basis Set:
  Basis Set: 6-31G*
  Basis Set:
  @DF-RHF Final Energy:  -344.88077616461032
    Total Energy =                       -344.8807761646100971
  Basis Set: 6-31G*
  Basis Set:
  Basis Set: 6-31G*
  Basis Set:
  @DF-RHF Final Energy:  -344.88830542041251
    Total Energy =                       -344.8883054204126211
  Basis Set: 6-31G*
  Basis Set:
  Basis Set: 6-31G*
  Basis Set:
  @DF-RHF Final Energy:  -344.88961793329133
    Total Energy =                       -344.8896179332913334
  Basis Set: 6-31G*
  Basis Set:
  @DF-RHF Final Energy:  -344.88874567748633
    Total Energy =                       -344.8887456774862130
  Basis Set: 6-31G*
  Basis Set:
  @DF-RHF Final Energy:  -344.88995793270709
    Total Energy =                       -344.8899579327070910
  Basis Set: 6-31G*
  Basis Set:
  Basis Set: 6-31G*
  Basis Set:
  @DF-RHF Final Energy:  -344.89005171069363
    Total Energy =                       -344.8900517106934558
  Basis Set: 6-31G*
  Basis Set:
  Basis Set: 6-31G*
  Basis Set:
  @DF-RHF Final Energy:  -344.89005286839273
    Total Energy =                       -344.8900528683928997
  Basis Set: 6-31G*
  Basis Set:
  Charge       = 0
  Multiplicity = 1
  Basis Set: 6-31G*
  Basis Set:

    Orbital Energies (a.u.)
    -----------------------

    Doubly Occupied:

       1A    -20.598609     2A    -20.544044     3A    -11.374479
       4A    -11.296377     5A    -11.245470     6A    -11.226390
       7A    -11.218688     8A     -1.462195     9A     -1.366469
      10A     -1.082745    11A     -0.989486    12A     -0.967766
      13A     -0.838745    14A     -0.766592    15A     -0.703239
      16A     -0.686755    17A     -0.673595    18A     -0.641358
      19A     -0.606159    20A     -0.580183    21A     -0.570158
      22A     -0.546451    23A     -0.526438    24A     -0.495880
      25A     -0.490768    26A     -0.484046    27A     -0.449867
      28A     -0.432689

  @DF-RHF Final Energy:  -344.89005292663290

   => Energetics <=

    Nuclear Repulsion Energy =            313.8247614998898030
    One-Electron Energy =               -1091.6983453021987316
    Two-Electron Energy =                 432.9835308756761378
    DFT Exchange-Correlation Energy =       0.0000000000000000
    Empirical Dispersion Energy =           0.0000000000000000
    PCM Polarization Energy =               0.0000000000000000
    EFP Energy =                            0.0000000000000000
    Total Energy =                       -344.8900529266328476
    Molecular point group: c1
  Basis Set: 6-31G*
  Basis Set:

  -Total Gradient:
     Atom            X                  Y                   Z
    ------   -----------------  -----------------  -----------------
       1        0.000088372787    -0.000079290737    -0.003205695509
       2        0.000377201227     0.000668993600     0.003290004341
       3        0.000008178474    -0.000003698127    -0.000012464228
       4       -0.001401546422    -0.001619971069     0.002303411471
       5        0.000001243703     0.000001310883     0.000024270684
       6        0.000005465212     0.000003072950    -0.000000541316
       7        0.000001045279     0.000006252634    -0.000002024068
       8       -0.000001112009     0.000001422726    -0.000015297236
       9       -0.000002612507     0.000001700646    -0.000000375914
      10        0.000003054800    -0.000003136924    -0.000000265812
      11       -0.000001125862    -0.000004137339     0.000001265107
      12       -0.000001304401     0.000000046286    -0.000002980441
      13        0.000002197608     0.000004572348     0.000002164393
      14        0.000921903597     0.001038179464    -0.002371932795
      15        0.000007103721     0.000002525260    -0.000004510744
      16       -0.000004108662    -0.000009544707     0.000000512831
      17       -0.000003956555    -0.000008297901    -0.000005540764

  **** Optimization is complete! (in 9 steps) ****
    Final optimized geometry and variables:
    Molecular point group: c1

    Geometry (in Angstrom), charge = 0, multiplicity = 1:

    O            0.946381501877     1.517027347096     0.021810210848
    C            0.769768052713     0.347367211873     0.042603736995
    C           -0.605269809699    -0.290904000474     0.046429083988
    O            1.824882331740    -0.476234928152     0.093882649819
    C           -1.733434884918     0.732167452660     0.155955444492
    H           -0.721589592029    -0.878709586502    -0.860974878311
    H           -0.647502782828    -0.999345988911     0.870195831848
    C           -3.109470831068     0.068299683780     0.160281097453
    H           -1.660138331465     1.431995931164    -0.668414822744
    H           -1.599487429077     1.314942019935     1.060470483893
    H           -3.280337220634    -0.496974963291    -0.751912759650
    H           -3.895951790665     0.811560900035     0.238463204616
    H           -3.217986187549    -0.615341674766     0.997787771185
    C            1.790792068655    -1.763328859664    -0.477067360944
    H            1.103641794951    -2.419978197587     0.041823314284
    H            2.791362703014    -2.154999354577    -0.381355829710
    H            1.528362663784    -1.718948259141    -1.527325508227

  Mulliken Charges: (a.u.)
   Center  Symbol    Alpha    Beta     Spin     Total
       1     O     4.26251  4.26251  0.00000 -0.52503
       2     C     2.60195  2.60195  0.00000  0.79611
       3     C     3.22956  3.22956  0.00000 -0.45911
       4     O     4.30511  4.30511  0.00000 -0.61021
       5     C     3.14904  3.14904  0.00000 -0.29808
       6     H     0.40539  0.40539  0.00000  0.18922
       7     H     0.40303  0.40303  0.00000  0.19394
       8     C     3.24340  3.24340  0.00000 -0.48681
       9     H     0.40755  0.40755  0.00000  0.18491
      10     H     0.40889  0.40889  0.00000  0.18221
      11     H     0.42225  0.42225  0.00000  0.15551
      12     H     0.41359  0.41359  0.00000  0.17283
      13     H     0.42160  0.42160  0.00000  0.15680
      14     C     3.09423  3.09423  0.00000 -0.18845
      15     H     0.41770  0.41770  0.00000  0.16460
      16     H     0.39850  0.39850  0.00000  0.20300
      17     H     0.41572  0.41572  0.00000  0.16857

   Total alpha = 28.00000, Total beta = 28.00000, Total charge =  0.00000
