  ==> Input File <==

--------------------------------------------------------------------------
set {
	reference rhf
	basis 6-31G*
}

set_num_threads( 1 )
memory 2 gb

molecule MOL {
0 1

H	 -3.892951	 0.981613	 -0.358725
C	 -3.196921	 0.361773	 0.172313
C	 -2.076860	 -0.007332	 -0.404944
H	 -3.439953	 0.057760	 1.173024
O	 -1.341608	 0.847813	 -1.163227
H	 -1.666019	 -0.995712	 -0.297659
C	 -0.270429	 0.335867	 -1.879003
C	 -0.700695	 -0.191268	 -3.229297
H	 0.234542	 -0.464317	 -1.349470
H	 0.429497	 1.141350	 -2.045701
F	 0.360241	 -0.634382	 -3.887986
F	 -1.551468	 -1.197707	 -3.114848
F	 -1.275147	 0.738878	 -3.963615

	symmetry c1
}
set optking {
	frozen_dihedral = ("
		11 8 7 9,
		3 5 7 9,
		6 3 5 7
	")
}

ee = energy('scf')
oeprop('DIPOLE', 'QUADRUPOLE', 'MULLIKEN_CHARGES')
f=open( 'psi4out.xyz', 'w' )
f.write( "13  " )
f.write( str(ee) + "\n" )
f.write( MOL.save_string_xyz() )
f.close()
--------------------------------------------------------------------------

    Molecular point group: c1

    Geometry (in Angstrom), charge = 0, multiplicity = 1:

       Center              X                  Y                   Z               Mass
    ------------   -----------------  -----------------  -----------------  -----------------
           H         -2.689618927801     0.985530768193     1.973614242369     1.007825032070
           C         -1.993588927801     0.365690768193     2.504652242369    12.000000000000
           C         -0.873527927801    -0.003414231807     1.927395242369    12.000000000000
           H         -2.236620927801     0.061677768193     3.505363242369     1.007825032070
           O         -0.138275927801     0.851730768193     1.169112242369    15.994914619560
           H         -0.462686927801    -0.991794231807     2.034680242369     1.007825032070
           C          0.932903072199     0.339784768193     0.453336242369    12.000000000000
           C          0.502637072199    -0.187350231807    -0.896957757631    12.000000000000
           H          1.437874072199    -0.460399231807     0.982869242369     1.007825032070
           H          1.632829072199     1.145267768193     0.286638242369     1.007825032070
           F          1.563573072199    -0.630464231807    -1.555646757631    18.998403224000
           F         -0.348135927801    -1.193789231807    -0.782508757631    18.998403224000
           F         -0.071814927801     0.742795768193    -1.631275757631    18.998403224000

  Charge       = 0
  Multiplicity = 1
  Basis Set: 6-31G*
  Basis Set:

    Orbital Energies (a.u.)
    -----------------------

    Doubly Occupied:

       1A    -26.346681     2A    -26.345855     3A    -26.342530
       4A    -20.614796     5A    -11.505024     6A    -11.319537
       7A    -11.305945     8A    -11.210485     9A     -1.743785
      10A     -1.641898    11A     -1.640321    12A     -1.442532
      13A     -1.085799    14A     -1.017191    15A     -0.927083
      16A     -0.838514    17A     -0.833053    18A     -0.822739
      19A     -0.793500    20A     -0.722898    21A     -0.713121
      22A     -0.696410    23A     -0.677037    24A     -0.662321
      25A     -0.656550    26A     -0.645164    27A     -0.639113
      28A     -0.585097    29A     -0.574232    30A     -0.524688
      31A     -0.509561    32A     -0.329631

  @DF-RHF Final Energy:  -527.50137991104521

   => Energetics <=

    Nuclear Repulsion Energy =            413.5575876311357320
    One-Electron Energy =               -1550.6918450351558931
    Two-Electron Energy =                 609.6328774929752399
    DFT Exchange-Correlation Energy =       0.0000000000000000
    Empirical Dispersion Energy =           0.0000000000000000
    PCM Polarization Energy =               0.0000000000000000
    EFP Energy =                            0.0000000000000000
    Total Energy =                       -527.5013799110449781

  Mulliken Charges: (a.u.)
   Center  Symbol    Alpha    Beta     Spin     Total
       1     H     0.40333  0.40333  0.00000  0.19334
       2     C     3.24656  3.24656  0.00000 -0.49312
       3     C     2.89593  2.89593  0.00000  0.20813
       4     H     0.40414  0.40414  0.00000  0.19173
       5     O     4.29028  4.29028  0.00000 -0.58056
       6     H     0.40739  0.40739  0.00000  0.18522
       7     C     3.06557  3.06557  0.00000 -0.13113
       8     C     2.45646  2.45646  0.00000  1.08708
       9     H     0.40474  0.40474  0.00000  0.19053
      10     H     0.38886  0.38886  0.00000  0.22228
      11     F     4.68261  4.68261  0.00000 -0.36522
      12     F     4.67982  4.67982  0.00000 -0.35963
      13     F     4.67433  4.67433  0.00000 -0.34866

   Total alpha = 32.00000, Total beta = 32.00000, Total charge =  0.00000
