  ==> Input File <==

--------------------------------------------------------------------------
set {
	reference rhf
	basis cc-pvtz
}

set_num_threads( 4 )
memory 2 gb

molecule MOL {
0 1

H	 -0.000105	 1.988529	 0.748933
O	 -0.000098	 1.879786	 -0.188206
C	 -0.000014	 0.545691	 -0.532416
C	 0.337910	 0.382872	 -2.015344
C	 -1.315318	 -0.109467	 -0.107543
H	 0.787405	 0.059302	 0.024412
F	 1.520881	 0.895618	 -2.248866
F	 0.363950	 -0.872694	 -2.384922
F	 -0.528864	 1.016219	 -2.776231
F	 -1.458709	 0.008264	 1.189545
F	 -1.354245	 -1.384375	 -0.402173
F	 -2.347268	 0.474701	 -0.677809

	symmetry c1
}
set optking {
	frozen_dihedral = ("
		6 3 2 1
	")
}

ee = optimize('scf')
oeprop('DIPOLE', 'QUADRUPOLE', 'MULLIKEN_CHARGES')
f=open( 'psi4out.xyz', 'w' )
f.write( "12  " )
f.write( str(ee) + "\n" )
f.write( MOL.save_string_xyz() )
f.close()
--------------------------------------------------------------------------

    Molecular point group: c1
  Charge       = 0
  Multiplicity = 1
  Basis Set: CC-PVTZ
  Basis Set:
  @DF-RHF Final Energy:  -786.58591660393483
    Total Energy =                       -786.5859166039340380
    Molecular point group: c1
  Basis Set: CC-PVTZ
  Basis Set:
  Basis Set: CC-PVTZ
  Basis Set:
  @DF-RHF Final Energy:  -786.58771460620301
    Total Energy =                       -786.5877146062028942
  Basis Set: CC-PVTZ
  Basis Set:
  Basis Set: CC-PVTZ
  Basis Set:
  @DF-RHF Final Energy:  -786.58812144137823
    Total Energy =                       -786.5881214413788030
  Basis Set: CC-PVTZ
  Basis Set:
  Basis Set: CC-PVTZ
  Basis Set:
  @DF-RHF Final Energy:  -786.58817023234678
    Total Energy =                       -786.5881702323468971
  Basis Set: CC-PVTZ
  Basis Set:
  Basis Set: CC-PVTZ
  Basis Set:
  @DF-RHF Final Energy:  -786.58817828171857
    Total Energy =                       -786.5881782817187968
  Basis Set: CC-PVTZ
  Basis Set:
  Basis Set: CC-PVTZ
  Basis Set:
  @DF-RHF Final Energy:  -786.58817990578427
    Total Energy =                       -786.5881799057841590
  Basis Set: CC-PVTZ
  Basis Set:
  Charge       = 0
  Multiplicity = 1
  Basis Set: CC-PVTZ
  Basis Set:

    Orbital Energies (a.u.)
    -----------------------

    Doubly Occupied:

       1A    -26.357970     2A    -26.355820     3A    -26.353875
       4A    -26.351864     5A    -26.348580     6A    -26.348089
       7A    -20.609422     8A    -11.518336     9A    -11.516226
      10A    -11.351592    11A     -1.769439    12A     -1.762037
      13A     -1.664065    14A     -1.663060    15A     -1.657497
      16A     -1.656038    17A     -1.439738    18A     -1.103865
      19A     -0.999465    20A     -0.940505    21A     -0.871990
      22A     -0.863141    23A     -0.858958    24A     -0.848143
      25A     -0.837497    26A     -0.788597    27A     -0.763913
      28A     -0.735354    29A     -0.727975    30A     -0.723618
      31A     -0.721343    32A     -0.688777    33A     -0.685241
      34A     -0.674104    35A     -0.673989    36A     -0.666106
      37A     -0.658738    38A     -0.637037    39A     -0.622778
      40A     -0.553443    41A     -0.509907

  @DF-RHF Final Energy:  -786.58818046931003

   => Energetics <=

    Nuclear Repulsion Energy =            670.7387975006225815
    One-Electron Energy =               -2428.8976891948323100
    Two-Electron Energy =                 971.5707112249000375
    DFT Exchange-Correlation Energy =       0.0000000000000000
    Empirical Dispersion Energy =           0.0000000000000000
    PCM Polarization Energy =               0.0000000000000000
    EFP Energy =                            0.0000000000000000
    Total Energy =                       -786.5881804693095773
    Molecular point group: c1
  Basis Set: CC-PVTZ
  Basis Set:

  -Total Gradient:
     Atom            X                  Y                   Z
    ------   -----------------  -----------------  -----------------
       1        0.000010432585     0.000019690159     0.000026488687
       2       -0.000037075883     0.000031516823     0.000029412562
       3        0.000017812174    -0.000030818530    -0.000085923797
       4       -0.000018741760    -0.000010246642    -0.000004394199
       5       -0.000003434111     0.000051261433    -0.000038383206
       6       -0.000020156593    -0.000006170684    -0.000000640734
       7        0.000023378145    -0.000021708022     0.000015595414
       8        0.000017558378     0.000000074869     0.000018748613
       9       -0.000023566775     0.000014195043     0.000016662497
      10        0.000045708362    -0.000031549156     0.000014384197
      11       -0.000023342369     0.000005847944     0.000033815998
      12        0.000011427858    -0.000022093250    -0.000025766042

  **** Optimization is complete! (in 7 steps) ****
    Final optimized geometry and variables:
    Molecular point group: c1

    Geometry (in Angstrom), charge = 0, multiplicity = 1:

    H            0.528846113376     1.714263585560     1.757090185746
    O            0.509197464430     1.591117505252     0.824427864574
    C            0.507380228605     0.250348186081     0.504340270357
    C            0.820140673834     0.153066344859    -0.986833291803
    C           -0.817863784518    -0.396261023639     0.910861972207
    H            1.286764965226    -0.303748536969     1.015563658661
    F            2.031492031536     0.605302102526    -1.204503328536
    F            0.779904757257    -1.095418921236    -1.391630956678
    F           -0.010037823629     0.846550633251    -1.718724908934
    F           -1.019825557159    -0.147081583298     2.191534637394
    F           -0.786119044814    -1.697745653682     0.763286994865
    F           -1.842342049002     0.069475064403     0.248289884277

  Mulliken Charges: (a.u.)
   Center  Symbol    Alpha    Beta     Spin     Total
       1     H     0.38330  0.38330  0.00000  0.23341
       2     O     4.18471  4.18471  0.00000 -0.36942
       3     C     2.99944  2.99944  0.00000  0.00111
       4     C     2.67641  2.67641  0.00000  0.64719
       5     C     2.68250  2.68250  0.00000  0.63500
       6     H     0.44462  0.44462  0.00000  0.11075
       7     F     4.60426  4.60426  0.00000 -0.20853
       8     F     4.60574  4.60574  0.00000 -0.21148
       9     F     4.60132  4.60132  0.00000 -0.20265
      10     F     4.61369  4.61369  0.00000 -0.22737
      11     F     4.60407  4.60407  0.00000 -0.20814
      12     F     4.59993  4.59993  0.00000 -0.19987

   Total alpha = 41.00000, Total beta = 41.00000, Total charge = -0.00000
