  ==> Input File <==

--------------------------------------------------------------------------
set {
	reference rhf
	basis 6-31G*
}

set_num_threads( 1 )
memory 2 gb

molecule MOL {
0 1

H	 3.276176	 0.174363	 -0.109463
N	 2.434251	 -0.367735	 -0.081097
C	 1.267428	 0.496480	 0.024474
H	 2.501951	 -0.965776	 0.720575
C	 -0.016086	 -0.325158	 -0.029487
H	 1.288818	 1.183521	 -0.816092
H	 1.267576	 1.109062	 0.929528
C	 -1.282277	 0.529072	 0.046735
H	 -0.012495	 -0.908639	 -0.945788
H	 -0.015903	 -1.041248	 0.791956
C	 -1.833318	 0.899287	 -1.329854
H	 -1.070288	 1.438546	 0.605220
H	 -2.047083	 -0.002780	 0.609016
H	 -1.104200	 1.463177	 -1.904427
H	 -2.729362	 1.506271	 -1.245020
H	 -2.088045	 0.011357	 -1.901619

	symmetry c1
}
set optking {
	frozen_dihedral = ("
		6 3 5 9,
		1 2 3 6
	")
}

ee = energy('scf')
oeprop('DIPOLE', 'QUADRUPOLE', 'MULLIKEN_CHARGES')
f=open( 'psi4out.xyz', 'w' )
f.write( "16  " )
f.write( str(ee) + "\n" )
f.write( MOL.save_string_xyz() )
f.close()
--------------------------------------------------------------------------

    Molecular point group: c1

    Geometry (in Angstrom), charge = 0, multiplicity = 1:

       Center              X                  Y                   Z               Mass
    ------------   -----------------  -----------------  -----------------  -----------------
           H          3.125984468400    -0.072536222720     0.162600129947     1.007825032070
           N          2.284059468400    -0.614634222720     0.190966129947    14.003074004780
           C          1.117236468400     0.249580777280     0.296537129947    12.000000000000
           H          2.351759468400    -1.212675222720     0.992638129947     1.007825032070
           C         -0.166277531600    -0.572057222720     0.242576129947    12.000000000000
           H          1.138626468400     0.936621777280    -0.544028870053     1.007825032070
           H          1.117384468400     0.862162777280     1.201591129947     1.007825032070
           C         -1.432468531600     0.282172777280     0.318798129947    12.000000000000
           H         -0.162686531600    -1.155538222720    -0.673724870053     1.007825032070
           H         -0.166094531600    -1.288147222720     1.064019129947     1.007825032070
           C         -1.983509531600     0.652387777280    -1.057790870053    12.000000000000
           H         -1.220479531600     1.191646777280     0.877283129947     1.007825032070
           H         -2.197274531600    -0.249679222720     0.881079129947     1.007825032070
           H         -1.254391531600     1.216277777280    -1.632363870053     1.007825032070
           H         -2.879553531600     1.259371777280    -0.972956870053     1.007825032070
           H         -2.238236531600    -0.235542222720    -1.629555870053     1.007825032070

  Charge       = 0
  Multiplicity = 1
  Basis Set: 6-31G*
  Basis Set:

    Orbital Energies (a.u.)
    -----------------------

    Doubly Occupied:

       1A    -15.532606     2A    -11.240217     3A    -11.213993
       4A    -11.208629     5A    -11.207219     6A     -1.176808
       7A     -1.059739     8A     -0.955807     9A     -0.851277
      10A     -0.786105    11A     -0.663265    12A     -0.624553
      13A     -0.617127    14A     -0.589146    15A     -0.549033
      16A     -0.523556    17A     -0.511212    18A     -0.470847
      19A     -0.463090    20A     -0.453525    21A     -0.381554

  @DF-RHF Final Energy:  -212.31336391690516

   => Energetics <=

    Nuclear Repulsion Energy =            188.0748272896568949
    One-Electron Energy =                -658.6177864664517756
    Two-Electron Energy =                 258.2295952598893791
    DFT Exchange-Correlation Energy =       0.0000000000000000
    Empirical Dispersion Energy =           0.0000000000000000
    PCM Polarization Energy =               0.0000000000000000
    EFP Energy =                            0.0000000000000000
    Total Energy =                       -212.3133639169054732

  Mulliken Charges: (a.u.)
   Center  Symbol    Alpha    Beta     Spin     Total
       1     H     0.33256  0.33256  0.00000  0.33487
       2     N     3.92180  3.92180  0.00000 -0.84361
       3     C     3.06176  3.06176  0.00000 -0.12353
       4     H     0.33526  0.33526  0.00000  0.32948
       5     C     3.15368  3.15368  0.00000 -0.30737
       6     H     0.42065  0.42065  0.00000  0.15871
       7     H     0.43419  0.43419  0.00000  0.13162
       8     C     3.15864  3.15864  0.00000 -0.31729
       9     H     0.41181  0.41181  0.00000  0.17638
      10     H     0.42558  0.42558  0.00000  0.14884
      11     C     3.23927  3.23927  0.00000 -0.47853
      12     H     0.42281  0.42281  0.00000  0.15438
      13     H     0.41978  0.41978  0.00000  0.16045
      14     H     0.42159  0.42159  0.00000  0.15683
      15     H     0.42041  0.42041  0.00000  0.15918
      16     H     0.42021  0.42021  0.00000  0.15959

   Total alpha = 21.00000, Total beta = 21.00000, Total charge =  0.00000
