  ==> Input File <==

--------------------------------------------------------------------------
set {
	reference rhf
	basis 6-31G*
}

set_num_threads( 1 )
memory 2 gb

molecule MOL {
0 1

H	 0.357553	 -3.097690	 1.812386
O	 0.801768	 -2.460209	 1.261889
C	 -0.002652	 -1.407452	 1.116878
C	 0.624473	 -0.343591	 0.253101
O	 -1.075120	 -1.357583	 1.625150
C	 -0.265902	 0.883932	 0.072916
H	 1.579587	 -0.092652	 0.702724
H	 0.858375	 -0.802932	 -0.704003
C	 -1.728698	 0.646073	 0.462102
H	 -0.209144	 1.219470	 -0.958188
H	 0.135059	 1.692851	 0.673903
C	 -2.482460	 -0.343073	 -0.431425
H	 -2.245265	 1.602650	 0.432430
H	 -1.779332	 0.308348	 1.496285
C	 -3.960546	 -0.461025	 -0.060175
H	 -2.395034	 -0.026811	 -1.468912
H	 -2.024850	 -1.327147	 -0.371646
H	 -4.472726	 -1.168004	 -0.705284
H	 -4.465146	 0.496508	 -0.151489
H	 -4.081218	 -0.800940	 0.964585

	symmetry c1
}
set optking {
	frozen_dihedral = ("
		16 12 9 6,
		12 9 6 10,
		5 3 4 7,
		1 2 3 5
	")
}

ee = energy('scf')
oeprop('DIPOLE', 'QUADRUPOLE', 'MULLIKEN_CHARGES')
f=open( 'psi4out.xyz', 'w' )
f.write( "20  " )
f.write( str(ee) + "\n" )
f.write( MOL.save_string_xyz() )
f.close()
--------------------------------------------------------------------------

    Molecular point group: c1

    Geometry (in Angstrom), charge = 0, multiplicity = 1:

       Center              X                  Y                   Z               Mass
    ------------   -----------------  -----------------  -----------------  -----------------
           H          1.365880877943    -2.448340949841     1.253522338285     1.007825032070
           O          1.810095877943    -1.810859949841     0.703025338285    15.994914619560
           C          1.005675877943    -0.758102949841     0.558014338285    12.000000000000
           C          1.632800877943     0.305758050159    -0.305762661715    12.000000000000
           O         -0.066792122057    -0.708233949841     1.066286338285    15.994914619560
           C          0.742425877943     1.533281050159    -0.485947661715    12.000000000000
           H          2.587914877943     0.556697050159     0.143860338285     1.007825032070
           H          1.866702877943    -0.153582949841    -1.262866661715     1.007825032070
           C         -0.720370122057     1.295422050159    -0.096761661715    12.000000000000
           H          0.799183877943     1.868819050159    -1.517051661715     1.007825032070
           H          1.143386877943     2.342200050159     0.115039338285     1.007825032070
           C         -1.474132122057     0.306276050159    -0.990288661715    12.000000000000
           H         -1.236937122057     2.251999050159    -0.126433661715     1.007825032070
           H         -0.771004122057     0.957697050159     0.937421338285     1.007825032070
           C         -2.952218122057     0.188324050159    -0.619038661715    12.000000000000
           H         -1.386706122057     0.622538050159    -2.027775661715     1.007825032070
           H         -1.016522122057    -0.677797949841    -0.930509661715     1.007825032070
           H         -3.464398122057    -0.518654949841    -1.264147661715     1.007825032070
           H         -3.456818122057     1.145857050159    -0.710352661715     1.007825032070
           H         -3.072890122057    -0.151590949841     0.405721338285     1.007825032070

  Charge       = 0
  Multiplicity = 1
  Basis Set: 6-31G*
  Basis Set:

    Orbital Energies (a.u.)
    -----------------------

    Doubly Occupied:

       1A    -20.616448     2A    -20.550646     3A    -11.386752
       4A    -11.241716     5A    -11.220472     6A    -11.200138
       7A    -11.196464     8A    -11.191414     9A     -1.480642
      10A     -1.374691    11A     -1.088480    12A     -1.030504
      13A     -0.951496    14A     -0.863838    15A     -0.809617
      16A     -0.775508    17A     -0.711248    18A     -0.688386
      19A     -0.666404    20A     -0.628529    21A     -0.602091
      22A     -0.580880    23A     -0.564124    24A     -0.545900
      25A     -0.534196    26A     -0.506772    27A     -0.504193
      28A     -0.487868    29A     -0.462896    30A     -0.447478
      31A     -0.439396    32A     -0.408407

  @DF-RHF Final Energy:  -383.91263453710826

   => Energetics <=

    Nuclear Repulsion Energy =            404.0059574086894827
    One-Electron Energy =               -1324.3218303227677097
    Two-Electron Energy =                 536.4032383769691705
    DFT Exchange-Correlation Energy =       0.0000000000000000
    Empirical Dispersion Energy =           0.0000000000000000
    PCM Polarization Energy =               0.0000000000000000
    EFP Energy =                            0.0000000000000000
    Total Energy =                       -383.9126345371090565

  Mulliken Charges: (a.u.)
   Center  Symbol    Alpha    Beta     Spin     Total
       1     H     0.26779  0.26779  0.00000  0.46441
       2     O     4.34965  4.34965  0.00000 -0.69931
       3     C     2.62236  2.62236  0.00000  0.75527
       4     C     3.21480  3.21480  0.00000 -0.42960
       5     O     4.28121  4.28121  0.00000 -0.56242
       6     C     3.15772  3.15772  0.00000 -0.31544
       7     H     0.39368  0.39368  0.00000  0.21264
       8     H     0.39454  0.39454  0.00000  0.21093
       9     C     3.16739  3.16739  0.00000 -0.33478
      10     H     0.41675  0.41675  0.00000  0.16649
      11     H     0.41548  0.41548  0.00000  0.16903
      12     C     3.14493  3.14493  0.00000 -0.28986
      13     H     0.42944  0.42944  0.00000  0.14111
      14     H     0.38577  0.38577  0.00000  0.22846
      15     C     3.23874  3.23874  0.00000 -0.47749
      16     H     0.43129  0.43129  0.00000  0.13742
      17     H     0.42344  0.42344  0.00000  0.15312
      18     H     0.42342  0.42342  0.00000  0.15316
      19     H     0.42438  0.42438  0.00000  0.15124
      20     H     0.41720  0.41720  0.00000  0.16561

   Total alpha = 32.00000, Total beta = 32.00000, Total charge =  0.00000
