  ==> Input File <==

--------------------------------------------------------------------------
set {
	reference rhf
	basis cc-pvtz
}

set_num_threads( 4 )
memory 2 gb

molecule MOL {
0 1

H	 2.342730	 0.877684	 -1.045694
C	 2.360424	 0.000000	 -0.411793
C	 1.173749	 0.000000	 0.526870
H	 3.286567	 0.000000	 0.151574
H	 2.342730	 -0.877684	 -1.045694
O	 -0.000000	 0.000000	 -0.223739
H	 1.203779	 0.876757	 1.172538
H	 1.203779	 -0.876757	 1.172538
C	 -1.173749	 0.000000	 0.526870
C	 -0.828856	 -0.222578	 1.983164
H	 -1.842509	 -0.783932	 0.173737
H	 -1.695477	 0.948214	 0.403655
H	 -0.323040	 -1.171199	 2.112553
H	 -1.728926	 -0.226367	 2.587303
H	 -0.175853	 0.562778	 2.342713

	symmetry c1
}
set optking {
	frozen_dihedral = ("
		11 9 6 3
	")
}

ee = optimize('scf')
oeprop('DIPOLE', 'QUADRUPOLE', 'MULLIKEN_CHARGES')
f=open( 'psi4out.xyz', 'w' )
f.write( "15  " )
f.write( str(ee) + "\n" )
f.write( MOL.save_string_xyz() )
f.close()
--------------------------------------------------------------------------

    Molecular point group: c1
  Charge       = 0
  Multiplicity = 1
  Basis Set: CC-PVTZ
  Basis Set:
  @DF-RHF Final Energy:  -232.20700373928227
    Total Energy =                       -232.2070037392821291
    Molecular point group: c1
  Basis Set: CC-PVTZ
  Basis Set:
  Basis Set: CC-PVTZ
  Basis Set:
  @DF-RHF Final Energy:  -232.21008677463249
    Total Energy =                       -232.2100867746326003
  Basis Set: CC-PVTZ
  Basis Set:
  Basis Set: CC-PVTZ
  Basis Set:
  @DF-RHF Final Energy:  -232.21799437499791
    Total Energy =                       -232.2179943749976587
  Basis Set: CC-PVTZ
  Basis Set:
  Basis Set: CC-PVTZ
  Basis Set:
  @DF-RHF Final Energy:  -232.22141715216299
    Total Energy =                       -232.2214171521629851
  Basis Set: CC-PVTZ
  Basis Set:
  @DF-RHF Final Energy:  -232.22191986793987
    Total Energy =                       -232.2219198679398460
  Basis Set: CC-PVTZ
  Basis Set:
  @DF-RHF Final Energy:  -232.22274730362258
    Total Energy =                       -232.2227473036224978
  Basis Set: CC-PVTZ
  Basis Set:
  Basis Set: CC-PVTZ
  Basis Set:
  @DF-RHF Final Energy:  -232.22290965951021
    Total Energy =                       -232.2229096595100941
  Basis Set: CC-PVTZ
  Basis Set:
  Basis Set: CC-PVTZ
  Basis Set:
  @DF-RHF Final Energy:  -232.22292327046338
    Total Energy =                       -232.2229232704632977
  Basis Set: CC-PVTZ
  Basis Set:
  Charge       = 0
  Multiplicity = 1
  Basis Set: CC-PVTZ
  Basis Set:

    Orbital Energies (a.u.)
    -----------------------

    Doubly Occupied:

       1A    -20.538395     2A    -11.266653     3A    -11.264793
       4A    -11.215095     5A    -11.204792     6A     -1.369679
       7A     -1.040847     8A     -0.991495     9A     -0.872416
      10A     -0.795235    11A     -0.675045    12A     -0.664097
      13A     -0.613233    14A     -0.603983    15A     -0.547865
      16A     -0.534618    17A     -0.522655    18A     -0.502162
      19A     -0.500972    20A     -0.450693    21A     -0.401484

  @DF-RHF Final Energy:  -232.22292402204468

   => Energetics <=

    Nuclear Repulsion Energy =            193.1955826542858006
    One-Electron Energy =                -697.6845974903194474
    Two-Electron Energy =                 272.2660908139889671
    DFT Exchange-Correlation Energy =       0.0000000000000000
    Empirical Dispersion Energy =           0.0000000000000000
    PCM Polarization Energy =               0.0000000000000000
    EFP Energy =                            0.0000000000000000
    Total Energy =                       -232.2229240220447082
    Molecular point group: c1
  Basis Set: CC-PVTZ
  Basis Set:

  -Total Gradient:
     Atom            X                  Y                   Z
    ------   -----------------  -----------------  -----------------
       1        0.000000914710     0.000002530077    -0.000001781939
       2       -0.000032962455    -0.000006819324    -0.000006125371
       3        0.000026474435    -0.001856353276     0.000015980344
       4       -0.000014433800    -0.000002063545     0.000006944642
       5        0.000005224431    -0.000003815760    -0.000007550336
       6        0.000166960981     0.002542164326     0.000298371394
       7        0.000014419613    -0.000008091987    -0.000004862733
       8       -0.000006657433    -0.000005168402    -0.000006630740
       9       -0.001038760843     0.000754924327    -0.001700403424
      10       -0.000017692718     0.000002017513     0.000029841181
      11        0.000888228404    -0.001414599922     0.001389327978
      12        0.000012440729     0.000006008096    -0.000016185969
      13        0.000007029220     0.000003535288    -0.000002560607
      14        0.000002000065    -0.000002171226     0.000011494624
      15       -0.000013185338    -0.000012096183    -0.000005859047

  **** Optimization is complete! (in 9 steps) ****
    Final optimized geometry and variables:
    Molecular point group: c1

    Geometry (in Angstrom), charge = 0, multiplicity = 1:

    H            1.983741806196     0.931862249989    -1.678235582827
    C            2.068866090129     0.053142673519    -1.051285336966
    C            0.987732735277     0.050651420790     0.008669068900
    H            3.049544632914     0.052065818623    -0.588434485435
    H            1.983432023179    -0.823012921083    -1.681910785225
    O           -0.246957043080     0.052817796015    -0.640681367133
    H            1.096326090596     0.926967184252     0.643435269345
    H            1.096674328257    -0.825744984311     0.640394557443
    C           -1.452868257549     0.037274899728     0.080125254822
    C           -1.365730186329    -0.189603821585     1.582819292101
    H           -2.057656303026    -0.756175498943    -0.344262958042
    H           -1.964629183246     0.976409922086    -0.105953177257
    H           -0.924685637319    -1.148172374760     1.825376044282
    H           -2.372968708198    -0.180181348460     1.983485962737
    H           -0.804221332866     0.585621077720     2.088040838376

  Mulliken Charges: (a.u.)
   Center  Symbol    Alpha    Beta     Spin     Total
       1     H     0.45170  0.45170  0.00000  0.09660
       2     C     3.13545  3.13545  0.00000 -0.27091
       3     C     2.96664  2.96664  0.00000  0.06673
       4     H     0.45957  0.45957  0.00000  0.08086
       5     H     0.45200  0.45200  0.00000  0.09600
       6     O     4.18595  4.18595  0.00000 -0.37189
       7     H     0.47213  0.47213  0.00000  0.05574
       8     H     0.47096  0.47096  0.00000  0.05809
       9     C     2.96769  2.96769  0.00000  0.06462
      10     C     3.16688  3.16688  0.00000 -0.33376
      11     H     0.46178  0.46178  0.00000  0.07643
      12     H     0.46417  0.46417  0.00000  0.07167
      13     H     0.45039  0.45039  0.00000  0.09921
      14     H     0.44444  0.44444  0.00000  0.11112
      15     H     0.45025  0.45025  0.00000  0.09950

   Total alpha = 21.00000, Total beta = 21.00000, Total charge = -0.00000
