  ==> Input File <==

--------------------------------------------------------------------------
set {
	reference rhf
	basis 6-31G*
}

set_num_threads( 4 )
memory 2 gb

molecule MOL {
0 1

H	 -2.499100	 -0.730091	 -0.745082
O	 -2.347518	 -0.290803	 0.079804
C	 -1.184022	 0.487508	 -0.006784
C	 0.062599	 -0.378592	 0.031606
H	 -1.176523	 1.099369	 -0.904519
H	 -1.187323	 1.153111	 0.844927
O	 0.764314	 -0.071289	 1.194766
H	 0.678464	 -0.187950	 -0.849500
H	 -0.221528	 -1.429003	 0.009459
C	 1.924544	 -0.817908	 1.383362
H	 2.634192	 -0.661913	 0.572995
H	 2.375026	 -0.492915	 2.310912
H	 1.705794	 -1.881588	 1.450625

	symmetry c1
}
set optking {
	frozen_dihedral = ("
		8 4 3 5
	")
}

ee = optimize('scf')
oeprop('DIPOLE', 'QUADRUPOLE', 'MULLIKEN_CHARGES')
f=open( 'psi4out.xyz', 'w' )
f.write( "13  " )
f.write( str(ee) + "\n" )
f.write( MOL.save_string_xyz() )
f.close()
--------------------------------------------------------------------------

    Molecular point group: c1
  Charge       = 0
  Multiplicity = 1
  Basis Set: 6-31G*
  Basis Set:
  @DF-RHF Final Energy:  -267.94267775709812
    Total Energy =                       -267.9426777570980676
    Molecular point group: c1
  Basis Set: 6-31G*
  Basis Set:
  Basis Set: 6-31G*
  Basis Set:
  @DF-RHF Final Energy:  -267.94323207872111
    Total Energy =                       -267.9432320787209960
  Basis Set: 6-31G*
  Basis Set:
  Basis Set: 6-31G*
  Basis Set:
  @DF-RHF Final Energy:  -267.94346266722084
    Total Energy =                       -267.9434626672208992
  Basis Set: 6-31G*
  Basis Set:
  Basis Set: 6-31G*
  Basis Set:
  @DF-RHF Final Energy:  -267.94346571602358
    Total Energy =                       -267.9434657160237521
  Basis Set: 6-31G*
  Basis Set:
  Charge       = 0
  Multiplicity = 1
  Basis Set: 6-31G*
  Basis Set:

    Orbital Energies (a.u.)
    -----------------------

    Doubly Occupied:

       1A    -20.559505     2A    -20.556629     3A    -11.271488
       4A    -11.269435     5A    -11.267718     6A     -1.385982
       7A     -1.361510     8A     -1.015286     9A     -0.912731
      10A     -0.843123    11A     -0.702227    12A     -0.669619
      13A     -0.663052    14A     -0.639981    15A     -0.589489
      16A     -0.565907    17A     -0.541693    18A     -0.491979
      19A     -0.479179    20A     -0.437073    21A     -0.418207

  @DF-RHF Final Energy:  -267.94346608141836

   => Energetics <=

    Nuclear Repulsion Energy =            190.4835238236974817
    One-Electron Energy =                -743.5703492169604942
    Two-Electron Energy =                 285.1433593118447334
    DFT Exchange-Correlation Energy =       0.0000000000000000
    Empirical Dispersion Energy =           0.0000000000000000
    PCM Polarization Energy =               0.0000000000000000
    EFP Energy =                            0.0000000000000000
    Total Energy =                       -267.9434660814182507
    Molecular point group: c1
  Basis Set: 6-31G*
  Basis Set:

  -Total Gradient:
     Atom            X                  Y                   Z
    ------   -----------------  -----------------  -----------------
       1       -0.000011896191    -0.000002458367    -0.000002061576
       2        0.000009260409    -0.000023952283    -0.000019375493
       3       -0.000264778902    -0.000371456895    -0.000249076367
       4        0.000256344002     0.000408567009     0.000280127521
       5        0.000177588883     0.000257289737     0.000194028646
       6        0.000002618038     0.000014727465    -0.000001634149
       7       -0.000022386886    -0.000000917684    -0.000034163128
       8       -0.000166261859    -0.000276667269    -0.000178937757
       9        0.000003891198     0.000005665336     0.000006788643
      10        0.000009493349    -0.000011864228    -0.000000181480
      11        0.000004079972     0.000001031738     0.000001858140
      12       -0.000001024568     0.000001180964    -0.000000742361
      13        0.000003072560    -0.000001145520     0.000003369362

  **** Optimization is complete! (in 5 steps) ****
    Final optimized geometry and variables:
    Molecular point group: c1

    Geometry (in Angstrom), charge = 0, multiplicity = 1:

    H           -2.345873963514    -0.500798274366    -1.274179487868
    O           -2.201160114725    -0.039351707294    -0.460483305210
    C           -1.017058841666     0.709416476111    -0.543687555214
    C            0.251515171780    -0.149577958386    -0.485851227052
    H           -1.021441152236     1.325326924934    -1.439526327243
    H           -1.012320438912     1.369696962670     0.310467908154
    O            0.951839223976     0.150125983038     0.683533027372
    H            0.889162498943     0.030979489223    -1.351540100961
    H           -0.030340017770    -1.201096057967    -0.498408192882
    C            2.114356113411    -0.594724826767     0.858480863898
    H            2.819974648744    -0.429920600721     0.045768904869
    H            2.568950455902    -0.276865705190     1.786527668665
    H            1.899438423378    -1.660005576368     0.917686002355

  Mulliken Charges: (a.u.)
   Center  Symbol    Alpha    Beta     Spin     Total
       1     H     0.28318  0.28318  0.00000  0.43364
       2     O     4.36812  4.36812  0.00000 -0.73623
       3     C     3.01171  3.01171  0.00000 -0.02342
       4     C     3.00030  3.00030  0.00000 -0.00060
       5     H     0.42802  0.42802  0.00000  0.14395
       6     H     0.39677  0.39677  0.00000  0.20647
       7     O     4.30484  4.30484  0.00000 -0.60968
       8     H     0.43194  0.43194  0.00000  0.13611
       9     H     0.42492  0.42492  0.00000  0.15016
      10     C     3.08083  3.08083  0.00000 -0.16167
      11     H     0.43052  0.43052  0.00000  0.13896
      12     H     0.41049  0.41049  0.00000  0.17903
      13     H     0.42836  0.42836  0.00000  0.14327

   Total alpha = 21.00000, Total beta = 21.00000, Total charge = -0.00000
