  ==> Input File <==

--------------------------------------------------------------------------
set {
	reference rhf
	basis 6-31G*
}

set_num_threads( 4 )
memory 2 gb

molecule MOL {
0 1

H	 3.276176	 0.174363	 -0.109463
N	 2.434251	 -0.367735	 -0.081097
C	 1.267428	 0.496480	 0.024474
H	 2.501951	 -0.965776	 0.720575
C	 -0.016086	 -0.325158	 -0.029487
H	 1.288818	 1.183521	 -0.816092
H	 1.267576	 1.109062	 0.929528
C	 -1.282277	 0.529072	 0.046735
H	 -0.012495	 -0.908639	 -0.945788
H	 -0.015903	 -1.041248	 0.791956
C	 -1.063093	 1.852848	 0.778363
H	 -2.066680	 -0.033359	 0.549098
H	 -1.647103	 0.729963	 -0.958502
H	 -0.731254	 1.685530	 1.798955
H	 -1.977602	 2.436418	 0.818847
H	 -0.308035	 2.455050	 0.280908

	symmetry c1
}
set optking {
	frozen_dihedral = ("
		12 8 5 9
	")
}

ee = optimize('scf')
oeprop('DIPOLE', 'QUADRUPOLE', 'MULLIKEN_CHARGES')
f=open( 'psi4out.xyz', 'w' )
f.write( "16  " )
f.write( str(ee) + "\n" )
f.write( MOL.save_string_xyz() )
f.close()
--------------------------------------------------------------------------

    Molecular point group: c1
  Charge       = 0
  Multiplicity = 1
  Basis Set: 6-31G*
  Basis Set:
  @DF-RHF Final Energy:  -212.30746910608141
    Total Energy =                       -212.3074691060813848
    Molecular point group: c1
  Basis Set: 6-31G*
  Basis Set:
  Basis Set: 6-31G*
  Basis Set:
  @DF-RHF Final Energy:  -212.30818489836491
    Total Energy =                       -212.3081848983649138
  Basis Set: 6-31G*
  Basis Set:
  Basis Set: 6-31G*
  Basis Set:
  @DF-RHF Final Energy:  -212.31026485382813
    Total Energy =                       -212.3102648538282438
  Basis Set: 6-31G*
  Basis Set:
  Basis Set: 6-31G*
  Basis Set:
  @DF-RHF Final Energy:  -212.31050326885517
    Total Energy =                       -212.3105032688550864
  Basis Set: 6-31G*
  Basis Set:
  Basis Set: 6-31G*
  Basis Set:
  @DF-RHF Final Energy:  -212.31051788408820
    Total Energy =                       -212.3105178840883696
  Basis Set: 6-31G*
  Basis Set:
  Basis Set: 6-31G*
  Basis Set:
  @DF-RHF Final Energy:  -212.31053264564011
    Total Energy =                       -212.3105326456400235
  Basis Set: 6-31G*
  Basis Set:
  Basis Set: 6-31G*
  Basis Set:
  @DF-RHF Final Energy:  -212.31053523002345
    Total Energy =                       -212.3105352300235609
  Basis Set: 6-31G*
  Basis Set:
  Charge       = 0
  Multiplicity = 1
  Basis Set: 6-31G*
  Basis Set:

    Orbital Energies (a.u.)
    -----------------------

    Doubly Occupied:

       1A    -15.532116     2A    -11.238918     3A    -11.215774
       4A    -11.210101     5A    -11.208815     6A     -1.176275
       7A     -1.055984     8A     -0.953804     9A     -0.862253
      10A     -0.774692    11A     -0.656287    12A     -0.640286
      13A     -0.620458    14A     -0.571477    15A     -0.549646
      16A     -0.534409    17A     -0.511138    18A     -0.466325
      19A     -0.462061    20A     -0.454601    21A     -0.380424

  @DF-RHF Final Energy:  -212.31053526212747

   => Energetics <=

    Nuclear Repulsion Energy =            189.1568845742874601
    One-Electron Energy =                -660.7831536362914449
    Two-Electron Energy =                 259.3157337998766252
    DFT Exchange-Correlation Energy =       0.0000000000000000
    Empirical Dispersion Energy =           0.0000000000000000
    PCM Polarization Energy =               0.0000000000000000
    EFP Energy =                            0.0000000000000000
    Total Energy =                       -212.3105352621273596
    Molecular point group: c1
  Basis Set: 6-31G*
  Basis Set:

  -Total Gradient:
     Atom            X                  Y                   Z
    ------   -----------------  -----------------  -----------------
       1        0.000005604311    -0.000003227298     0.000001787631
       2        0.000008443911     0.000003359756     0.000009156989
       3       -0.000002476914    -0.000017039454    -0.000037074563
       4        0.000001012881     0.000002657596    -0.000001256362
       5       -0.003280548935    -0.004959992506     0.004695127532
       6        0.000008346192    -0.000002048041     0.000002417523
       7       -0.000002543289    -0.000007852820    -0.000002310897
       8       -0.001273858836    -0.001806021685    -0.007120353089
       9        0.002962699862     0.004452985368    -0.002848317477
      10        0.000002964184    -0.000003795030     0.000001043507
      11       -0.000013605646    -0.000001669162    -0.000000307837
      12        0.001591491114     0.002341461490     0.005301074684
      13        0.000003371902     0.000007622846    -0.000000265427
      14        0.000003582077    -0.000002215825    -0.000002260778
      15       -0.000003926238    -0.000003032492     0.000002414735
      16       -0.000010556575    -0.000001192743    -0.000000876171

  **** Optimization is complete! (in 8 steps) ****
    Final optimized geometry and variables:
    Molecular point group: c1

    Geometry (in Angstrom), charge = 0, multiplicity = 1:

    H            3.004397159243    -0.378107151743    -0.346832701337
    N            2.137719583145    -0.879347522570    -0.309116694140
    C            1.020805406771     0.038352722272    -0.125668334550
    H            2.203464042089    -1.510453989586     0.467205292278
    C           -0.294631196868    -0.742047490349    -0.130457795273
    H            1.031125754805     0.736471868037    -0.957603502376
    H            1.107726902959     0.631530658617     0.784846269133
    C           -1.578036619457     0.115618046412    -0.121399121993
    H           -0.270758195909    -1.338368562882    -1.036428770471
    H           -0.297576743931    -1.426276467626     0.715170292021
    C           -1.483557820423     1.450483838221     0.627627458970
    H           -2.364328443736    -0.453608869396     0.366469633311
    H           -1.899338800382     0.306425117345    -1.140779320757
    H           -1.183334332139     1.306060992705     1.661715545826
    H           -2.450820078744     1.943614893493     0.634592103058
    H           -0.775333345169     2.132140204787     0.168696647486

  Mulliken Charges: (a.u.)
   Center  Symbol    Alpha    Beta     Spin     Total
       1     H     0.33259  0.33259  0.00000  0.33483
       2     N     3.92207  3.92207  0.00000 -0.84415
       3     C     3.06419  3.06419  0.00000 -0.12838
       4     H     0.33569  0.33569  0.00000  0.32862
       5     C     3.15527  3.15527  0.00000 -0.31055
       6     H     0.42124  0.42124  0.00000  0.15753
       7     H     0.43154  0.43154  0.00000  0.13692
       8     C     3.15569  3.15569  0.00000 -0.31138
       9     H     0.40964  0.40964  0.00000  0.18072
      10     H     0.42642  0.42642  0.00000  0.14716
      11     C     3.24420  3.24420  0.00000 -0.48840
      12     H     0.42025  0.42025  0.00000  0.15949
      13     H     0.41953  0.41953  0.00000  0.16094
      14     H     0.42222  0.42222  0.00000  0.15555
      15     H     0.41897  0.41897  0.00000  0.16206
      16     H     0.42048  0.42048  0.00000  0.15904

   Total alpha = 21.00000, Total beta = 21.00000, Total charge =  0.00000
