  ==> Input File <==

--------------------------------------------------------------------------
set {
	reference rhf
	basis 6-31G*
}

set_num_threads( 1 )
memory 2 gb

molecule MOL {
0 1

H	 2.591676	 2.013956	 0.335017
O	 3.341076	 1.666752	 -0.126416
C	 3.569581	 0.339145	 0.272707
C	 2.539767	 -0.640285	 -0.279495
H	 4.553106	 0.084646	 -0.100901
H	 3.608576	 0.269204	 1.359154
C	 2.758458	 -1.010899	 -1.748402
H	 2.557649	 -1.539764	 0.330411
H	 1.552560	 -0.196569	 -0.161578
C	 1.678003	 -1.952379	 -2.287894
H	 3.733609	 -1.477283	 -1.857634
H	 2.775329	 -0.103411	 -2.352157
C	 1.801815	 -2.287464	 -3.778776
H	 1.685768	 -2.874732	 -1.709922
H	 0.705020	 -1.496450	 -2.117210
C	 3.037043	 -3.110888	 -4.153826
H	 0.913333	 -2.838486	 -4.080091
H	 1.794598	 -1.364364	 -4.356420
C	 3.061825	 -3.509371	 -5.630997
H	 3.069334	 -4.009734	 -3.539705
H	 3.942101	 -2.553194	 -3.925463
C	 4.296997	 -4.325941	 -6.009449
H	 2.166233	 -4.081058	 -5.864614
H	 3.019810	 -2.612928	 -6.246228
H	 4.350292	 -5.245813	 -5.433932
H	 4.284387	 -4.594473	 -7.061289
H	 5.209572	 -3.766951	 -5.822100

	symmetry c1
}
set optking {
	frozen_dihedral = ("
		14 10 7 4,
		14 10 13 16,
		10 7 4 8,
		10 13 16 20,
		20 16 19 22,
		4 3 2 1
	")
}

ee = energy('scf')
oeprop('DIPOLE', 'QUADRUPOLE', 'MULLIKEN_CHARGES')
f=open( 'psi4out.xyz', 'w' )
f.write( "27  " )
f.write( str(ee) + "\n" )
f.write( MOL.save_string_xyz() )
f.close()
--------------------------------------------------------------------------

    Molecular point group: c1

    Geometry (in Angstrom), charge = 0, multiplicity = 1:

       Center              X                  Y                   Z               Mass
    ------------   -----------------  -----------------  -----------------  -----------------
           H         -0.322864528694     3.612206598955     2.935623311277     1.007825032070
           O          0.426535471306     3.265002598955     2.474190311277    15.994914619560
           C          0.655040471306     1.937395598955     2.873313311277    12.000000000000
           C         -0.374773528694     0.957965598955     2.321111311277    12.000000000000
           H          1.638565471306     1.682896598955     2.499705311277     1.007825032070
           H          0.694035471306     1.867454598955     3.959760311277     1.007825032070
           C         -0.156082528694     0.587351598955     0.852204311277    12.000000000000
           H         -0.356891528694     0.058486598955     2.931017311277     1.007825032070
           H         -1.361980528694     1.401681598955     2.439028311277     1.007825032070
           C         -1.236537528694    -0.354128401045     0.312712311277    12.000000000000
           H          0.819068471306     0.120967598955     0.742972311277     1.007825032070
           H         -0.139211528694     1.494839598955     0.248449311277     1.007825032070
           C         -1.112725528694    -0.689213401045    -1.178169688723    12.000000000000
           H         -1.228772528694    -1.276481401045     0.890684311277     1.007825032070
           H         -2.209520528694     0.101800598955     0.483396311277     1.007825032070
           C          0.122502471306    -1.512637401045    -1.553219688723    12.000000000000
           H         -2.001207528694    -1.240235401045    -1.479484688723     1.007825032070
           H         -1.119942528694     0.233886598955    -1.755813688723     1.007825032070
           C          0.147284471306    -1.911120401045    -3.030390688723    12.000000000000
           H          0.154793471306    -2.411483401045    -0.939098688723     1.007825032070
           H          1.027560471306    -0.954943401045    -1.324856688723     1.007825032070
           C          1.382456471306    -2.727690401045    -3.408842688723    12.000000000000
           H         -0.748307528694    -2.482807401045    -3.264007688723     1.007825032070
           H          0.105269471306    -1.014677401045    -3.645621688723     1.007825032070
           H          1.435751471306    -3.647562401045    -2.833325688723     1.007825032070
           H          1.369846471306    -2.996222401045    -4.460682688723     1.007825032070
           H          2.295031471306    -2.168700401045    -3.221493688723     1.007825032070

  Charge       = 0
  Multiplicity = 1
  Basis Set: 6-31G*
  Basis Set:

    Orbital Energies (a.u.)
    -----------------------

    Doubly Occupied:

       1A    -20.552392     2A    -11.267132     3A    -11.215765
       4A    -11.213046     5A    -11.212719     6A    -11.211812
       7A    -11.211618     8A    -11.210681     9A    -11.206870
      10A     -1.359141    11A     -1.091253    12A     -1.058793
      13A     -1.009428    14A     -0.944579    15A     -0.882590
      16A     -0.820626    17A     -0.801513    18A     -0.774706
      19A     -0.684531    20A     -0.650542    21A     -0.636592
      22A     -0.607853    23A     -0.607014    24A     -0.582939
      25A     -0.572507    26A     -0.554952    27A     -0.536311
      28A     -0.519750    29A     -0.510756    30A     -0.490931
      31A     -0.480205    32A     -0.471309    33A     -0.464173
      34A     -0.457262    35A     -0.452582    36A     -0.439772
      37A     -0.418792

  @DF-RHF Final Energy:  -388.28066811434780

   => Energetics <=

    Nuclear Repulsion Energy =            456.9141307017380313
    One-Electron Energy =               -1432.0226929574509995
    Two-Electron Energy =                 586.8278941413636858
    DFT Exchange-Correlation Energy =       0.0000000000000000
    Empirical Dispersion Energy =           0.0000000000000000
    PCM Polarization Energy =               0.0000000000000000
    EFP Energy =                            0.0000000000000000
    Total Energy =                       -388.2806681143492824

  Mulliken Charges: (a.u.)
   Center  Symbol    Alpha    Beta     Spin     Total
       1     H     0.28280  0.28280  0.00000  0.43441
       2     O     4.36959  4.36959  0.00000 -0.73917
       3     C     2.99854  2.99854  0.00000  0.00293
       4     C     3.16187  3.16187  0.00000 -0.32374
       5     H     0.41636  0.41636  0.00000  0.16729
       6     H     0.42895  0.42895  0.00000  0.14210
       7     C     3.15718  3.15718  0.00000 -0.31436
       8     H     0.42355  0.42355  0.00000  0.15290
       9     H     0.42644  0.42644  0.00000  0.14711
      10     C     3.15310  3.15310  0.00000 -0.30621
      11     H     0.42167  0.42167  0.00000  0.15667
      12     H     0.41351  0.41351  0.00000  0.17297
      13     C     3.15306  3.15306  0.00000 -0.30612
      14     H     0.42523  0.42523  0.00000  0.14954
      15     H     0.42272  0.42272  0.00000  0.15456
      16     C     3.15279  3.15279  0.00000 -0.30558
      17     H     0.42249  0.42249  0.00000  0.15502
      18     H     0.42302  0.42302  0.00000  0.15397
      19     C     3.15112  3.15112  0.00000 -0.30224
      20     H     0.42526  0.42526  0.00000  0.14948
      21     H     0.42164  0.42164  0.00000  0.15672
      22     C     3.23915  3.23915  0.00000 -0.47829
      23     H     0.42353  0.42353  0.00000  0.15294
      24     H     0.42277  0.42277  0.00000  0.15447
      25     H     0.42225  0.42225  0.00000  0.15550
      26     H     0.41963  0.41963  0.00000  0.16074
      27     H     0.42180  0.42180  0.00000  0.15639

   Total alpha = 37.00000, Total beta = 37.00000, Total charge = -0.00000
