                              Psi4 1.0.54 Driver

  ==> Input File <==

--------------------------------------------------------------------------
set {
	reference rhf
	basis cc-pvtz
}

set_num_threads( 4 )
memory 2 gb

molecule MOL {
0 1

O	 1.216069	 1.304886	 0.000821
C	 1.121787	 0.124983	 0.000110
C	 -0.170912	 -0.649867	 -0.000147
O	 2.167739	 -0.685178	 -0.000678
C	 -1.413045	 0.229353	 0.001137
H	 -0.152877	 -1.303435	 -0.866175
H	 -0.152278	 -1.305116	 0.864586
C	 -2.697107	 -0.578457	 -0.162984
H	 -1.334943	 0.960734	 -0.795432
H	 -1.450558	 0.794974	 0.925372
C	 -3.948157	 0.293184	 -0.165330
H	 -2.652195	 -1.145572	 -1.089054
H	 -2.769726	 -1.309646	 0.637844
H	 -3.921436	 1.012551	 -0.976738
H	 -4.843415	 -0.306211	 -0.283297
H	 -4.039910	 0.847185	 0.762703
C	 3.449556	 -0.089977	 -0.000570
H	 3.585694	 0.522473	 -0.879546
H	 4.155805	 -0.904274	 -0.001389
H	 3.586173	 0.521118	 0.879272

	symmetry c1
}
set optking {
	frozen_dihedral = ("
		9 5 3 6
	")
}

ee,wfn = optimize('scf', return_wfn=True)
oeprop( wfn, 'DIPOLE', 'QUADRUPOLE', 'MULLIKEN_CHARGES')
f=open( 'psi4out.xyz', 'w' )
f.write( "20  " )
f.write( str(ee) + "\n" )
f.write( MOL.save_string_xyz() )
f.close()
--------------------------------------------------------------------------

    Molecular point group: c1
  Charge       = 0
  Multiplicity = 1
  Basis Set: CC-PVTZ
  Basis Set:
  @DF-RHF Final Energy:  -384.08312760096754
    Total Energy =                       -384.0831276009676003
    Molecular point group: c1
  Basis Set: CC-PVTZ
  Basis Set:
  Basis Set: CC-PVTZ
  Basis Set:
  @DF-RHF Final Energy:  -384.08314508074398
    Total Energy =                       -384.0831450807440888
  Basis Set: CC-PVTZ
  Basis Set:
  Basis Set: CC-PVTZ
  Basis Set:
  @DF-RHF Final Energy:  -384.08314647830053
    Total Energy =                       -384.0831464783004776
  Basis Set: CC-PVTZ
  Basis Set:
  Charge       = 0
  Multiplicity = 1
  Basis Set: CC-PVTZ
  Basis Set:

    Orbital Energies (a.u.)
    -----------------------

    Doubly Occupied:

       1A    -20.596507     2A    -20.534355     3A    -11.364857
       4A    -11.278599     5A    -11.233834     6A    -11.218460
       7A    -11.217172     8A    -11.208727     9A     -1.472447
      10A     -1.366049    11A     -1.090030    12A     -1.025664
      13A     -0.970012    14A     -0.886496    15A     -0.804817
      16A     -0.769734    17A     -0.699622    18A     -0.686735
      19A     -0.676034    20A     -0.646621    21A     -0.599306
      22A     -0.592285    23A     -0.580346    24A     -0.540880
      25A     -0.538247    26A     -0.524314    27A     -0.500770
      28A     -0.479062    29A     -0.475327    30A     -0.471199
      31A     -0.459368    32A     -0.440553

  @DF-RHF Final Energy:  -384.08314558987553

   => Energetics <=

    Nuclear Repulsion Energy =            381.7396193267462081
    One-Electron Energy =               -1279.7486678461050360
    Two-Electron Energy =                 513.9259029294832999
    DFT Exchange-Correlation Energy =       0.0000000000000000
    Empirical Dispersion Energy =           0.0000000000000000
    PCM Polarization Energy =               0.0000000000000000
    EFP Energy =                            0.0000000000000000
    Total Energy =                       -384.0831455898755848
    Molecular point group: c1
  Basis Set: CC-PVTZ
  Basis Set:

  -Total Gradient:
     Atom            X                  Y                   Z
    ------   -----------------  -----------------  -----------------
       1       -0.000068809449     0.000024067255    -0.000431929993
       2       -0.000007191295     0.000040118295     0.001251550473
       3        0.001172939502     0.001500583274    -0.001256994235
       4       -0.000062586537    -0.000109326245    -0.000321683230
       5       -0.001129401885    -0.001371196419    -0.000974920841
       6       -0.000692452043    -0.001054111042     0.000698726222
       7        0.000000427493    -0.000027420360    -0.000083756575
       8        0.000014338881    -0.000035231201     0.000134328557
       9        0.000562898833     0.000747569574     0.000985371327
      10        0.000048730575     0.000204967466     0.000073200524
      11        0.000098207090     0.000060390775    -0.000071909423
      12        0.000000757762    -0.000016920576     0.000047072830
      13        0.000038074081     0.000072627985    -0.000017000157
      14       -0.000006226742     0.000008546594     0.000044137648
      15        0.000076794319    -0.000013009708    -0.000021758924
      16        0.000023639314    -0.000054088572    -0.000047639379
      17       -0.000044051552     0.000025742018     0.000004943822
      18        0.000009954584    -0.000002372650     0.000005234715
      19       -0.000032410582    -0.000001069584    -0.000011381840
      20       -0.000003632342     0.000000133124    -0.000005591519

  **** Optimization is complete! (in 4 steps) ****
    Final optimized geometry and variables:
    Molecular point group: c1

    Geometry (in Angstrom), charge = 0, multiplicity = 1:

    O            1.216476196030     1.303922996058     0.043105048037
    C            1.121366590171     0.124102686369     0.039193246963
    C           -0.171250486959    -0.649233182841     0.023664685126
    O            2.166254830254    -0.687303842245     0.042009558369
    C           -1.415364185232     0.227675004998     0.024144594995
    H           -0.151364752574    -1.305990996866    -0.840005082443
    H           -0.159130827415    -1.308655075373     0.885612998464
    C           -2.700017567764    -0.581716861240    -0.117968716028
    H           -1.341023301688     0.957078425370    -0.773799854050
    H           -1.444558081622     0.802616466150     0.943977071370
    C           -3.951243884605     0.289255244304    -0.111341129749
    H           -2.665729939819    -1.155051384102    -1.040538591616
    H           -2.762140248390    -1.307432128451     0.688643100520
    H           -3.931938179743     1.006705474371    -0.924548899261
    H           -4.846948517336    -0.311090486425    -0.220007321156
    H           -4.035176873462     0.845272643541     0.816115484739
    C            3.448568417135    -0.093494304331     0.053637954894
    H            3.591395010929     0.522934493839    -0.821478677238
    H            4.153848275638    -0.908599653042     0.053703586714
    H            3.579917765962     0.513281392476     0.937266538388

  Mulliken Charges: (a.u.)
   Center  Symbol    Alpha    Beta     Spin     Total
       1     O     4.19679  4.19679  0.00000 -0.39359
       2     C     2.80615  2.80615  0.00000  0.38770
       3     C     3.10055  3.10055  0.00000 -0.20110
       4     O     4.14648  4.14648  0.00000 -0.29296
       5     C     3.08168  3.08168  0.00000 -0.16336
       6     H     0.44056  0.44056  0.00000  0.11887
       7     H     0.44005  0.44005  0.00000  0.11989
       8     C     3.08673  3.08673  0.00000 -0.17347
       9     H     0.44504  0.44504  0.00000  0.10991
      10     H     0.44856  0.44856  0.00000  0.10288
      11     C     3.14926  3.14926  0.00000 -0.29852
      12     H     0.45510  0.45510  0.00000  0.08980
      13     H     0.45529  0.45529  0.00000  0.08943
      14     H     0.45370  0.45370  0.00000  0.09259
      15     H     0.44839  0.44839  0.00000  0.10323
      16     H     0.45394  0.45394  0.00000  0.09212
      17     C     3.03768  3.03768  0.00000 -0.07535
      18     H     0.45430  0.45430  0.00000  0.09139
      19     H     0.44534  0.44534  0.00000  0.10932
      20     H     0.45440  0.45440  0.00000  0.09121

   Total alpha = 32.00000, Total beta = 32.00000, Total charge = -0.00000

*** Psi4 exiting successfully. Buy a developer a beer!
