                              Psi4 1.0.54 Driver

  ==> Input File <==

--------------------------------------------------------------------------
set {
	reference rhf
	basis cc-pvtz
}

set_num_threads( 4 )
memory 2 gb

molecule MOL {
0 1

H	 -2.257008	 -1.309895	 -1.458108
C	 -1.561711	 -0.782865	 -0.839451
C	 -1.955835	 0.350181	 -0.058410
C	 -0.284488	 -1.166425	 -0.771499
H	 -2.975932	 0.684097	 -0.090955
C	 -1.066537	 0.990957	 0.706528
H	 0.086019	 -2.005158	 -1.326830
N	 0.640204	 -0.530428	 -0.000115
H	 -1.325498	 1.841131	 1.303273
C	 0.325144	 0.569879	 0.778275
C	 2.006991	 -1.033007	 -0.000020
O	 1.152917	 1.119122	 1.453084
H	 2.182444	 -1.636914	 -0.880881
H	 2.678769	 -0.195442	 -0.002236
H	 2.183828	 -1.633244	 0.883082

	symmetry c1
}
set optking {
	frozen_dihedral = ("
		10 8 11 13
	")
}

ee,wfn = optimize('scf', return_wfn=True)
oeprop( wfn, 'DIPOLE', 'QUADRUPOLE', 'MULLIKEN_CHARGES')
f=open( 'psi4out.xyz', 'w' )
f.write( "15  " )
f.write( str(ee) + "\n" )
f.write( MOL.save_string_xyz() )
f.close()
--------------------------------------------------------------------------

    Molecular point group: c1
  Charge       = 0
  Multiplicity = 1
  Basis Set: CC-PVTZ
  Basis Set:
  @DF-RHF Final Energy:  -360.72278752783484
    Total Energy =                       -360.7227875278351803
    Molecular point group: c1
  Basis Set: CC-PVTZ
  Basis Set:
  Basis Set: CC-PVTZ
  Basis Set:
  @DF-RHF Final Energy:  -360.72323065674112
    Total Energy =                       -360.7232306567410660
  Basis Set: CC-PVTZ
  Basis Set:
  Basis Set: CC-PVTZ
  Basis Set:
  @DF-RHF Final Energy:  -360.72329229168929
    Total Energy =                       -360.7232922916892903
  Basis Set: CC-PVTZ
  Basis Set:
  Basis Set: CC-PVTZ
  Basis Set:
  @DF-RHF Final Energy:  -360.72326277906552
    Total Energy =                       -360.7232627790655215
  Basis Set: CC-PVTZ
  Basis Set:
  Charge       = 0
  Multiplicity = 1
  Basis Set: CC-PVTZ
  Basis Set:

    Orbital Energies (a.u.)
    -----------------------

    Doubly Occupied:

       1A    -20.501919     2A    -15.617559     3A    -11.338015
       4A    -11.294280     5A    -11.265472     6A    -11.258139
       7A    -11.229734     8A    -11.227901     9A     -1.391061
      10A     -1.285824    11A     -1.118811    12A     -1.029228
      13A     -0.972585    14A     -0.876380    15A     -0.838893
      16A     -0.719528    17A     -0.702167    18A     -0.663904
      19A     -0.653390    20A     -0.626056    21A     -0.611887
      22A     -0.574886    23A     -0.553704    24A     -0.550670
      25A     -0.530884    26A     -0.484375    27A     -0.420561
      28A     -0.410594    29A     -0.310263

  @DF-RHF Final Energy:  -360.72330113123928

   => Energetics <=

    Nuclear Repulsion Energy =            358.7733015680029212
    One-Electron Energy =               -1200.8758642549089473
    Two-Electron Energy =                 481.3792615556668579
    DFT Exchange-Correlation Energy =       0.0000000000000000
    Empirical Dispersion Energy =           0.0000000000000000
    PCM Polarization Energy =               0.0000000000000000
    EFP Energy =                            0.0000000000000000
    Total Energy =                       -360.7233011312391682
    Molecular point group: c1
  Basis Set: CC-PVTZ
  Basis Set:

  -Total Gradient:
     Atom            X                  Y                   Z
    ------   -----------------  -----------------  -----------------
       1       -0.000000902660     0.000005780927    -0.000008197062
       2        0.000189706747    -0.000099650722     0.000000575192
       3       -0.000008050903     0.000159131323     0.000122715902
       4       -0.000251192421    -0.000098122513    -0.000150613242
       5        0.000004263515    -0.000007390629    -0.000002056662
       6       -0.000183341105     0.000005952144    -0.000042045621
       7        0.000015602233     0.000016631253     0.000014268515
       8       -0.000115881837    -0.000264775517     0.000907635845
       9        0.000012684551     0.000008669861     0.000014729009
      10        0.000201970827     0.000113962313    -0.000907196440
      11       -0.000219681983    -0.000723175582     0.000278835505
      12        0.000113915082     0.000159253068     0.000198908578
      13        0.000266672257     0.000725098180    -0.000447266517
      14       -0.000025780610    -0.000005759227     0.000007360581
      15        0.000000016305     0.000004395120     0.000012346415

  **** Optimization is complete! (in 5 steps) ****
    Final optimized geometry and variables:
    Molecular point group: c1

    Geometry (in Angstrom), charge = 0, multiplicity = 1:

    H           -2.239143824954    -1.257968799672    -1.629272346466
    C           -1.542357747211    -0.727772675258    -1.015031236891
    C           -1.934040091195     0.411450994489    -0.243081603181
    C           -0.263851671492    -1.111946194210    -0.951260234496
    H           -2.953819475552     0.746103406196    -0.278459076779
    C           -1.043813672841     1.058515284309     0.516770796127
    H            0.102599785506    -1.953005390378    -1.504279500221
    N            0.660368993150    -0.467635689891    -0.188660099309
    H           -1.301387476724     1.912948771182     1.108193124518
    C            0.342741059876     0.627300247136     0.593952694068
    C            2.036387182923    -0.939391872001    -0.152970811277
    O            1.178327480675     1.154781439356     1.276959518728
    H            2.228301725367    -1.535195922411    -1.032527785210
    H            2.702706565273    -0.093841054058    -0.140525184508
    H            2.219580719705    -1.530164121031     0.734735669227

  Mulliken Charges: (a.u.)
   Center  Symbol    Alpha    Beta     Spin     Total
       1     H     0.41393  0.41393  0.00000  0.17213
       2     C     3.10583  3.10583  0.00000 -0.21167
       3     C     3.06018  3.06018  0.00000 -0.12036
       4     C     3.03646  3.03646  0.00000 -0.07293
       5     H     0.41842  0.41842  0.00000  0.16316
       6     C     3.11829  3.11829  0.00000 -0.23658
       7     H     0.42031  0.42031  0.00000  0.15938
       8     N     3.50949  3.50949  0.00000 -0.01898
       9     H     0.40920  0.40920  0.00000  0.18161
      10     C     2.84537  2.84537  0.00000  0.30926
      11     C     3.09480  3.09480  0.00000 -0.18959
      12     O     4.23599  4.23599  0.00000 -0.47198
      13     H     0.45528  0.45528  0.00000  0.08945
      14     H     0.43163  0.43163  0.00000  0.13674
      15     H     0.44483  0.44483  0.00000  0.11035

   Total alpha = 29.00000, Total beta = 29.00000, Total charge = -0.00000

*** Psi4 exiting successfully. Buy a developer a beer!
