  ==> Input File <==

--------------------------------------------------------------------------
set {
	reference rhf
	basis 6-31G*
}

set_num_threads( 4 )
memory 2 gb

molecule MOL {
0 1

H	 1.921121	 1.613867	 0.527984
O	 1.035413	 1.265190	 0.555066
C	 1.050492	 0.053836	 0.000068
C	 -0.318135	 -0.576402	 0.000164
O	 2.045287	 -0.432247	 -0.430169
C	 -1.454360	 0.441875	 -0.000474
H	 -0.374042	 -1.230163	 -0.866135
H	 -0.374274	 -1.229227	 0.867154
C	 -2.826123	 -0.230780	 0.000056
H	 -1.357605	 1.085198	 -0.868380
H	 -1.357504	 1.086451	 0.866496
H	 -2.959731	 -0.858053	 -0.876869
H	 -3.619374	 0.509403	 -0.000080
H	 -2.959371	 -0.857318	 0.877556

	symmetry c1
}
set optking {
	frozen_dihedral = ("
		2 3 4 7
	")
}

ee = optimize('scf')
oeprop('DIPOLE', 'QUADRUPOLE', 'MULLIKEN_CHARGES')
f=open( 'psi4out.xyz', 'w' )
f.write( "14  " )
f.write( str(ee) + "\n" )
f.write( MOL.save_string_xyz() )
f.close()
--------------------------------------------------------------------------

    Molecular point group: c1
  Charge       = 0
  Multiplicity = 1
  Basis Set: 6-31G*
  Basis Set:
  @DF-RHF Final Energy:  -305.87767980031754
    Total Energy =                       -305.8776798003176509
    Molecular point group: c1
  Basis Set: 6-31G*
  Basis Set:
  Basis Set: 6-31G*
  Basis Set:
  @DF-RHF Final Energy:  -305.87819290133933
    Total Energy =                       -305.8781929013395029
  Basis Set: 6-31G*
  Basis Set:
  Basis Set: 6-31G*
  Basis Set:
  @DF-RHF Final Energy:  -305.87767931344439
    Total Energy =                       -305.8776793134442187
  Basis Set: 6-31G*
  Basis Set:
  Basis Set: 6-31G*
  Basis Set:
  @DF-RHF Final Energy:  -305.87850881964209
    Total Energy =                       -305.8785088196420929
  Basis Set: 6-31G*
  Basis Set:
  Basis Set: 6-31G*
  Basis Set:
  @DF-RHF Final Energy:  -305.87851950499009
    Total Energy =                       -305.8785195049900381
  Basis Set: 6-31G*
  Basis Set:
  Basis Set: 6-31G*
  Basis Set:
  @DF-RHF Final Energy:  -305.87852075127603
    Total Energy =                       -305.8785207512762554
  Basis Set: 6-31G*
  Basis Set:
  Charge       = 0
  Multiplicity = 1
  Basis Set: 6-31G*
  Basis Set:

    Orbital Energies (a.u.)
    -----------------------

    Doubly Occupied:

       1A    -20.615207     2A    -20.548271     3A    -11.381685
       4A    -11.241422     5A    -11.230466     6A    -11.219609
       7A     -1.475784     8A     -1.364663     9A     -1.085213
      10A     -0.978243    11A     -0.846504    12A     -0.817897
      13A     -0.699632    14A     -0.681368    15A     -0.662384
      16A     -0.618745    17A     -0.590581    18A     -0.564046
      19A     -0.550383    20A     -0.523876    21A     -0.497224
      22A     -0.490161    23A     -0.469676    24A     -0.436986

  @DF-RHF Final Energy:  -305.87852096104450

   => Energetics <=

    Nuclear Repulsion Energy =            240.4007370355124351
    One-Electron Energy =                -893.3784652753632827
    Two-Electron Energy =                 347.0992072788063751
    DFT Exchange-Correlation Energy =       0.0000000000000000
    Empirical Dispersion Energy =           0.0000000000000000
    PCM Polarization Energy =               0.0000000000000000
    EFP Energy =                            0.0000000000000000
    Total Energy =                       -305.8785209610445008
    Molecular point group: c1
  Basis Set: 6-31G*
  Basis Set:

  -Total Gradient:
     Atom            X                  Y                   Z
    ------   -----------------  -----------------  -----------------
       1       -0.000002530745    -0.000004069479    -0.000001369566
       2       -0.000150722521     0.000327893071    -0.000697870048
       3        0.000142175825    -0.000306094641     0.000845096197
       4        0.000321402879    -0.000721236724     0.000374177717
       5       -0.000000701633     0.000004616196    -0.000000077414
       6       -0.000003475499     0.000005709102    -0.000026963432
       7       -0.000311957753     0.000705265072    -0.000503239641
       8        0.000000701028    -0.000007836894     0.000004888915
       9       -0.000001135760    -0.000001615842     0.000011194163
      10        0.000001331398     0.000003528659    -0.000001738840
      11        0.000003397106    -0.000006526319    -0.000003715438
      12       -0.000001139112     0.000007104692    -0.000003896861
      13        0.000000242188    -0.000001149960     0.000004940600
      14        0.000002412597    -0.000005586937    -0.000001426351

  **** Optimization is complete! (in 7 steps) ****
    Final optimized geometry and variables:
    Molecular point group: c1

    Geometry (in Angstrom), charge = 0, multiplicity = 1:

    H            2.071232157013     1.463072745256     0.469774574970
    O            1.163925127496     1.174888303007     0.501315378689
    C            1.105249364081    -0.044493562455    -0.028755026256
    C           -0.279340162161    -0.646096709200    -0.015335398718
    O            2.071875786500    -0.595395443272    -0.446745449615
    C           -1.442448879633     0.348047974919    -0.010681109107
    H           -0.333191816358    -1.303081350038    -0.875199287153
    H           -0.327327566232    -1.282845456457     0.865443331361
    C           -2.793626663155    -0.364750246242    -0.043636604290
    H           -1.358271715340     1.008383390332    -0.868961199069
    H           -1.379863823755     0.977986362813     0.868902701993
    H           -2.896242182749    -0.976953448037    -0.934888120997
    H           -3.608827436053     0.351218755600    -0.038526932748
    H           -2.917749880885    -1.013142072562     0.819119401493

  Mulliken Charges: (a.u.)
   Center  Symbol    Alpha    Beta     Spin     Total
       1     H     0.26720  0.26720  0.00000  0.46559
       2     O     4.34775  4.34775  0.00000 -0.69550
       3     C     2.62345  2.62345  0.00000  0.75310
       4     C     3.20998  3.20998  0.00000 -0.41997
       5     O     4.28204  4.28204  0.00000 -0.56408
       6     C     3.15574  3.15574  0.00000 -0.31149
       7     H     0.39603  0.39603  0.00000  0.20793
       8     H     0.39840  0.39840  0.00000  0.20319
       9     C     3.24294  3.24294  0.00000 -0.48589
      10     H     0.41508  0.41508  0.00000  0.16984
      11     H     0.40767  0.40767  0.00000  0.18467
      12     H     0.41921  0.41921  0.00000  0.16159
      13     H     0.41456  0.41456  0.00000  0.17088
      14     H     0.41994  0.41994  0.00000  0.16013

   Total alpha = 24.00000, Total beta = 24.00000, Total charge =  0.00000
