  ==> Input File <==

--------------------------------------------------------------------------
set {
	reference rhf
	basis 6-31G*
}

set_num_threads( 4 )
memory 2 gb

molecule MOL {
0 1

H	 2.591676	 2.013956	 0.335017
O	 3.341076	 1.666752	 -0.126416
C	 3.569581	 0.339145	 0.272707
C	 2.539767	 -0.640285	 -0.279495
H	 4.553106	 0.084646	 -0.100901
H	 3.608576	 0.269204	 1.359154
C	 1.115811	 -0.397273	 0.226630
H	 2.556196	 -0.582511	 -1.364741
H	 2.852081	 -1.648031	 -0.010655
C	 0.115918	 -1.429151	 -0.302766
H	 0.797950	 0.599468	 -0.066350
H	 1.109961	 -0.420744	 1.316472
C	 0.741190	 -2.587152	 -1.089156
H	 -0.460246	 -1.829142	 0.529634
H	 -0.597414	 -0.920527	 -0.947869
C	 1.626879	 -3.523480	 -0.262522
H	 -0.061947	 -3.171817	 -1.532950
H	 1.317936	 -2.186388	 -1.921376
C	 2.141491	 -4.720222	 -1.065278
H	 1.063859	 -3.884169	 0.597143
H	 2.477632	 -2.977358	 0.137817
C	 3.031077	 -5.653050	 -0.244221
H	 1.295780	 -5.281111	 -1.457278
H	 2.696087	 -4.361718	 -1.930023
H	 2.494501	 -6.054403	 0.610896
H	 3.377998	 -6.491701	 -0.839994
H	 3.906225	 -5.130497	 0.131834

	symmetry c1
}
set optking {
	frozen_dihedral = ("
		14 10 7 4
	")
}

ee = optimize('scf')
oeprop('DIPOLE', 'QUADRUPOLE', 'MULLIKEN_CHARGES')
f=open( 'psi4out.xyz', 'w' )
f.write( "27  " )
f.write( str(ee) + "\n" )
f.write( MOL.save_string_xyz() )
f.close()
--------------------------------------------------------------------------

    Molecular point group: c1
  Charge       = 0
  Multiplicity = 1
  Basis Set: 6-31G*
  Basis Set:
  @DF-RHF Final Energy:  -388.25182301128939
    Total Energy =                       -388.2518230112893889
    Molecular point group: c1
  Basis Set: 6-31G*
  Basis Set:
  Basis Set: 6-31G*
  Basis Set:
  @DF-RHF Final Energy:  -388.26616127184496
    Total Energy =                       -388.2661612718447941
  Basis Set: 6-31G*
  Basis Set:
  Basis Set: 6-31G*
  Basis Set:
  @DF-RHF Final Energy:  -388.26937376472591
    Total Energy =                       -388.2693737647265380
  Basis Set: 6-31G*
  Basis Set:
  Basis Set: 6-31G*
  Basis Set:
  @DF-RHF Final Energy:  -388.27015978418285
    Total Energy =                       -388.2701597841827379
  Basis Set: 6-31G*
  Basis Set:
  @DF-RHF Final Energy:  -388.27038572777155
    Total Energy =                       -388.2703857277714405
  Basis Set: 6-31G*
  Basis Set:
  @DF-RHF Final Energy:  -388.27056366845608
    Total Energy =                       -388.2705636684559067
  Basis Set: 6-31G*
  Basis Set:
  Basis Set: 6-31G*
  Basis Set:
  @DF-RHF Final Energy:  -388.27057907679989
    Total Energy =                       -388.2705790768004590
  Basis Set: 6-31G*
  Basis Set:
  Basis Set: 6-31G*
  Basis Set:
  @DF-RHF Final Energy:  -388.27058489547363
    Total Energy =                       -388.2705848954735757
  Basis Set: 6-31G*
  Basis Set:
  Charge       = 0
  Multiplicity = 1
  Basis Set: 6-31G*
  Basis Set:

    Orbital Energies (a.u.)
    -----------------------

    Doubly Occupied:

       1A    -20.552421     2A    -11.267335     3A    -11.220999
       4A    -11.217900     5A    -11.215693     6A    -11.214947
       7A    -11.214476     8A    -11.213830     9A    -11.209357
      10A     -1.359228    11A     -1.092294    12A     -1.058433
      13A     -1.009188    14A     -0.950412    15A     -0.887195
      16A     -0.833610    17A     -0.797121    18A     -0.765048
      19A     -0.695503    20A     -0.654134    21A     -0.636050
      22A     -0.614751    23A     -0.601721    24A     -0.585075
      25A     -0.568649    26A     -0.553834    27A     -0.549774
      28A     -0.521382    29A     -0.516135    30A     -0.492186
      31A     -0.484984    32A     -0.476967    33A     -0.467797
      34A     -0.455122    35A     -0.446976    36A     -0.435937
      37A     -0.425186

  @DF-RHF Final Energy:  -388.27058569061603

   => Energetics <=

    Nuclear Repulsion Energy =            467.9796502677054377
    One-Electron Energy =               -1453.9771693448394672
    Two-Electron Energy =                 597.7269333865176577
    DFT Exchange-Correlation Energy =       0.0000000000000000
    Empirical Dispersion Energy =           0.0000000000000000
    PCM Polarization Energy =               0.0000000000000000
    EFP Energy =                            0.0000000000000000
    Total Energy =                       -388.2705856906163717
    Molecular point group: c1
  Basis Set: 6-31G*
  Basis Set:

  -Total Gradient:
     Atom            X                  Y                   Z
    ------   -----------------  -----------------  -----------------
       1        0.000003690168     0.000002655618     0.000000195430
       2        0.000003903269     0.000006880638    -0.000012407696
       3        0.000011063959    -0.000010533070     0.000027106040
       4        0.001106222004    -0.002054028961     0.002740384976
       5       -0.000004532942     0.000020852027    -0.000013538106
       6        0.000011888106    -0.000009504805     0.000007866160
       7       -0.000890301637     0.002380892767    -0.004045730330
       8        0.000002839908     0.000035570534     0.000018179481
       9        0.000077300608    -0.000120913885     0.000046843304
      10       -0.003898844058     0.002975020845     0.001084104913
      11       -0.000014822008     0.000012994920    -0.000002721547
      12       -0.000017205000     0.000023297705    -0.000030367109
      13       -0.000058199557    -0.000005020125     0.000034123982
      14        0.003644001396    -0.003253500767     0.000153509247
      15       -0.000011969717    -0.000007629439    -0.000007084045
      16       -0.000005280854    -0.000030121499    -0.000024291797
      17       -0.000025658779    -0.000024354617    -0.000011486397
      18       -0.000008314535     0.000009070465     0.000031960118
      19        0.000010975069     0.000006769761    -0.000013885123
      20       -0.000032743743    -0.000002148334    -0.000005265882
      21        0.000102434458     0.000033369533     0.000015251065
      22       -0.000032854571     0.000001622573     0.000017263069
      23        0.000006234355     0.000018334028    -0.000009379382
      24        0.000032911631    -0.000005915779    -0.000005340064
      25        0.000000056444    -0.000009414557     0.000013695117
      26       -0.000012179487     0.000008731565    -0.000006395440
      27       -0.000000614487    -0.000002977142    -0.000002589983

  **** Optimization is complete! (in 9 steps) ****
    Final optimized geometry and variables:
    Molecular point group: c1

    Geometry (in Angstrom), charge = 0, multiplicity = 1:

    H            0.278252264737     4.037815272970     0.709067352496
    O            1.043091550204     3.830713226583     0.192329156613
    C            1.501046516959     2.543014926094     0.517494942743
    C            0.625324604142     1.428143965475    -0.047120280673
    H            2.495880138855     2.470359919664     0.096965479722
    H            1.597966173994     2.434057362859     1.597130040327
    C           -0.791621621692     1.431533461078     0.538114649758
    H            0.589773981780     1.542868369763    -1.126606024995
    H            1.120328258068     0.484091770816     0.157496177808
    C           -1.771603464589     0.308505610775     0.088300193076
    H           -1.252548360548     2.388304525213     0.311594550494
    H           -0.698297472840     1.396928384546     1.622089467913
    C           -1.206622596913    -0.856044854188    -0.745072488296
    H           -2.213701087907    -0.136890037368     0.975141895961
    H           -2.583308614757     0.761698491438    -0.470917440114
    C           -0.495396485375    -1.933930092609     0.079747244224
    H           -2.038318660847    -1.328145715951    -1.263627918478
    H           -0.545434306152    -0.487071502947    -1.523346844167
    C            0.093728593692    -3.055477695138    -0.777750589320
    H           -1.206849812068    -2.359669801934     0.785834908934
    H            0.295784738146    -1.493757885867     0.681976456944
    C            0.759212948075    -4.154841199299     0.049494733870
    H           -0.693169266359    -3.491184111004    -1.389905662137
    H            0.820219493408    -2.635381054662    -1.470209191747
    H            0.048803864851    -4.620323842649     0.726922324363
    H            1.167974576227    -4.933618006223    -0.586900436409
    H            1.573390374128    -3.756751099583     0.648738249689

  Mulliken Charges: (a.u.)
   Center  Symbol    Alpha    Beta     Spin     Total
       1     H     0.27968  0.27968  0.00000  0.44064
       2     O     4.37113  4.37113  0.00000 -0.74225
       3     C     2.99700  2.99700  0.00000  0.00599
       4     C     3.16536  3.16536  0.00000 -0.33072
       5     H     0.41442  0.41442  0.00000  0.17117
       6     H     0.43212  0.43212  0.00000  0.13577
       7     C     3.16521  3.16521  0.00000 -0.33041
       8     H     0.41437  0.41437  0.00000  0.17126
       9     H     0.42115  0.42115  0.00000  0.15769
      10     C     3.15729  3.15729  0.00000 -0.31457
      11     H     0.42247  0.42247  0.00000  0.15506
      12     H     0.42382  0.42382  0.00000  0.15235
      13     C     3.15728  3.15728  0.00000 -0.31457
      14     H     0.42052  0.42052  0.00000  0.15897
      15     H     0.41777  0.41777  0.00000  0.16446
      16     C     3.15260  3.15260  0.00000 -0.30521
      17     H     0.42073  0.42073  0.00000  0.15853
      18     H     0.41957  0.41957  0.00000  0.16087
      19     C     3.15185  3.15185  0.00000 -0.30370
      20     H     0.42399  0.42399  0.00000  0.15203
      21     H     0.42381  0.42381  0.00000  0.15239
      22     C     3.23918  3.23918  0.00000 -0.47836
      23     H     0.42274  0.42274  0.00000  0.15451
      24     H     0.42274  0.42274  0.00000  0.15452
      25     H     0.42178  0.42178  0.00000  0.15643
      26     H     0.41910  0.41910  0.00000  0.16180
      27     H     0.42233  0.42233  0.00000  0.15535

   Total alpha = 37.00000, Total beta = 37.00000, Total charge =  0.00000
