  ==> Input File <==

--------------------------------------------------------------------------
set {
	reference rhf
	basis 6-31G*
}

set_num_threads( 1 )
memory 2 gb

molecule MOL {
0 1

O	 1.837375	 1.284556	 0.174971
C	 1.705091	 0.115954	 0.001797
C	 0.395684	 -0.592691	 -0.245473
O	 2.721346	 -0.737485	 -0.000216
C	 -0.808301	 0.344306	 -0.255494
H	 0.487822	 -1.125515	 -1.187982
H	 0.291978	 -1.358909	 0.517989
C	 -2.120464	 -0.399412	 -0.508819
H	 -0.662815	 1.105323	 -1.015675
H	 -0.859582	 0.870854	 0.692360
C	 -3.338691	 0.525564	 -0.523034
H	 -2.061396	 -0.928264	 -1.458989
H	 -2.259429	 -1.162702	 0.255353
C	 -4.649601	 -0.218270	 -0.774979
H	 -3.202585	 1.287124	 -1.287653
H	 -3.399561	 1.053915	 0.425796
H	 -4.632871	 -0.729195	 -1.733567
H	 -5.494003	 0.463946	 -0.778971
H	 -4.831184	 -0.964631	 -0.006680
C	 4.024888	 -0.184556	 -0.001949
H	 4.179030	 0.422472	 -0.882452
H	 4.701782	 -1.024608	 -0.003642
H	 4.181981	 0.421185	 0.878906

	symmetry c1
}
set optking {
	frozen_dihedral = ("
		15 11 8 12,
		9 5 8 12,
		1 2 3 6,
		9 5 3 6
	")
}

ee = energy('scf')
oeprop('DIPOLE', 'QUADRUPOLE', 'MULLIKEN_CHARGES')
f=open( 'psi4out.xyz', 'w' )
f.write( "23  " )
f.write( str(ee) + "\n" )
f.write( MOL.save_string_xyz() )
f.close()
--------------------------------------------------------------------------

    Molecular point group: c1

    Geometry (in Angstrom), charge = 0, multiplicity = 1:

       Center              X                  Y                   Z               Mass
    ------------   -----------------  -----------------  -----------------  -----------------
           O          1.823903158547     1.267960771619     0.409631089792    15.994914619560
           C          1.691619158547     0.099358771619     0.236457089792    12.000000000000
           C          0.382212158547    -0.609286228381    -0.010812910208    12.000000000000
           O          2.707874158547    -0.754080228381     0.234444089792    15.994914619560
           C         -0.821772841453     0.327710771619    -0.020833910208    12.000000000000
           H          0.474350158547    -1.142110228381    -0.953321910208     1.007825032070
           H          0.278506158547    -1.375504228381     0.752649089792     1.007825032070
           C         -2.133935841453    -0.416007228381    -0.274158910208    12.000000000000
           H         -0.676286841453     1.088727771619    -0.781014910208     1.007825032070
           H         -0.873053841453     0.854258771619     0.927020089792     1.007825032070
           C         -3.352162841453     0.508968771619    -0.288373910208    12.000000000000
           H         -2.074867841453    -0.944859228381    -1.224328910208     1.007825032070
           H         -2.272900841453    -1.179297228381     0.490013089792     1.007825032070
           C         -4.663072841453    -0.234865228381    -0.540318910208    12.000000000000
           H         -3.216056841453     1.270528771619    -1.052992910208     1.007825032070
           H         -3.413032841453     1.037319771619     0.660456089792     1.007825032070
           H         -4.646342841453    -0.745790228381    -1.498906910208     1.007825032070
           H         -5.507474841453     0.447350771619    -0.544310910208     1.007825032070
           H         -4.844655841453    -0.981226228381     0.227980089792     1.007825032070
           C          4.011416158547    -0.201151228381     0.232711089792    12.000000000000
           H          4.165558158547     0.405876771619    -0.647791910208     1.007825032070
           H          4.688310158547    -1.041203228381     0.231018089792     1.007825032070
           H          4.168509158547     0.404589771619     1.113566089792     1.007825032070

  Charge       = 0
  Multiplicity = 1
  Basis Set: 6-31G*
  Basis Set:

    Orbital Energies (a.u.)
    -----------------------

    Doubly Occupied:

       1A    -20.603039     2A    -20.545615     3A    -11.372328
       4A    -11.281094     5A    -11.235576     6A    -11.219279
       7A    -11.217914     8A    -11.216504     9A    -11.209667
      10A     -1.469147    11A     -1.362801    12A     -1.093223
      13A     -1.043618    14A     -0.987021    15A     -0.932288
      16A     -0.843675    17A     -0.795099    18A     -0.767286
      19A     -0.696868    20A     -0.683673    21A     -0.671503
      22A     -0.651733    23A     -0.609339    24A     -0.599656
      25A     -0.572896    26A     -0.559265    27A     -0.556377
      28A     -0.525232    29A     -0.519499    30A     -0.507771
      31A     -0.484450    32A     -0.469817    33A     -0.466327
      34A     -0.461724    35A     -0.455222    36A     -0.435144

  @DF-RHF Final Energy:  -422.97564572515660

   => Energetics <=

    Nuclear Repulsion Energy =            452.1393402669393708
    One-Electron Energy =               -1471.9866661352421033
    Two-Electron Energy =                 596.8716801431482963
    DFT Exchange-Correlation Energy =       0.0000000000000000
    Empirical Dispersion Energy =           0.0000000000000000
    PCM Polarization Energy =               0.0000000000000000
    EFP Energy =                            0.0000000000000000
    Total Energy =                       -422.9756457251544361

  Mulliken Charges: (a.u.)
   Center  Symbol    Alpha    Beta     Spin     Total
       1     O     4.28550  4.28550  0.00000 -0.57100
       2     C     2.60475  2.60475  0.00000  0.79050
       3     C     3.20841  3.20841  0.00000 -0.41682
       4     O     4.30757  4.30757  0.00000 -0.61514
       5     C     3.15248  3.15248  0.00000 -0.30496
       6     H     0.40110  0.40110  0.00000  0.19779
       7     H     0.40028  0.40028  0.00000  0.19944
       8     C     3.15332  3.15332  0.00000 -0.30664
       9     H     0.41188  0.41188  0.00000  0.17624
      10     H     0.41156  0.41156  0.00000  0.17688
      11     C     3.15155  3.15155  0.00000 -0.30310
      12     H     0.42414  0.42414  0.00000  0.15172
      13     H     0.42392  0.42392  0.00000  0.15217
      14     C     3.23958  3.23958  0.00000 -0.47916
      15     H     0.42138  0.42138  0.00000  0.15723
      16     H     0.42127  0.42127  0.00000  0.15746
      17     H     0.42185  0.42185  0.00000  0.15630
      18     H     0.41847  0.41847  0.00000  0.16306
      19     H     0.42178  0.42178  0.00000  0.15643
      20     C     3.09276  3.09276  0.00000 -0.18552
      21     H     0.41135  0.41135  0.00000  0.17731
      22     H     0.40830  0.40830  0.00000  0.18339
      23     H     0.40679  0.40679  0.00000  0.18642

   Total alpha = 36.00000, Total beta = 36.00000, Total charge =  0.00000
