                              Psi4 1.0.54 Driver

  ==> Input File <==

--------------------------------------------------------------------------
set {
	reference rhf
	basis cc-pvtz
}

set_num_threads( 4 )
memory 2 gb

molecule MOL {
0 1

O	 -2.081319	 -0.951530	 -0.502732
N	 -1.613558	 0.006676	 0.014756
C	 -0.329345	 -0.171618	 0.743966
O	 -2.068523	 1.100482	 -0.024385
C	 0.835904	 0.041968	 -0.213982
H	 -0.346048	 -1.174374	 1.137184
H	 -0.333613	 0.555559	 1.538590
C	 2.160608	 0.149579	 0.536847
H	 0.872435	 -0.784934	 -0.913594
H	 0.659834	 0.945447	 -0.786226
C	 3.343592	 0.371103	 -0.399078
H	 2.322004	 -0.755070	 1.115639
H	 2.105957	 0.966819	 1.249967
H	 3.443779	 -0.447718	 -1.102776
H	 3.224971	 1.285836	 -0.969085
H	 4.269466	 0.445002	 0.158110

	symmetry c1
}
set optking {
	frozen_dihedral = ("
		9 5 3 2
	")
}

ee,wfn = optimize('scf', return_wfn=True)
oeprop( wfn, 'DIPOLE', 'QUADRUPOLE', 'MULLIKEN_CHARGES')
f=open( 'psi4out.xyz', 'w' )
f.write( "16  " )
f.write( str(ee) + "\n" )
f.write( MOL.save_string_xyz() )
f.close()
--------------------------------------------------------------------------

    Molecular point group: c1
  Charge       = 0
  Multiplicity = 1
  Basis Set: CC-PVTZ
  Basis Set:
  @DF-RHF Final Energy:  -360.90904384081603
    Total Energy =                       -360.9090438408157411
    Molecular point group: c1
  Basis Set: CC-PVTZ
  Basis Set:
  Basis Set: CC-PVTZ
  Basis Set:
  @DF-RHF Final Energy:  -360.90904230287498
    Total Energy =                       -360.9090423028751502
  Basis Set: CC-PVTZ
  Basis Set:
  Basis Set: CC-PVTZ
  Basis Set:
  @DF-RHF Final Energy:  -360.90453858314316
    Total Energy =                       -360.9045385831434487
  Basis Set: CC-PVTZ
  Basis Set:
  Basis Set: CC-PVTZ
  Basis Set:
  @DF-RHF Final Energy:  -360.90872310723722
    Total Energy =                       -360.9087231072372788
  Basis Set: CC-PVTZ
  Basis Set:
  @DF-RHF Final Energy:  -360.90901631282907
    Total Energy =                       -360.9090163128290669
  Basis Set: CC-PVTZ
  Basis Set:
  @DF-RHF Final Energy:  -360.90910047964309
    Total Energy =                       -360.9091004796430298
  Basis Set: CC-PVTZ
  Basis Set:
  Basis Set: CC-PVTZ
  Basis Set:
  @DF-RHF Final Energy:  -360.90910384925604
    Total Energy =                       -360.9091038492553594
  Basis Set: CC-PVTZ
  Basis Set:
  Basis Set: CC-PVTZ
  Basis Set:
  @DF-RHF Final Energy:  -360.90910527494265
    Total Energy =                       -360.9091052749427604
  Basis Set: CC-PVTZ
  Basis Set:
  Charge       = 0
  Multiplicity = 1
  Basis Set: CC-PVTZ
  Basis Set:

    Orbital Energies (a.u.)
    -----------------------

    Doubly Occupied:

       1A    -20.589638     2A    -20.589562     3A    -15.836134
       4A    -11.296296     5A    -11.250905     6A    -11.241749
       7A    -11.225860     8A     -1.635135     9A     -1.419428
      10A     -1.136527    11A     -1.060112    12A     -0.948774
      13A     -0.843340    14A     -0.829110    15A     -0.757899
      16A     -0.737845    17A     -0.728049    18A     -0.679067
      19A     -0.616368    20A     -0.607668    21A     -0.567248
      22A     -0.543418    23A     -0.516796    24A     -0.503900
      25A     -0.496871    26A     -0.485894    27A     -0.469796
      28A     -0.452290

  @DF-RHF Final Energy:  -360.90910533782017

   => Energetics <=

    Nuclear Repulsion Energy =            313.0387386831062031
    One-Electron Energy =               -1111.7643289025845661
    Two-Electron Energy =                 437.8164848816580275
    DFT Exchange-Correlation Energy =       0.0000000000000000
    Empirical Dispersion Energy =           0.0000000000000000
    PCM Polarization Energy =               0.0000000000000000
    EFP Energy =                            0.0000000000000000
    Total Energy =                       -360.9091053378203355
    Molecular point group: c1
  Basis Set: CC-PVTZ
  Basis Set:

  -Total Gradient:
     Atom            X                  Y                   Z
    ------   -----------------  -----------------  -----------------
       1       -0.000029573753     0.000010806610    -0.000007242257
       2        0.000116961605     0.001503784425     0.000520745763
       3        0.000166980411    -0.002310670695    -0.000364160340
       4       -0.000019455617    -0.000007139372    -0.000016262574
       5       -0.001402819847     0.002089969230    -0.001448926418
       6        0.000006687230     0.000002529301     0.000004015412
       7       -0.000000941103     0.000004590981     0.000001785755
       8       -0.000002015719    -0.000005802627    -0.000000539011
       9        0.001164758974    -0.001286096290     0.001308436672
      10        0.000000788117    -0.000001358025     0.000004379333
      11       -0.000002626721     0.000001761682    -0.000004977407
      12        0.000000427756    -0.000000651517     0.000001428995
      13       -0.000002268878    -0.000000199864     0.000000121062
      14        0.000001608148     0.000000237639    -0.000000536407
      15        0.000000286880    -0.000001901128    -0.000000103222
      16        0.000001202523     0.000000139652     0.000001834644

  **** Optimization is complete! (in 9 steps) ****
    Final optimized geometry and variables:
    Molecular point group: c1

    Geometry (in Angstrom), charge = 0, multiplicity = 1:

    O           -2.077483492123    -0.831297831283    -0.751813786820
    N           -1.609044141938     0.036633096624    -0.094176333285
    C           -0.383122986279    -0.284612943571     0.684485685201
    O           -2.018976325229     1.146784020947    -0.028148590770
    C            0.850100658448    -0.053222934997    -0.181713510112
    H           -0.476553562086    -1.313545299233     0.988769285633
    H           -0.398376229499     0.373256611587     1.537261409598
    C            2.128851326363    -0.115609458608     0.651279234824
    H            0.886177002003    -0.811599229430    -0.954558931104
    H            0.770872549454     0.913928784214    -0.663788935273
    C            3.383962230771     0.067062375083    -0.194686330202
    H            2.177596607816    -1.069860277728     1.168220363937
    H            2.095543676114     0.650460571114     1.419914034470
    H            3.463418894004    -0.707338983509    -0.949484914172
    H            3.376575552903     1.025313922999    -0.702144699167
    H            4.274808712016     0.023991787351     0.419904635586

  Mulliken Charges: (a.u.)
   Center  Symbol    Alpha    Beta     Spin     Total
       1     O     4.17464  4.17464  0.00000 -0.34927
       2     N     3.27650  3.27650  0.00000  0.44699
       3     C     3.03977  3.03977  0.00000 -0.07954
       4     O     4.17308  4.17308  0.00000 -0.34616
       5     C     3.10025  3.10025  0.00000 -0.20051
       6     H     0.43297  0.43297  0.00000  0.13406
       7     H     0.43511  0.43511  0.00000  0.12977
       8     C     3.09342  3.09342  0.00000 -0.18683
       9     H     0.43905  0.43905  0.00000  0.12191
      10     H     0.43736  0.43736  0.00000  0.12528
      11     C     3.14840  3.14840  0.00000 -0.29680
      12     H     0.45116  0.45116  0.00000  0.09767
      13     H     0.44955  0.44955  0.00000  0.10090
      14     H     0.45199  0.45199  0.00000  0.09602
      15     H     0.45157  0.45157  0.00000  0.09686
      16     H     0.44518  0.44518  0.00000  0.10964

   Total alpha = 28.00000, Total beta = 28.00000, Total charge = -0.00000

*** Psi4 exiting successfully. Buy a developer a beer!
