  ==> Input File <==

--------------------------------------------------------------------------
set {
	reference rhf
	basis 6-31G*
}

set_num_threads( 4 )
memory 2 gb

molecule MOL {
0 1

H	 2.335974	 -0.112656	 0.156949
O	 1.586534	 -0.678666	 -0.000226
C	 0.489431	 0.077273	 0.000046
C	 -0.764129	 -0.759190	 0.000191
O	 0.537743	 1.263962	 0.000257
C	 -2.038368	 0.075731	 -0.000248
H	 -0.717284	 -1.412404	 -0.866059
H	 -0.717458	 -1.411724	 0.866967
H	 -2.086483	 0.712501	 -0.875098
H	 -2.908485	 -0.571682	 -0.000042
H	 -2.086576	 0.713280	 0.874068

	symmetry c1
}
set optking {
	frozen_dihedral = ("
		1 2 3 5
	")
}

ee = optimize('scf')
oeprop('DIPOLE', 'QUADRUPOLE', 'MULLIKEN_CHARGES')
f=open( 'psi4out.xyz', 'w' )
f.write( "11  " )
f.write( str(ee) + "\n" )
f.write( MOL.save_string_xyz() )
f.close()
--------------------------------------------------------------------------

    Molecular point group: c1
  Charge       = 0
  Multiplicity = 1
  Basis Set: 6-31G*
  Basis Set:
  @DF-RHF Final Energy:  -266.84552297679397
    Total Energy =                       -266.8455229767938022
    Molecular point group: c1
  Basis Set: 6-31G*
  Basis Set:
  Basis Set: 6-31G*
  Basis Set:
  @DF-RHF Final Energy:  -266.84404048515091
    Total Energy =                       -266.8440404851510834
  Basis Set: 6-31G*
  Basis Set:
  Basis Set: 6-31G*
  Basis Set:
  @DF-RHF Final Energy:  -266.84557960500507
    Total Energy =                       -266.8455796050049003
  Basis Set: 6-31G*
  Basis Set:
  Basis Set: 6-31G*
  Basis Set:
  @DF-RHF Final Energy:  -266.84558558903939
    Total Energy =                       -266.8455855890395014
  Basis Set: 6-31G*
  Basis Set:
  Basis Set: 6-31G*
  Basis Set:
  @DF-RHF Final Energy:  -266.84558693969950
    Total Energy =                       -266.8455869396997855
  Basis Set: 6-31G*
  Basis Set:
  Basis Set: 6-31G*
  Basis Set:
  @DF-RHF Final Energy:  -266.84558158819073
    Total Energy =                       -266.8455815881908961
  Basis Set: 6-31G*
  Basis Set:
  Charge       = 0
  Multiplicity = 1
  Basis Set: 6-31G*
  Basis Set:

    Orbital Energies (a.u.)
    -----------------------

    Doubly Occupied:

       1A    -20.613309     2A    -20.553055     3A    -11.382150
       4A    -11.244139     5A    -11.220432     6A     -1.475286
       7A     -1.367106     8A     -1.065235     9A     -0.916933
      10A     -0.801335    11A     -0.702013    12A     -0.690416
      13A     -0.662204    14A     -0.598104    15A     -0.590486
      16A     -0.531922    17A     -0.525927    18A     -0.505358
      19A     -0.480190    20A     -0.445934

  @DF-RHF Final Energy:  -266.84558792887526

   => Energetics <=

    Nuclear Repulsion Energy =            179.7591925602353911
    One-Electron Energy =                -720.4664964988302245
    Two-Electron Energy =                 273.8617160097194301
    DFT Exchange-Correlation Energy =       0.0000000000000000
    Empirical Dispersion Energy =           0.0000000000000000
    PCM Polarization Energy =               0.0000000000000000
    EFP Energy =                            0.0000000000000000
    Total Energy =                       -266.8455879288753749
    Molecular point group: c1
  Basis Set: 6-31G*
  Basis Set:

  -Total Gradient:
     Atom            X                  Y                   Z
    ------   -----------------  -----------------  -----------------
       1       -0.000234292412    -0.000668259394     0.003861767878
       2        0.000288705194     0.000854139595    -0.006406535814
       3        0.000083650051    -0.000266252354     0.006087549899
       4       -0.000005318868     0.000013698376    -0.000011621126
       5       -0.000116018640     0.000071612996    -0.003535652663
       6       -0.000011293921    -0.000017288907     0.000001845449
       7       -0.000001282468     0.000001095345     0.000000485003
       8        0.000000796993     0.000007283458     0.000000335223
       9        0.000002431047    -0.000002039954    -0.000000705626
      10       -0.000008578675     0.000006726731     0.000001126634
      11        0.000001201699    -0.000000715892     0.000001405142

  **** Optimization is complete! (in 7 steps) ****
    Final optimized geometry and variables:
    Molecular point group: c1

    Geometry (in Angstrom), charge = 0, multiplicity = 1:

    H            2.342523219775    -0.116598262760     0.102281454748
    O            1.586920770987    -0.677263050097    -0.043475900071
    C            0.489537160437     0.077664962911     0.014139997543
    C           -0.763796454033    -0.759061812148     0.001622370522
    O            0.537039747463     1.263797715781     0.043529894993
    C           -2.038374484339     0.075044990844    -0.019404504705
    H           -0.705412877144    -1.418574010781    -0.858896347239
    H           -0.727930303845    -1.405426877039     0.873805811661
    H           -2.077634742047     0.704217922909    -0.900320569835
    H           -2.908231158117    -0.572740003651    -0.023030471024
    H           -2.095974684604     0.720118149113     0.848669480109

  Mulliken Charges: (a.u.)
   Center  Symbol    Alpha    Beta     Spin     Total
       1     H     0.26755  0.26755  0.00000  0.46490
       2     O     4.35073  4.35073  0.00000 -0.70147
       3     C     2.62532  2.62532  0.00000  0.74935
       4     C     3.20825  3.20825  0.00000 -0.41649
       5     O     4.27774  4.27774  0.00000 -0.55548
       6     C     3.23951  3.23951  0.00000 -0.47903
       7     H     0.39764  0.39764  0.00000  0.20473
       8     H     0.39860  0.39860  0.00000  0.20280
       9     H     0.40926  0.40926  0.00000  0.18148
      10     H     0.41667  0.41667  0.00000  0.16666
      11     H     0.40872  0.40872  0.00000  0.18256

   Total alpha = 20.00000, Total beta = 20.00000, Total charge =  0.00000
