                              Psi4 1.0.54 Driver

  ==> Input File <==

--------------------------------------------------------------------------
set {
	reference rhf
	basis cc-pvtz
}

set_num_threads( 4 )
memory 2 gb

molecule MOL {
0 1

H	 1.752493	 2.239792	 2.378407
O	 2.652683	 2.048413	 2.191695
C	 2.913411	 0.685819	 2.402956
C	 2.310661	 -0.219107	 1.338772
H	 3.990459	 0.586430	 2.394713
H	 2.569480	 0.382223	 3.389867
C	 0.783839	 -0.228260	 1.314642
H	 2.690002	 0.088198	 0.368812
H	 2.673652	 -1.228972	 1.514293
C	 0.215039	 -1.172352	 0.256345
H	 0.422027	 0.778248	 1.132885
H	 0.409939	 -0.523275	 2.293647
C	 -1.311023	 -1.277304	 0.237018
H	 0.565750	 -0.861494	 -0.724775
H	 0.625173	 -2.164571	 0.422958
C	 -2.041121	 -0.006551	 -0.194127
H	 -1.588844	 -2.081346	 -0.438896
H	 -1.662223	 -1.577199	 1.221842
C	 -3.489218	 0.042606	 0.286507
H	 -2.022185	 0.066287	 -1.279394
H	 -1.518764	 0.869305	 0.178730
C	 -4.219984	 1.311773	 -0.139038
H	 -4.022855	 -0.824300	 -0.093339
H	 -3.510372	 -0.038577	 1.370031
H	 -4.244251	 1.405725	 -1.219696
H	 -5.244345	 1.313233	 0.215630
H	 -3.732090	 2.196311	 0.257073

	symmetry c1
}
set optking {
	frozen_dihedral = ("
		10 13 16 20
	")
}

ee,wfn = optimize('scf', return_wfn=True)
oeprop( wfn, 'DIPOLE', 'QUADRUPOLE', 'MULLIKEN_CHARGES')
f=open( 'psi4out.xyz', 'w' )
f.write( "27  " )
f.write( str(ee) + "\n" )
f.write( MOL.save_string_xyz() )
f.close()
--------------------------------------------------------------------------

    Molecular point group: c1
  Charge       = 0
  Multiplicity = 1
  Basis Set: CC-PVTZ
  Basis Set:
  @DF-RHF Final Energy:  -388.42572972024305
    Total Energy =                       -388.4257297202420887
    Molecular point group: c1
  Basis Set: CC-PVTZ
  Basis Set:
  Basis Set: CC-PVTZ
  Basis Set:
  @DF-RHF Final Energy:  -388.41682415015106
    Total Energy =                       -388.4168241501512284
  Basis Set: CC-PVTZ
  Basis Set:
  Basis Set: CC-PVTZ
  Basis Set:
  @DF-RHF Final Energy:  -388.42593752365570
    Total Energy =                       -388.4259375236558753
  Basis Set: CC-PVTZ
  Basis Set:
  Basis Set: CC-PVTZ
  Basis Set:
  @DF-RHF Final Energy:  -388.42607477511757
    Total Energy =                       -388.4260747751166036
  Basis Set: CC-PVTZ
  Basis Set:
  Basis Set: CC-PVTZ
  Basis Set:
  @DF-RHF Final Energy:  -388.42612812563164
    Total Energy =                       -388.4261281256316352
  Basis Set: CC-PVTZ
  Basis Set:
  Basis Set: CC-PVTZ
  Basis Set:
  @DF-RHF Final Energy:  -388.42614929409945
    Total Energy =                       -388.4261492940996732
  Basis Set: CC-PVTZ
  Basis Set:
  Basis Set: CC-PVTZ
  Basis Set:
  @DF-RHF Final Energy:  -388.42615060027464
    Total Energy =                       -388.4261506002746955
  Basis Set: CC-PVTZ
  Basis Set:
  Charge       = 0
  Multiplicity = 1
  Basis Set: CC-PVTZ
  Basis Set:

    Orbital Energies (a.u.)
    -----------------------

    Doubly Occupied:

       1A    -20.545606     2A    -11.265200     3A    -11.217045
       4A    -11.214765     5A    -11.213853     6A    -11.213412
       7A    -11.213080     8A    -11.211617     9A    -11.207075
      10A     -1.363450    11A     -1.095851    12A     -1.062458
      13A     -1.012303    14A     -0.949385    15A     -0.888112
      16A     -0.820911    17A     -0.799473    18A     -0.781020
      19A     -0.696782    20A     -0.646809    21A     -0.646143
      22A     -0.614945    23A     -0.601072    24A     -0.584004
      25A     -0.580636    26A     -0.553672    27A     -0.544815
      28A     -0.528488    29A     -0.506275    30A     -0.494235
      31A     -0.485748    32A     -0.476785    33A     -0.469037
      34A     -0.459884    35A     -0.452098    36A     -0.441842
      37A     -0.426257

  @DF-RHF Final Energy:  -388.42615069905270

   => Energetics <=

    Nuclear Repulsion Energy =            461.1232183322997003
    One-Electron Energy =               -1440.5304337978036529
    Two-Electron Energy =                 590.9810647664505723
    DFT Exchange-Correlation Energy =       0.0000000000000000
    Empirical Dispersion Energy =           0.0000000000000000
    PCM Polarization Energy =               0.0000000000000000
    EFP Energy =                            0.0000000000000000
    Total Energy =                       -388.4261506990533235
    Molecular point group: c1
  Basis Set: CC-PVTZ
  Basis Set:

  -Total Gradient:
     Atom            X                  Y                   Z
    ------   -----------------  -----------------  -----------------
       1       -0.000026476120     0.000002680096     0.000008764724
       2        0.000007157205     0.000032223031    -0.000004946285
       3        0.000006208616    -0.000010634132    -0.000015378657
       4        0.000007224804    -0.000005250049     0.000010966772
       5        0.000018147600     0.000000283555    -0.000001790637
       6       -0.000002956212    -0.000016469917     0.000009412048
       7       -0.000009329538    -0.000001431022    -0.000009782621
       8        0.000007744997     0.000012053116    -0.000008756596
       9        0.000012682557    -0.000017361854    -0.000002744406
      10       -0.000077860134     0.000446579841     0.002463729996
      11       -0.000012234190     0.000018026397     0.000001210834
      12       -0.000007819955    -0.000012127121     0.000009502303
      13       -0.000520022591    -0.001076043812    -0.003540172869
      14        0.000002955074     0.000009609787    -0.000006486308
      15        0.000001415707    -0.000011992228    -0.000003829853
      16        0.003278338112     0.002638780944     0.001377394068
      17        0.000000325265    -0.000002715749    -0.000010813083
      18       -0.000003952019    -0.000005022158     0.000010195632
      19        0.000003859960     0.000003162679     0.000028225939
      20       -0.002684024074    -0.001999086275    -0.000323589645
      21        0.000006692526     0.000001291302     0.000011362182
      22        0.000000916734    -0.000007587781    -0.000011852247
      23       -0.000001857009    -0.000004239660    -0.000001648941
      24       -0.000006449561    -0.000001043864     0.000012517073
      25       -0.000000107234     0.000005473495    -0.000005676472
      26       -0.000004153487    -0.000004387515    -0.000000225466
      27        0.000003572969     0.000005228897     0.000004412519

  **** Optimization is complete! (in 8 steps) ****
    Final optimized geometry and variables:
    Molecular point group: c1

    Geometry (in Angstrom), charge = 0, multiplicity = 1:

    H            1.748371538848     1.803153673786     2.075899913064
    O            2.640947899875     1.840021835955     1.786812013448
    C            3.136056588045     0.544514577239     1.572478352733
    C            2.576915887440    -0.119058778086     0.322899838996
    H            4.208393423894     0.649715992150     1.477421696889
    H            2.949724669530    -0.081529631199     2.442931360576
    C            1.074759288393    -0.388415388213     0.374932932983
    H            2.806542960558     0.507732662502    -0.533440878382
    H            3.106254743514    -1.057851407345     0.178063051176
    C            0.559013011169    -1.113398354071    -0.867255034569
    H            0.545556082190     0.551172300068     0.495039718609
    H            0.847191570708    -0.988935987357     1.253711146838
    C           -0.945023735755    -1.398413350142    -0.857195673430
    H            0.812887372776    -0.535385186569    -1.752898709241
    H            1.092740495595    -2.055066342165    -0.959625786119
    C           -1.832172756095    -0.174068435073    -1.102874065376
    H           -1.172516767637    -2.149803649667    -1.606590823196
    H           -1.204127733280    -1.843878963687     0.100675404613
    C           -3.266936805972    -0.370252319262    -0.616116515273
    H           -1.863456041444     0.030266762021    -2.170081659178
    H           -1.414293585751     0.705863623949    -0.625572593583
    C           -4.175972513269     0.812287250230    -0.933182014840
    H           -3.677713710478    -1.270782973046    -1.065271978036
    H           -3.260683906214    -0.542601970439     0.456729457254
    H           -4.236649187353     0.984059232678    -2.002710515107
    H           -5.182660441332     0.643625822056    -0.568192699138
    H           -3.806703541224     1.723810895452    -0.474591150916

  Mulliken Charges: (a.u.)
   Center  Symbol    Alpha    Beta     Spin     Total
       1     H     0.39222  0.39222  0.00000  0.21556
       2     O     4.20558  4.20558  0.00000 -0.41116
       3     C     2.98009  2.98009  0.00000  0.03982
       4     C     3.08938  3.08938  0.00000 -0.17877
       5     H     0.44860  0.44860  0.00000  0.10281
       6     H     0.46938  0.46938  0.00000  0.06125
       7     C     3.10141  3.10141  0.00000 -0.20282
       8     H     0.45044  0.45044  0.00000  0.09913
       9     H     0.45511  0.45511  0.00000  0.08978
      10     C     3.09823  3.09823  0.00000 -0.19646
      11     H     0.45662  0.45662  0.00000  0.08677
      12     H     0.45392  0.45392  0.00000  0.09216
      13     C     3.09978  3.09978  0.00000 -0.19955
      14     H     0.45225  0.45225  0.00000  0.09550
      15     H     0.44765  0.44765  0.00000  0.10470
      16     C     3.08931  3.08931  0.00000 -0.17863
      17     H     0.44591  0.44591  0.00000  0.10819
      18     H     0.45623  0.45623  0.00000  0.08755
      19     C     3.08423  3.08423  0.00000 -0.16846
      20     H     0.45219  0.45219  0.00000  0.09562
      21     H     0.45353  0.45353  0.00000  0.09295
      22     C     3.14956  3.14956  0.00000 -0.29913
      23     H     0.45422  0.45422  0.00000  0.09156
      24     H     0.45541  0.45541  0.00000  0.08919
      25     H     0.45488  0.45488  0.00000  0.09023
      26     H     0.44844  0.44844  0.00000  0.10312
      27     H     0.45545  0.45545  0.00000  0.08911

   Total alpha = 37.00000, Total beta = 37.00000, Total charge = -0.00000

*** Psi4 exiting successfully. Buy a developer a beer!
