  ==> Input File <==

--------------------------------------------------------------------------
set {
	reference rhf
	basis 6-31G*
}

set_num_threads( 4 )
memory 2 gb

molecule MOL {
0 1

O	 0.749854	 1.307668	 -0.000040
C	 0.576249	 0.131685	 -0.000108
C	 -0.766779	 -0.556801	 -0.000461
O	 1.568443	 -0.749345	 -0.000005
C	 -1.945214	 0.412366	 0.000161
H	 -0.796911	 -1.211249	 -0.867467
H	 -0.796854	 -1.212390	 0.865687
C	 -3.287791	 -0.317055	 0.000105
H	 -1.876087	 1.060580	 -0.866812
H	 -1.875822	 1.059691	 0.867761
H	 -3.394745	 -0.949193	 -0.877058
H	 -4.111778	 0.388953	 0.000015
H	 -3.394954	 -0.949187	 0.877259
C	 2.587675	 -0.569541	 -0.966465
H	 2.178128	 -0.622692	 -1.964958
H	 3.290222	 -1.372611	 -0.807178
H	 3.074221	 0.385876	 -0.832447

	symmetry c1
}
set optking {
	frozen_dihedral = ("
		14 4 2 1
	")
}

ee = optimize('scf')
oeprop('DIPOLE', 'QUADRUPOLE', 'MULLIKEN_CHARGES')
f=open( 'psi4out.xyz', 'w' )
f.write( "17  " )
f.write( str(ee) + "\n" )
f.write( MOL.save_string_xyz() )
f.close()
--------------------------------------------------------------------------

    Molecular point group: c1
  Charge       = 0
  Multiplicity = 1
  Basis Set: 6-31G*
  Basis Set:
  @DF-RHF Final Energy:  -344.89493590263851
    Total Energy =                       -344.8949359026384514
    Molecular point group: c1
  Basis Set: 6-31G*
  Basis Set:
  Basis Set: 6-31G*
  Basis Set:
  @DF-RHF Final Energy:  -344.89252875938337
    Total Energy =                       -344.8925287593833104
  Basis Set: 6-31G*
  Basis Set:
  Basis Set: 6-31G*
  Basis Set:
  @DF-RHF Final Energy:  -344.89572870949888
    Total Energy =                       -344.8957287094988828
  Basis Set: 6-31G*
  Basis Set:
  Basis Set: 6-31G*
  Basis Set:
  @DF-RHF Final Energy:  -344.89580154533161
    Total Energy =                       -344.8958015453318922
  Basis Set: 6-31G*
  Basis Set:
  Basis Set: 6-31G*
  Basis Set:
  @DF-RHF Final Energy:  -344.89580870805929
    Total Energy =                       -344.8958087080592350
  Basis Set: 6-31G*
  Basis Set:
  Charge       = 0
  Multiplicity = 1
  Basis Set: 6-31G*
  Basis Set:

    Orbital Energies (a.u.)
    -----------------------

    Doubly Occupied:

       1A    -20.593069     2A    -20.552112     3A    -11.374473
       4A    -11.285885     5A    -11.237146     6A    -11.222678
       7A    -11.215295     8A     -1.462648     9A     -1.365241
      10A     -1.080510    11A     -0.997526    12A     -0.943706
      13A     -0.829961    14A     -0.765474    15A     -0.699530
      16A     -0.678420    17A     -0.672807    18A     -0.635311
      19A     -0.606530    20A     -0.576987    21A     -0.566668
      22A     -0.532108    23A     -0.520760    24A     -0.497494
      25A     -0.488817    26A     -0.479487    27A     -0.453804
      28A     -0.435531

  @DF-RHF Final Energy:  -344.89580964293111

   => Energetics <=

    Nuclear Repulsion Energy =            311.8683422468159279
    One-Electron Energy =               -1087.9883484262020374
    Two-Electron Energy =                 431.2241965364551106
    DFT Exchange-Correlation Energy =       0.0000000000000000
    Empirical Dispersion Energy =           0.0000000000000000
    PCM Polarization Energy =               0.0000000000000000
    EFP Energy =                            0.0000000000000000
    Total Energy =                       -344.8958096429309990
    Molecular point group: c1
  Basis Set: 6-31G*
  Basis Set:

  -Total Gradient:
     Atom            X                  Y                   Z
    ------   -----------------  -----------------  -----------------
       1       -0.000713314937     0.000047131484     0.009674209964
       2       -0.000710305627    -0.002155455225    -0.016788144580
       3        0.000033599272     0.000022759638    -0.000046686080
       4        0.004905429001     0.006513747419     0.012238255919
       5       -0.000004204166    -0.000014361728     0.000035165433
       6        0.000008259777    -0.000009571627     0.000019638644
       7       -0.000000559958     0.000013684316     0.000022359481
       8       -0.000005295926     0.000003632872    -0.000012744412
       9       -0.000003810568     0.000002276334    -0.000004487573
      10        0.000005542131    -0.000000445196     0.000000472240
      11        0.000000218134    -0.000003776655    -0.000000832442
      12        0.000001906817    -0.000001059543    -0.000002960117
      13        0.000001007699     0.000004271158     0.000003532587
      14       -0.003529580240    -0.004400265787    -0.005137153057
      15        0.000012879468    -0.000010535708    -0.000007640819
      16       -0.000007314481     0.000000175064     0.000006743773
      17        0.000005543596    -0.000012206817     0.000000271039

  **** Optimization is complete! (in 6 steps) ****
    Final optimized geometry and variables:
    Molecular point group: c1

    Geometry (in Angstrom), charge = 0, multiplicity = 1:

    O            0.781762915621     1.357450919085     0.073526369765
    C            0.608759224311     0.185012920571     0.072148752750
    C           -0.735847339786    -0.496393042519     0.105749820495
    O            1.614764874832    -0.700134277950     0.148020684852
    C           -1.913590088148     0.469060192006     0.191819529900
    H           -0.802975117362    -1.120614751317    -0.782857353298
    H           -0.725755704427    -1.185883977846     0.945598908480
    C           -3.255351702341    -0.261368366217     0.218725045939
    H           -1.880210857475     1.151139634882    -0.650983109902
    H           -1.808108572773     1.081823509373     1.080848817393
    H           -3.398866623662    -0.858816999375    -0.677402582623
    H           -4.078377569462     0.443000846848     0.280369253773
    H           -3.326176292362    -0.927461244505     1.074071883633
    C            2.697699290276    -0.527362182280    -0.746610082426
    H            2.366225806451    -0.677871520572    -1.767425654326
    H            3.426545085353    -1.280496590621    -0.490693238600
    H            3.130942198460     0.456898932914    -0.644372875322

  Mulliken Charges: (a.u.)
   Center  Symbol    Alpha    Beta     Spin     Total
       1     O     4.26953  4.26953  0.00000 -0.53906
       2     C     2.60664  2.60664  0.00000  0.78672
       3     C     3.20910  3.20910  0.00000 -0.41821
       4     O     4.31355  4.31355  0.00000 -0.62710
       5     C     3.15247  3.15247  0.00000 -0.30495
       6     H     0.40521  0.40521  0.00000  0.18959
       7     H     0.39852  0.39852  0.00000  0.20295
       8     C     3.24264  3.24264  0.00000 -0.48527
       9     H     0.41114  0.41114  0.00000  0.17772
      10     H     0.41055  0.41055  0.00000  0.17891
      11     H     0.42180  0.42180  0.00000  0.15641
      12     H     0.41498  0.41498  0.00000  0.17005
      13     H     0.42088  0.42088  0.00000  0.15825
      14     C     3.09523  3.09523  0.00000 -0.19047
      15     H     0.41924  0.41924  0.00000  0.16152
      16     H     0.40584  0.40584  0.00000  0.18832
      17     H     0.40269  0.40269  0.00000  0.19463

   Total alpha = 28.00000, Total beta = 28.00000, Total charge =  0.00000
