  ==> Input File <==

--------------------------------------------------------------------------
set {
	reference rhf
	basis 6-31G*
}

set_num_threads( 1 )
memory 2 gb

molecule MOL {
0 1

H	 2.274369	 -1.100584	 -0.745087
N	 2.434251	 -0.367735	 -0.081097
C	 1.267428	 0.496480	 0.024474
H	 3.227135	 0.151213	 -0.408119
C	 -0.016086	 -0.325158	 -0.029487
H	 1.288818	 1.183521	 -0.816092
H	 1.267576	 1.109062	 0.929528
C	 -1.282277	 0.529072	 0.046735
H	 -0.012495	 -0.908639	 -0.945788
H	 -0.015903	 -1.041248	 0.791956
C	 -2.563920	 -0.301775	 -0.006060
H	 -1.284084	 1.244622	 -0.773004
H	 -1.271387	 1.115393	 0.963286
H	 -2.621848	 -0.873522	 -0.927727
H	 -3.445135	 0.329952	 0.047812
H	 -2.609542	 -1.004582	 0.821105

	symmetry c1
}
set optking {
	frozen_dihedral = ("
		6 3 5 9,
		12 8 5 9
	")
}

ee = energy('scf')
oeprop('DIPOLE', 'QUADRUPOLE', 'MULLIKEN_CHARGES')
f=open( 'psi4out.xyz', 'w' )
f.write( "16  " )
f.write( str(ee) + "\n" )
f.write( MOL.save_string_xyz() )
f.close()
--------------------------------------------------------------------------

    Molecular point group: c1

    Geometry (in Angstrom), charge = 0, multiplicity = 1:

       Center              X                  Y                   Z               Mass
    ------------   -----------------  -----------------  -----------------  -----------------
           H          2.278183776026    -1.098405854299    -0.720759113994     1.007825032070
           N          2.438065776026    -0.365556854299    -0.056769113994    14.003074004780
           C          1.271242776026     0.498658145701     0.048801886006    12.000000000000
           H          3.230949776026     0.153391145701    -0.383791113994     1.007825032070
           C         -0.012271223974    -0.322979854299    -0.005159113994    12.000000000000
           H          1.292632776026     1.185699145701    -0.791764113994     1.007825032070
           H          1.271390776026     1.111240145701     0.953855886006     1.007825032070
           C         -1.278462223974     0.531250145701     0.071062886006    12.000000000000
           H         -0.008680223974    -0.906460854299    -0.921460113994     1.007825032070
           H         -0.012088223974    -1.039069854299     0.816283886006     1.007825032070
           C         -2.560105223974    -0.299596854299     0.018267886006    12.000000000000
           H         -1.280269223974     1.246800145701    -0.748676113994     1.007825032070
           H         -1.267572223974     1.117571145701     0.987613886006     1.007825032070
           H         -2.618033223974    -0.871343854299    -0.903399113994     1.007825032070
           H         -3.441320223974     0.332130145701     0.072139886006     1.007825032070
           H         -2.605727223974    -1.002403854299     0.845432886006     1.007825032070

  Charge       = 0
  Multiplicity = 1
  Basis Set: 6-31G*
  Basis Set:

    Orbital Energies (a.u.)
    -----------------------

    Doubly Occupied:

       1A    -15.529911     2A    -11.240029     3A    -11.217730
       4A    -11.214567     5A    -11.209906     6A     -1.176709
       7A     -1.061622     8A     -0.959763     9A     -0.845055
      10A     -0.796648    11A     -0.653989    12A     -0.646509
      13A     -0.599640    14A     -0.580048    15A     -0.571852
      16A     -0.523071    17A     -0.509308    18A     -0.473525
      19A     -0.467992    20A     -0.460959    21A     -0.376279

  @DF-RHF Final Energy:  -212.31352633485238

   => Energetics <=

    Nuclear Repulsion Energy =            186.4634745643189149
    One-Electron Energy =                -655.3238925053132107
    Two-Electron Energy =                 256.5468916061423670
    DFT Exchange-Correlation Energy =       0.0000000000000000
    Empirical Dispersion Energy =           0.0000000000000000
    PCM Polarization Energy =               0.0000000000000000
    EFP Energy =                            0.0000000000000000
    Total Energy =                       -212.3135263348519288

  Mulliken Charges: (a.u.)
   Center  Symbol    Alpha    Beta     Spin     Total
       1     H     0.33423  0.33423  0.00000  0.33153
       2     N     3.92479  3.92479  0.00000 -0.84959
       3     C     3.05173  3.05173  0.00000 -0.10346
       4     H     0.33359  0.33359  0.00000  0.33282
       5     C     3.15943  3.15943  0.00000 -0.31886
       6     H     0.43480  0.43480  0.00000  0.13040
       7     H     0.42050  0.42050  0.00000  0.15901
       8     C     3.15481  3.15481  0.00000 -0.30963
       9     H     0.42730  0.42730  0.00000  0.14541
      10     H     0.41443  0.41443  0.00000  0.17113
      11     C     3.23911  3.23911  0.00000 -0.47821
      12     H     0.42284  0.42284  0.00000  0.15433
      13     H     0.42119  0.42119  0.00000  0.15762
      14     H     0.42180  0.42180  0.00000  0.15640
      15     H     0.41894  0.41894  0.00000  0.16212
      16     H     0.42052  0.42052  0.00000  0.15897

   Total alpha = 21.00000, Total beta = 21.00000, Total charge =  0.00000
