  ==> Input File <==

--------------------------------------------------------------------------
set {
	reference rhf
	basis 6-31G*
}

set_num_threads( 4 )
memory 2 gb

molecule MOL {
0 1

O	 0.304066	 0.904778	 1.461156
C	 0.315328	 -0.067364	 0.776643
C	 1.461364	 -1.044687	 0.668455
O	 -0.698257	 -0.426125	 0.001050
C	 2.650448	 -0.670447	 1.544235
H	 1.743588	 -1.099956	 -0.378704
H	 1.075907	 -2.027234	 0.923971
H	 3.041904	 0.302970	 1.274818
H	 3.443686	 -1.401596	 1.430163
H	 2.368279	 -0.632995	 2.589368
C	 -1.853104	 0.406779	 0.000512
C	 -3.066105	 -0.499277	 -0.000959
H	 -1.828410	 1.043074	 -0.873618
H	 -1.829857	 1.042383	 0.875188
H	 -3.071820	 -1.133106	 -0.880383
H	 -3.972708	 0.097145	 -0.001528
H	 -3.073405	 -1.133813	 0.877999

	symmetry c1
}
set optking {
	frozen_dihedral = ("
		2 4 11 13
	")
}

ee = optimize('scf')
oeprop('DIPOLE', 'QUADRUPOLE', 'MULLIKEN_CHARGES')
f=open( 'psi4out.xyz', 'w' )
f.write( "17  " )
f.write( str(ee) + "\n" )
f.write( MOL.save_string_xyz() )
f.close()
--------------------------------------------------------------------------

    Molecular point group: c1
  Charge       = 0
  Multiplicity = 1
  Basis Set: 6-31G*
  Basis Set:
  @DF-RHF Final Energy:  -344.90973845642668
    Total Energy =                       -344.9097384564269078
    Molecular point group: c1
  Basis Set: 6-31G*
  Basis Set:
  Basis Set: 6-31G*
  Basis Set:
  @DF-RHF Final Energy:  -344.90994446159863
    Total Energy =                       -344.9099444615985135
  Basis Set: 6-31G*
  Basis Set:
  Basis Set: 6-31G*
  Basis Set:
  @DF-RHF Final Energy:  -344.91026440899020
    Total Energy =                       -344.9102644089899741
  Basis Set: 6-31G*
  Basis Set:
  Basis Set: 6-31G*
  Basis Set:
  @DF-RHF Final Energy:  -344.90960114545885
    Total Energy =                       -344.9096011454587369
  Basis Set: 6-31G*
  Basis Set:
  Basis Set: 6-31G*
  Basis Set:
  @DF-RHF Final Energy:  -344.91030401847325
    Total Energy =                       -344.9103040184731412
  Basis Set: 6-31G*
  Basis Set:
  Charge       = 0
  Multiplicity = 1
  Basis Set: 6-31G*
  Basis Set:

    Orbital Energies (a.u.)
    -----------------------

    Doubly Occupied:

       1A    -20.600268     2A    -20.543896     3A    -11.372538
       4A    -11.283746     5A    -11.237067     6A    -11.222132
       7A    -11.215369     8A     -1.465458     9A     -1.362458
      10A     -1.069702    11A     -1.031226    12A     -0.912060
      13A     -0.848800    14A     -0.770255    15A     -0.700029
      16A     -0.683996    17A     -0.662054    18A     -0.628505
      19A     -0.590020    20A     -0.569584    21A     -0.556669
      22A     -0.527964    23A     -0.519986    24A     -0.514441
      25A     -0.499404    26A     -0.493526    27A     -0.449376
      28A     -0.435819

  @DF-RHF Final Energy:  -344.91030726691906

   => Energetics <=

    Nuclear Repulsion Energy =            314.8429072626931884
    One-Electron Energy =               -1093.9737309458575965
    Two-Electron Energy =                 434.2205164162451183
    DFT Exchange-Correlation Energy =       0.0000000000000000
    Empirical Dispersion Energy =           0.0000000000000000
    PCM Polarization Energy =               0.0000000000000000
    EFP Energy =                            0.0000000000000000
    Total Energy =                       -344.9103072669192898
    Molecular point group: c1
  Basis Set: 6-31G*
  Basis Set:

  -Total Gradient:
     Atom            X                  Y                   Z
    ------   -----------------  -----------------  -----------------
       1        0.000071636012    -0.000032217148     0.000013463272
       2       -0.000433871705    -0.000497667222     0.000818470248
       3       -0.000054591702     0.000000686481    -0.000038577754
       4        0.000477675387     0.000502766728    -0.001338614955
       5       -0.000014056938     0.000028312502     0.000018311794
       6       -0.000018919814     0.000016206548    -0.000001444224
       7       -0.000019093158     0.000009479596     0.000003999470
       8        0.000004999979     0.000003787314     0.000000997677
       9       -0.000009393943     0.000001001965    -0.000005300546
      10        0.000006428614     0.000001795076     0.000009118035
      11        0.000567561563     0.000714665563     0.001074842935
      12        0.000016558368     0.000031715965     0.000011877025
      13       -0.000584438176    -0.000820967977    -0.000585721325
      14       -0.000031543825     0.000024336654     0.000016030840
      15        0.000016814727     0.000013068975     0.000001070121
      16       -0.000004997989    -0.000003962424    -0.000001143238
      17        0.000009232601     0.000006991403     0.000002620624

  **** Optimization is complete! (in 6 steps) ****
    Final optimized geometry and variables:
    Molecular point group: c1

    Geometry (in Angstrom), charge = 0, multiplicity = 1:

    O            0.486212348378     1.119555623235     0.827098778977
    C            0.464270313833     0.144865393253     0.146958698360
    C            1.589576050712    -0.855568761343     0.029572881033
    O           -0.561957832191    -0.207579387114    -0.616613360533
    C            2.797371259300    -0.500742191778     0.887653171484
    H            1.856609093699    -0.920949822212    -1.020953956861
    H            1.188102878103    -1.829062097337     0.294573770642
    H            3.204502884207     0.463287261492     0.608016596570
    H            3.574258480358    -1.248199100878     0.766774456706
    H            2.530136208609    -0.452594671639     1.936285487755
    C           -1.739792674717     0.594948772243    -0.623202772934
    C           -2.940531967521    -0.329219102261    -0.663289360880
    H           -1.705513496765     1.218526530715    -1.507852976667
    H           -1.748688736587     1.228816295247     0.248280425528
    H           -2.899456014824    -0.977802694665    -1.530898966503
    H           -3.854915533270     0.253536813823    -0.713650994792
    H           -2.977693423514    -0.948806102319     0.225845745159

  Mulliken Charges: (a.u.)
   Center  Symbol    Alpha    Beta     Spin     Total
       1     O     4.28569  4.28569  0.00000 -0.57138
       2     C     2.60598  2.60598  0.00000  0.78804
       3     C     3.20559  3.20559  0.00000 -0.41118
       4     O     4.31420  4.31420  0.00000 -0.62840
       5     C     3.23875  3.23875  0.00000 -0.47749
       6     H     0.40059  0.40059  0.00000  0.19882
       7     H     0.40107  0.40107  0.00000  0.19786
       8     H     0.40993  0.40993  0.00000  0.18013
       9     H     0.41838  0.41838  0.00000  0.16324
      10     H     0.41019  0.41019  0.00000  0.17961
      11     C     3.00902  3.00902  0.00000 -0.01804
      12     C     3.24697  3.24697  0.00000 -0.49395
      13     H     0.41502  0.41502  0.00000  0.16996
      14     H     0.39628  0.39628  0.00000  0.20744
      15     H     0.41176  0.41176  0.00000  0.17649
      16     H     0.41716  0.41716  0.00000  0.16569
      17     H     0.41341  0.41341  0.00000  0.17317

   Total alpha = 28.00000, Total beta = 28.00000, Total charge =  0.00000
