                              Psi4 1.0.54 Driver

  ==> Input File <==

--------------------------------------------------------------------------
set {
	reference rhf
	basis cc-pvtz
}

set_num_threads( 4 )
memory 2 gb

molecule MOL {
0 1

O	 1.164704	 1.386407	 -0.291176
C	 0.973604	 0.360173	 -0.849195
C	 -0.315188	 -0.420877	 -0.828222
O	 1.892138	 -0.247755	 -1.582062
C	 -1.413045	 0.229353	 0.001137
H	 -0.627165	 -0.552590	 -1.859145
H	 -0.081837	 -1.414989	 -0.461139
C	 -2.702562	 -0.586401	 0.000228
H	 -1.608170	 1.225161	 -0.380742
H	 -1.062678	 0.361381	 1.018661
C	 -3.953810	 0.284959	 -0.000782
H	 -2.717793	 -1.238567	 -0.869075
H	 -2.719108	 -1.238472	 0.869576
H	 -3.983727	 0.924403	 -0.876454
H	 -4.852989	 -0.320147	 -0.001515
H	 -3.985140	 0.924399	 0.874841
C	 3.155103	 0.377366	 -1.689123
H	 3.059870	 1.355080	 -2.137714
H	 3.752177	 -0.263652	 -2.317189
H	 3.613946	 0.478994	 -0.716828

	symmetry c1
}
set optking {
	frozen_dihedral = ("
		9 5 8 12
	")
}

ee,wfn = optimize('scf', return_wfn=True)
oeprop( wfn, 'DIPOLE', 'QUADRUPOLE', 'MULLIKEN_CHARGES')
f=open( 'psi4out.xyz', 'w' )
f.write( "20  " )
f.write( str(ee) + "\n" )
f.write( MOL.save_string_xyz() )
f.close()
--------------------------------------------------------------------------

    Molecular point group: c1
  Charge       = 0
  Multiplicity = 1
  Basis Set: CC-PVTZ
  Basis Set:
  @DF-RHF Final Energy:  -384.07930248685204
    Total Energy =                       -384.0793024868523844
    Molecular point group: c1
  Basis Set: CC-PVTZ
  Basis Set:
  Basis Set: CC-PVTZ
  Basis Set:
  @DF-RHF Final Energy:  -384.07960261726078
    Total Energy =                       -384.0796026172607753
  Basis Set: CC-PVTZ
  Basis Set:
  Basis Set: CC-PVTZ
  Basis Set:
  @DF-RHF Final Energy:  -384.07943579662447
    Total Energy =                       -384.0794357966242387
  Basis Set: CC-PVTZ
  Basis Set:
  Basis Set: CC-PVTZ
  Basis Set:
  @DF-RHF Final Energy:  -384.07969824130555
    Total Energy =                       -384.0796982413053229
  Basis Set: CC-PVTZ
  Basis Set:
  Basis Set: CC-PVTZ
  Basis Set:
  @DF-RHF Final Energy:  -384.07970061850477
    Total Energy =                       -384.0797006185049440
  Basis Set: CC-PVTZ
  Basis Set:
  Charge       = 0
  Multiplicity = 1
  Basis Set: CC-PVTZ
  Basis Set:

    Orbital Energies (a.u.)
    -----------------------

    Doubly Occupied:

       1A    -20.596494     2A    -20.534367     3A    -11.364742
       4A    -11.278617     5A    -11.234594     6A    -11.218126
       7A    -11.216943     8A    -11.209505     9A     -1.472409
      10A     -1.366008    11A     -1.088516    12A     -1.025316
      13A     -0.970175    14A     -0.886776    15A     -0.805436
      16A     -0.769830    17A     -0.700662    18A     -0.686219
      19A     -0.676323    20A     -0.640548    21A     -0.598776
      22A     -0.597346    23A     -0.579119    24A     -0.543755
      25A     -0.533926    26A     -0.524282    27A     -0.506323
      28A     -0.479635    29A     -0.474721    30A     -0.466359
      31A     -0.457888    32A     -0.439864

  @DF-RHF Final Energy:  -384.07970085371147

   => Energetics <=

    Nuclear Repulsion Energy =            381.6499093116227073
    One-Electron Energy =               -1279.5720159450627307
    Two-Electron Energy =                 513.8424057797285514
    DFT Exchange-Correlation Energy =       0.0000000000000000
    Empirical Dispersion Energy =           0.0000000000000000
    PCM Polarization Energy =               0.0000000000000000
    EFP Energy =                            0.0000000000000000
    Total Energy =                       -384.0797008537115289
    Molecular point group: c1
  Basis Set: CC-PVTZ
  Basis Set:

  -Total Gradient:
     Atom            X                  Y                   Z
    ------   -----------------  -----------------  -----------------
       1       -0.000007093452     0.000002120629    -0.000001880324
       2        0.000009050440     0.000006424464     0.000005257374
       3        0.000009256850    -0.000008055974     0.000004567160
       4        0.000002846605    -0.000009915241    -0.000005957908
       5        0.001524674400    -0.002558643492    -0.004604999936
       6       -0.000003811643     0.000007732032     0.000001005804
       7       -0.000002792537     0.000003205411    -0.000001966732
       8       -0.002795555459     0.004278323627    -0.001903093814
       9       -0.000813119512     0.001444210537     0.004146120573
      10        0.000006961246    -0.000005216391     0.000005651645
      11       -0.000009139110     0.000002695481     0.000006224947
      12        0.002097323192    -0.003153219607     0.002338151366
      13       -0.000007818852    -0.000003395965     0.000008570299
      14        0.000004616548    -0.000002176476    -0.000008076835
      15       -0.000011366573    -0.000007888623     0.000003018447
      16        0.000005025800     0.000003090644     0.000003318534
      17       -0.000003542303     0.000002658946     0.000004443725
      18       -0.000002550261     0.000000315768     0.000000010120
      19       -0.000001941985    -0.000002397707    -0.000001229706
      20       -0.000001023393     0.000000131936     0.000000865257

  **** Optimization is complete! (in 6 steps) ****
    Final optimized geometry and variables:
    Molecular point group: c1

    Geometry (in Angstrom), charge = 0, multiplicity = 1:

    O            1.284914982026     1.203523204519     0.371460104512
    C            1.096801343241     0.177680215525    -0.188222640973
    C           -0.199089846268    -0.592004789789    -0.193823554554
    O            2.025098588539    -0.439935689397    -0.900419283450
    C           -1.309912158188     0.069241307000     0.606643336433
    H           -0.488819477795    -0.726258395790    -1.230687461648
    H            0.016177024525    -1.586606781905     0.183603419783
    C           -2.600755892871    -0.762311717719     0.641848578694
    H           -1.511903981678     1.061875693641     0.221149948175
    H           -0.961591383845     0.236508394476     1.619283234978
    C           -3.865480015483     0.083858334230     0.716145839078
    H           -2.641258778148    -1.427156813816    -0.216385881560
    H           -2.567297115907    -1.425164733098     1.501956825160
    H           -3.968860267167     0.709323242325    -0.163993494979
    H           -4.750682564259    -0.537313632562     0.789589194119
    H           -3.845645433290     0.736479327748     1.582608029668
    C            3.295241743714     0.174198325731    -0.982792819942
    H            3.217591445918     1.151555989518    -1.435534481185
    H            3.899712902688    -0.473407519387    -1.596872629157
    H            3.734747178193     0.274403172588    -0.001451504206

  Mulliken Charges: (a.u.)
   Center  Symbol    Alpha    Beta     Spin     Total
       1     O     4.19659  4.19659  0.00000 -0.39318
       2     C     2.80725  2.80725  0.00000  0.38549
       3     C     3.09991  3.09991  0.00000 -0.19982
       4     O     4.14677  4.14677  0.00000 -0.29354
       5     C     3.08521  3.08521  0.00000 -0.17042
       6     H     0.43986  0.43986  0.00000  0.12028
       7     H     0.43907  0.43907  0.00000  0.12185
       8     C     3.08780  3.08780  0.00000 -0.17559
       9     H     0.44716  0.44716  0.00000  0.10569
      10     H     0.44552  0.44552  0.00000  0.10896
      11     C     3.14741  3.14741  0.00000 -0.29482
      12     H     0.45654  0.45654  0.00000  0.08692
      13     H     0.45270  0.45270  0.00000  0.09460
      14     H     0.45490  0.45490  0.00000  0.09019
      15     H     0.44916  0.44916  0.00000  0.10169
      16     H     0.45252  0.45252  0.00000  0.09496
      17     C     3.03765  3.03765  0.00000 -0.07530
      18     H     0.45434  0.45434  0.00000  0.09132
      19     H     0.44531  0.44531  0.00000  0.10937
      20     H     0.45432  0.45432  0.00000  0.09135

   Total alpha = 32.00000, Total beta = 32.00000, Total charge = -0.00000

*** Psi4 exiting successfully. Buy a developer a beer!
