  ==> Input File <==

--------------------------------------------------------------------------
set {
	reference rhf
	basis 6-31G*
}

set_num_threads( 1 )
memory 2 gb

molecule MOL {
0 1

H	 2.315449	 -0.325773	 1.346397
C	 1.951159	 -0.223429	 0.317018
C	 0.692068	 0.589600	 0.160137
O	 2.541279	 -0.735230	 -0.578497
C	 -0.558097	 -0.297372	 0.091132
H	 0.791645	 1.202255	 -0.728243
H	 0.616171	 1.253469	 1.020572
C	 -1.850991	 0.512573	 -0.019058
H	 -0.476753	 -0.965681	 -0.762987
H	 -0.604799	 -0.930658	 0.975228
C	 -3.096943	 -0.368295	 -0.099594
H	 -1.800724	 1.150330	 -0.898172
H	 -1.931651	 1.177355	 0.838044
H	 -3.060452	 -1.020287	 -0.967456
H	 -3.996858	 0.233488	 -0.175704
H	 -3.191959	 -0.995686	 0.782074

	symmetry c1
}
set optking {
	frozen_dihedral = ("
		9 5 8 12,
		6 3 5 9
	")
}

ee = energy('scf')
oeprop('DIPOLE', 'QUADRUPOLE', 'MULLIKEN_CHARGES')
f=open( 'psi4out.xyz', 'w' )
f.write( "16  " )
f.write( str(ee) + "\n" )
f.write( MOL.save_string_xyz() )
f.close()
--------------------------------------------------------------------------

    Molecular point group: c1

    Geometry (in Angstrom), charge = 0, multiplicity = 1:

       Center              X                  Y                   Z               Mass
    ------------   -----------------  -----------------  -----------------  -----------------
           H          2.375104918286    -0.227971195539     1.374471362797     1.007825032070
           C          2.010814918286    -0.125627195539     0.345092362797    12.000000000000
           C          0.751723918286     0.687401804461     0.188211362797    12.000000000000
           O          2.600934918286    -0.637428195539    -0.550422637203    15.994914619560
           C         -0.498441081714    -0.199570195539     0.119206362797    12.000000000000
           H          0.851300918286     1.300056804461    -0.700168637203     1.007825032070
           H          0.675826918286     1.351270804461     1.048646362797     1.007825032070
           C         -1.791335081714     0.610374804461     0.009016362797    12.000000000000
           H         -0.417097081714    -0.867879195539    -0.734912637203     1.007825032070
           H         -0.545143081714    -0.832856195539     1.003302362797     1.007825032070
           C         -3.037287081714    -0.270493195539    -0.071519637203    12.000000000000
           H         -1.741068081714     1.248131804461    -0.870097637203     1.007825032070
           H         -1.871995081714     1.275156804461     0.866118362797     1.007825032070
           H         -3.000796081714    -0.922485195539    -0.939381637203     1.007825032070
           H         -3.937202081714     0.331289804461    -0.147629637203     1.007825032070
           H         -3.132303081714    -0.897884195539     0.810148362797     1.007825032070

  Charge       = 0
  Multiplicity = 1
  Basis Set: 6-31G*
  Basis Set:

    Orbital Energies (a.u.)
    -----------------------

    Doubly Occupied:

       1A    -20.562670     2A    -11.326550     3A    -11.235301
       4A    -11.234714     5A    -11.227559     6A    -11.216995
       7A     -1.402594     8A     -1.094209     9A     -1.017631
      10A     -0.907348    11A     -0.813179    12A     -0.785737
      13A     -0.681269    14A     -0.646289    15A     -0.628362
      16A     -0.603014    17A     -0.577403    18A     -0.551900
      19A     -0.525152    20A     -0.510830    21A     -0.485768
      22A     -0.479000    23A     -0.476786    24A     -0.408033

  @DF-RHF Final Energy:  -270.01847955389024

   => Energetics <=

    Nuclear Repulsion Energy =            230.0019349730362705
    One-Electron Energy =                -821.2443778610395384
    Two-Electron Energy =                 321.2239633341128524
    DFT Exchange-Correlation Energy =       0.0000000000000000
    Empirical Dispersion Energy =           0.0000000000000000
    PCM Polarization Energy =               0.0000000000000000
    EFP Energy =                            0.0000000000000000
    Total Energy =                       -270.0184795538904723

  Mulliken Charges: (a.u.)
   Center  Symbol    Alpha    Beta     Spin     Total
       1     H     0.43036  0.43036  0.00000  0.13928
       2     C     2.83920  2.83920  0.00000  0.32159
       3     C     3.20056  3.20056  0.00000 -0.40113
       4     O     4.23609  4.23609  0.00000 -0.47219
       5     C     3.16060  3.16060  0.00000 -0.32119
       6     H     0.39997  0.39997  0.00000  0.20006
       7     H     0.41719  0.41719  0.00000  0.16561
       8     C     3.15220  3.15220  0.00000 -0.30440
       9     H     0.40782  0.40782  0.00000  0.18435
      10     H     0.41878  0.41878  0.00000  0.16245
      11     C     3.24061  3.24061  0.00000 -0.48122
      12     H     0.41895  0.41895  0.00000  0.16209
      13     H     0.42158  0.42158  0.00000  0.15684
      14     H     0.41873  0.41873  0.00000  0.16254
      15     H     0.41682  0.41682  0.00000  0.16637
      16     H     0.42052  0.42052  0.00000  0.15895

   Total alpha = 24.00000, Total beta = 24.00000, Total charge = -0.00000
