  ==> Input File <==

--------------------------------------------------------------------------
set {
	reference rhf
	basis cc-pvtz
}

set_num_threads( 4 )
memory 2 gb

molecule MOL {
0 1

H	 2.580983	 0.608422	 0.264676
O	 2.063695	 -0.083403	 -0.105237
C	 0.742924	 0.005675	 0.350750
H	 0.731380	 0.039219	 1.440080
C	 -0.064076	 -1.193495	 -0.124425
C	 -0.047832	 1.190568	 -0.194462
H	 0.194729	 -1.376165	 -1.161308
H	 0.163013	 -2.094508	 0.429933
C	 -1.533112	 -0.752002	 0.006102
H	 0.148003	 1.266545	 -1.259275
H	 0.226235	 2.136493	 0.259722
C	 -1.506634	 0.799189	 0.067162
H	 -2.124360	 -1.110499	 -0.826089
H	 -1.983103	 -1.158030	 0.903403
H	 -2.183808	 1.252169	 -0.644677
H	 -1.813926	 1.138698	 1.049457

	symmetry c1
}
set optking {
	frozen_dihedral = ("
		1 2 3 6
	")
}

ee = optimize('scf')
oeprop('DIPOLE', 'QUADRUPOLE', 'MULLIKEN_CHARGES')
f=open( 'psi4out.xyz', 'w' )
f.write( "16  " )
f.write( str(ee) + "\n" )
f.write( MOL.save_string_xyz() )
f.close()
--------------------------------------------------------------------------

    Molecular point group: c1
  Charge       = 0
  Multiplicity = 1
  Basis Set: CC-PVTZ
  Basis Set:
  @DF-RHF Final Energy:  -270.11691107749152
    Total Energy =                       -270.1169110774915794
    Molecular point group: c1
  Basis Set: CC-PVTZ
  Basis Set:
  Charge       = 0
  Multiplicity = 1
  Basis Set: CC-PVTZ
  Basis Set:

    Orbital Energies (a.u.)
    -----------------------

    Doubly Occupied:

       1A    -20.545948     2A    -11.267371     3A    -11.214661
       4A    -11.213063     5A    -11.209674     6A    -11.206876
       7A     -1.365891     8A     -1.114724     9A     -0.966358
      10A     -0.949249    11A     -0.789073    12A     -0.777036
      13A     -0.708298    14A     -0.657590    15A     -0.619334
      16A     -0.588712    17A     -0.566953    18A     -0.526136
      19A     -0.509023    20A     -0.481364    21A     -0.470747
      22A     -0.456658    23A     -0.450180    24A     -0.421054

  @DF-RHF Final Energy:  -270.11691158012707

   => Energetics <=

    Nuclear Repulsion Energy =            255.5842721211787136
    One-Electron Energy =                -873.2504237102309617
    Two-Electron Energy =                 347.5492400089250395
    DFT Exchange-Correlation Energy =       0.0000000000000000
    Empirical Dispersion Energy =           0.0000000000000000
    PCM Polarization Energy =               0.0000000000000000
    EFP Energy =                            0.0000000000000000
    Total Energy =                       -270.1169115801271801
    Molecular point group: c1
  Basis Set: CC-PVTZ
  Basis Set:

  -Total Gradient:
     Atom            X                  Y                   Z
    ------   -----------------  -----------------  -----------------
       1        0.000065454778    -0.000149653807     0.000189013532
       2       -0.000106024854     0.000153725659    -0.000312094852
       3        0.000108784464     0.000074481960     0.000199492388
       4       -0.000046062234    -0.000005390367     0.000027488527
       5        0.000018141041     0.000029670518     0.000062949948
       6        0.000003456262    -0.000096705315    -0.000121819406
       7       -0.000013824126     0.000003440843    -0.000007861380
       8       -0.000001549737     0.000001638426    -0.000005110154
       9       -0.000008862099     0.000006053818    -0.000047939480
      10       -0.000012475765     0.000019162465    -0.000002740292
      11        0.000001423089    -0.000007650604    -0.000001906264
      12       -0.000020783356    -0.000017984519     0.000018021221
      13       -0.000015330499    -0.000004471887     0.000007774758
      14        0.000022535211    -0.000000547910     0.000009251982
      15        0.000008575792    -0.000003807037    -0.000006481036
      16       -0.000003457967    -0.000001962241    -0.000008039493

  **** Optimization is complete! (in 2 steps) ****
    Final optimized geometry and variables:
    Molecular point group: c1

    Geometry (in Angstrom), charge = 0, multiplicity = 1:

    H            2.581318507444     0.609090713077     0.261065427976
    O            2.063200676330    -0.082868717293    -0.107301676634
    C            0.743147907775     0.005990363837     0.351044033760
    H            0.732706089224     0.039236215602     1.440316188688
    C           -0.064256627247    -1.193254413190    -0.123625286189
    C           -0.047921537233     1.190836895197    -0.194084611397
    H            0.195477364726    -1.376838189221    -1.160128883571
    H            0.162328720011    -2.093866582187     0.431610176633
    C           -1.533338346111    -0.751687063604     0.004934771384
    H            0.148512894534     1.266902848476    -1.258706258157
    H            0.225949985726     2.136756089198     0.260122091590
    C           -1.506729676500     0.799398638035     0.066824771862
    H           -2.123413124055    -1.109602784738    -0.828343285593
    H           -1.984622387385    -1.158213493113     0.901367019953
    H           -2.183750130006     1.252740761559    -0.644938256751
    H           -1.814279387439     1.138346294770     1.049258817736

  Mulliken Charges: (a.u.)
   Center  Symbol    Alpha    Beta     Spin     Total
       1     H     0.39552  0.39552  0.00000  0.20896
       2     O     4.20003  4.20003  0.00000 -0.40006
       3     C     2.92232  2.92232  0.00000  0.15535
       4     H     0.46699  0.46699  0.00000  0.06601
       5     C     3.10229  3.10229  0.00000 -0.20457
       6     C     3.10159  3.10159  0.00000 -0.20317
       7     H     0.45115  0.45115  0.00000  0.09769
       8     H     0.44399  0.44399  0.00000  0.11202
       9     C     3.10945  3.10945  0.00000 -0.21890
      10     H     0.45343  0.45343  0.00000  0.09314
      11     H     0.45034  0.45034  0.00000  0.09932
      12     C     3.11476  3.11476  0.00000 -0.22953
      13     H     0.44550  0.44550  0.00000  0.10901
      14     H     0.44872  0.44872  0.00000  0.10256
      15     H     0.44339  0.44339  0.00000  0.11322
      16     H     0.45053  0.45053  0.00000  0.09894

   Total alpha = 24.00000, Total beta = 24.00000, Total charge = -0.00000
