  ==> Input File <==

--------------------------------------------------------------------------
set {
	reference rhf
	basis 6-31G*
}

set_num_threads( 4 )
memory 2 gb

molecule MOL {
0 1

O	 -1.274952	 0.815046	 -0.849726
C	 -1.083277	 0.139568	 0.115197
C	 0.323299	 -0.082943	 0.642902
C	 -2.218133	 -0.545959	 0.843196
C	 1.355627	 -0.005344	 -0.493127
H	 0.396251	 -1.044647	 1.143147
H	 0.528637	 0.693580	 1.371677
C	 2.786168	 -0.195604	 0.007473
H	 1.132807	 -0.760304	 -1.243899
H	 1.259610	 0.958506	 -0.981915
H	 3.495561	 -0.130713	 -0.811210
H	 2.912696	 -1.165395	 0.480041
H	 3.049284	 0.565503	 0.735850
H	 -2.008779	 -1.603663	 0.973971
H	 -3.140348	 -0.419155	 0.293490
H	 -2.327673	 -0.116033	 1.835349

	symmetry c1
}
set optking {
	frozen_dihedral = ("
		4 2 3 5
	")
}

ee = optimize('scf')
oeprop('DIPOLE', 'QUADRUPOLE', 'MULLIKEN_CHARGES')
f=open( 'psi4out.xyz', 'w' )
f.write( "16  " )
f.write( str(ee) + "\n" )
f.write( MOL.save_string_xyz() )
f.close()
--------------------------------------------------------------------------

    Molecular point group: c1
  Charge       = 0
  Multiplicity = 1
  Basis Set: 6-31G*
  Basis Set:
  @DF-RHF Final Energy:  -270.03058833095656
    Total Energy =                       -270.0305883309565615
    Molecular point group: c1
  Basis Set: 6-31G*
  Basis Set:
  Basis Set: 6-31G*
  Basis Set:
  @DF-RHF Final Energy:  -270.02959981536310
    Total Energy =                       -270.0295998153631558
  Basis Set: 6-31G*
  Basis Set:
  Basis Set: 6-31G*
  Basis Set:
  @DF-RHF Final Energy:  -270.03108164784283
    Total Energy =                       -270.0310816478429388
  Basis Set: 6-31G*
  Basis Set:
  Basis Set: 6-31G*
  Basis Set:
  @DF-RHF Final Energy:  -270.03145618035006
    Total Energy =                       -270.0314561803500624
  Basis Set: 6-31G*
  Basis Set:
  @DF-RHF Final Energy:  -270.03151678400422
    Total Energy =                       -270.0315167840041681
  Basis Set: 6-31G*
  Basis Set:
  @DF-RHF Final Energy:  -270.03155032134100
    Total Energy =                       -270.0315503213410580
  Basis Set: 6-31G*
  Basis Set:
  Basis Set: 6-31G*
  Basis Set:
  @DF-RHF Final Energy:  -270.03157879111347
    Total Energy =                       -270.0315787911133611
  Basis Set: 6-31G*
  Basis Set:
  Basis Set: 6-31G*
  Basis Set:
  @DF-RHF Final Energy:  -270.03158697115987
    Total Energy =                       -270.0315869711598680
  Basis Set: 6-31G*
  Basis Set:
  Charge       = 0
  Multiplicity = 1
  Basis Set: 6-31G*
  Basis Set:

    Orbital Energies (a.u.)
    -----------------------

    Doubly Occupied:

       1A    -20.549653     2A    -11.326676     3A    -11.231992
       4A    -11.229018     5A    -11.221953     6A    -11.214502
       7A     -1.395479     8A     -1.077503     9A     -1.015621
      10A     -0.947269    11A     -0.824863    12A     -0.732578
      13A     -0.656138    14A     -0.648945    15A     -0.621745
      16A     -0.599910    17A     -0.568867    18A     -0.559913
      19A     -0.546303    20A     -0.503729    21A     -0.493080
      22A     -0.481579    23A     -0.474968    24A     -0.400042

  @DF-RHF Final Energy:  -270.03158787798191

   => Energetics <=

    Nuclear Repulsion Energy =            236.7499528711764469
    One-Electron Energy =                -834.9184256979016254
    Two-Electron Energy =                 328.1368849487433863
    DFT Exchange-Correlation Energy =       0.0000000000000000
    Empirical Dispersion Energy =           0.0000000000000000
    PCM Polarization Energy =               0.0000000000000000
    EFP Energy =                            0.0000000000000000
    Total Energy =                       -270.0315878779817922
    Molecular point group: c1
  Basis Set: 6-31G*
  Basis Set:

  -Total Gradient:
     Atom            X                  Y                   Z
    ------   -----------------  -----------------  -----------------
       1        0.000028813072    -0.000035005368     0.000027835948
       2       -0.000203027321     0.001009200098     0.000898917884
       3        0.000183144806     0.001159675246    -0.000071708888
       4        0.000136184164    -0.001014541810    -0.000710596872
       5       -0.000136820301    -0.001126410958    -0.000101411123
       6        0.000023915733    -0.000016443809    -0.000027527946
       7       -0.000005721687     0.000020495422    -0.000007591277
       8       -0.000007680493    -0.000027883613    -0.000007954495
       9        0.000026962816    -0.000027487496     0.000001862367
      10       -0.000013956123     0.000033866117    -0.000006353038
      11        0.000008474044     0.000009640153    -0.000005343178
      12        0.000009351185    -0.000002164724    -0.000003722932
      13       -0.000034823983    -0.000014432196    -0.000010482154
      14       -0.000014035560     0.000009750521     0.000010623804
      15       -0.000000889942     0.000005525100     0.000007372532
      16        0.000000109593     0.000016217315     0.000006079369

  **** Optimization is complete! (in 9 steps) ****
    Final optimized geometry and variables:
    Molecular point group: c1

    Geometry (in Angstrom), charge = 0, multiplicity = 1:

    O           -1.310368085389     0.769525970691    -0.919753900540
    C           -1.080436481718     0.115957183347     0.051453252814
    C            0.336627675168    -0.080265004647     0.564749879685
    C           -2.187259392640    -0.560487019196     0.829916967551
    C            1.395601877729    -0.042620370547    -0.536794840509
    H            0.395117188284    -1.013117862625     1.120090779011
    H            0.520002287464     0.711881520325     1.290695794309
    C            2.812685555633    -0.193002577965     0.013763059631
    H            1.194800212222    -0.836584369927    -1.250880643994
    H            1.303757316760     0.888540293590    -1.082610683126
    H            3.544702787148    -0.166150076518    -0.786967755191
    H            2.936062911509    -1.134409190887     0.542109130201
    H            3.052516606738     0.608388158610     0.707042509784
    H           -2.109966519111    -1.637323870378     0.705052672580
    H           -3.150409765881    -0.227067563386     0.469366027289
    H           -2.097721212116    -0.352928283162     1.892209543375

  Mulliken Charges: (a.u.)
   Center  Symbol    Alpha    Beta     Spin     Total
       1     O     4.26247  4.26247  0.00000 -0.52493
       2     C     2.73441  2.73441  0.00000  0.53118
       3     C     3.20821  3.20821  0.00000 -0.41643
       4     C     3.28798  3.28798  0.00000 -0.57596
       5     C     3.15149  3.15149  0.00000 -0.30298
       6     H     0.41456  0.41456  0.00000  0.17088
       7     H     0.40483  0.40483  0.00000  0.19035
       8     C     3.24159  3.24159  0.00000 -0.48317
       9     H     0.41784  0.41784  0.00000  0.16431
      10     H     0.40380  0.40380  0.00000  0.19240
      11     H     0.41564  0.41564  0.00000  0.16871
      12     H     0.42259  0.42259  0.00000  0.15482
      13     H     0.42115  0.42115  0.00000  0.15770
      14     H     0.40649  0.40649  0.00000  0.18702
      15     H     0.39701  0.39701  0.00000  0.20597
      16     H     0.40993  0.40993  0.00000  0.18014

   Total alpha = 24.00000, Total beta = 24.00000, Total charge =  0.00000
