  ==> Input File <==

--------------------------------------------------------------------------
set {
	reference rhf
	basis 6-31G*
}

set_num_threads( 1 )
memory 2 gb

molecule MOL {
0 1

O	 2.857690	 -1.973837	 -1.644487
C	 2.504230	 -1.514901	 -0.606458
C	 1.073301	 -1.382678	 -0.144129
O	 3.347903	 -1.046386	 0.304773
C	 0.063856	 -1.920840	 -1.155819
H	 0.999871	 -1.889104	 0.812601
H	 0.896618	 -0.330221	 0.062785
C	 -1.396650	 -1.698962	 -0.748158
H	 0.244704	 -2.979751	 -1.314310
H	 0.242722	 -1.440438	 -2.111666
C	 -1.845497	 -2.475998	 0.492754
H	 -2.027619	 -1.987410	 -1.585654
H	 -1.571725	 -0.635604	 -0.591224
C	 -3.336193	 -2.307336	 0.793383
H	 -1.624461	 -3.532984	 0.352242
H	 -1.273937	 -2.157232	 1.361477
C	 -3.794920	 -3.075224	 2.034370
H	 -3.916232	 -2.636984	 -0.066921
H	 -3.559901	 -1.249625	 0.923389
C	 -5.285518	 -2.904600	 2.325410
H	 -3.571207	 -4.132229	 1.906560
H	 -3.219280	 -2.743994	 2.896174
H	 -5.580087	 -3.460319	 3.210290
H	 -5.890106	 -3.259587	 1.495558
H	 -5.535466	 -1.860573	 2.492169
C	 4.728119	 -1.109107	 -0.004993
H	 4.882018	 -1.033965	 -1.071845
H	 5.068212	 -2.067527	 0.355250
H	 5.265056	 -0.311663	 0.488280

	symmetry c1
}
set optking {
	frozen_dihedral = ("
		21 17 14 11,
		17 14 11 15,
		15 11 8 5,
		6 3 5 9,
		11 8 5 9,
		1 2 4 26,
		6 3 2 1
	")
}

ee = energy('scf')
oeprop('DIPOLE', 'QUADRUPOLE', 'MULLIKEN_CHARGES')
f=open( 'psi4out.xyz', 'w' )
f.write( "29  " )
f.write( str(ee) + "\n" )
f.write( MOL.save_string_xyz() )
f.close()
--------------------------------------------------------------------------

    Molecular point group: c1

    Geometry (in Angstrom), charge = 0, multiplicity = 1:

       Center              X                  Y                   Z               Mass
    ------------   -----------------  -----------------  -----------------  -----------------
           O          2.911708556833    -0.032479085451    -1.796880595472    15.994914619560
           C          2.558248556833     0.426456914549    -0.758851595472    12.000000000000
           C          1.127319556833     0.558679914549    -0.296522595472    12.000000000000
           O          3.401921556833     0.894971914549     0.152379404528    15.994914619560
           C          0.117874556833     0.020517914549    -1.308212595472    12.000000000000
           H          1.053889556833     0.052253914549     0.660207404528     1.007825032070
           H          0.950636556833     1.611136914549    -0.089608595472     1.007825032070
           C         -1.342631443167     0.242395914549    -0.900551595472    12.000000000000
           H          0.298722556833    -1.038393085451    -1.466703595472     1.007825032070
           H          0.296740556833     0.500919914549    -2.264059595472     1.007825032070
           C         -1.791478443167    -0.534640085451     0.340360404528    12.000000000000
           H         -1.973600443167    -0.046052085451    -1.738047595472     1.007825032070
           H         -1.517706443167     1.305753914549    -0.743617595472     1.007825032070
           C         -3.282174443167    -0.365978085451     0.640989404528    12.000000000000
           H         -1.570442443167    -1.591626085451     0.199848404528     1.007825032070
           H         -1.219918443167    -0.215874085451     1.209083404528     1.007825032070
           C         -3.740901443167    -1.133866085451     1.881976404528    12.000000000000
           H         -3.862213443167    -0.695626085451    -0.219314595472     1.007825032070
           H         -3.505882443167     0.691732914549     0.770995404528     1.007825032070
           C         -5.231499443167    -0.963242085451     2.173016404528    12.000000000000
           H         -3.517188443167    -2.190871085451     1.754166404528     1.007825032070
           H         -3.165261443167    -0.802636085451     2.743780404528     1.007825032070
           H         -5.526068443167    -1.518961085451     3.057896404528     1.007825032070
           H         -5.836087443167    -1.318229085451     1.343164404528     1.007825032070
           H         -5.481447443167     0.080784914549     2.339775404528     1.007825032070
           C          4.782137556833     0.832250914549    -0.157386595472    12.000000000000
           H          4.936036556833     0.907392914549    -1.224238595472     1.007825032070
           H          5.122230556833    -0.126169085451     0.202856404528     1.007825032070
           H          5.319074556833     1.629694914549     0.335886404528     1.007825032070

  Charge       = 0
  Multiplicity = 1
  Basis Set: 6-31G*
  Basis Set:

    Orbital Energies (a.u.)
    -----------------------

    Doubly Occupied:

       1A    -20.602640     2A    -20.544575     3A    -11.372831
       4A    -11.278360     5A    -11.234975     6A    -11.219187
       7A    -11.217691     8A    -11.216023     9A    -11.215866
      10A    -11.214487    11A    -11.209058    12A     -1.469066
      13A     -1.362406    14A     -1.098150    15A     -1.066882
      16A     -1.019436    17A     -0.976692    18A     -0.928278
      19A     -0.861556    20A     -0.799189    21A     -0.790431
      22A     -0.762848    23A     -0.701840    24A     -0.682854
      25A     -0.672881    26A     -0.650923    27A     -0.629504
      28A     -0.605431    29A     -0.594282    30A     -0.580714
      31A     -0.567749    32A     -0.549987    33A     -0.532764
      34A     -0.527019    35A     -0.514377    36A     -0.511896
      37A     -0.496322    38A     -0.477868    39A     -0.470274
      40A     -0.462369    41A     -0.458664    42A     -0.454077
      43A     -0.440960    44A     -0.435871

  @DF-RHF Final Energy:  -501.04162289043211

   => Energetics <=

    Nuclear Repulsion Energy =            610.3039331691261395
    One-Electron Energy =               -1891.7326262917138138
    Two-Electron Energy =                 780.3870702321546560
    DFT Exchange-Correlation Energy =       0.0000000000000000
    Empirical Dispersion Energy =           0.0000000000000000
    PCM Polarization Energy =               0.0000000000000000
    EFP Energy =                            0.0000000000000000
    Total Energy =                       -501.0416228904330183

  Mulliken Charges: (a.u.)
   Center  Symbol    Alpha    Beta     Spin     Total
       1     O     4.28632  4.28632  0.00000 -0.57264
       2     C     2.60455  2.60455  0.00000  0.79091
       3     C     3.20998  3.20998  0.00000 -0.41997
       4     O     4.30794  4.30794  0.00000 -0.61587
       5     C     3.15385  3.15385  0.00000 -0.30769
       6     H     0.39866  0.39866  0.00000  0.20267
       7     H     0.40112  0.40112  0.00000  0.19777
       8     C     3.15663  3.15663  0.00000 -0.31327
       9     H     0.41304  0.41304  0.00000  0.17393
      10     H     0.40874  0.40874  0.00000  0.18251
      11     C     3.15509  3.15509  0.00000 -0.31017
      12     H     0.41821  0.41821  0.00000  0.16358
      13     H     0.42385  0.42385  0.00000  0.15230
      14     C     3.15030  3.15030  0.00000 -0.30060
      15     H     0.42260  0.42260  0.00000  0.15481
      16     H     0.42359  0.42359  0.00000  0.15281
      17     C     3.15147  3.15147  0.00000 -0.30293
      18     H     0.42332  0.42332  0.00000  0.15336
      19     H     0.42397  0.42397  0.00000  0.15207
      20     C     3.23935  3.23935  0.00000 -0.47870
      21     H     0.42280  0.42280  0.00000  0.15441
      22     H     0.42342  0.42342  0.00000  0.15317
      23     H     0.41922  0.41922  0.00000  0.16156
      24     H     0.42155  0.42155  0.00000  0.15691
      25     H     0.42183  0.42183  0.00000  0.15635
      26     C     3.09780  3.09780  0.00000 -0.19560
      27     H     0.39818  0.39818  0.00000  0.20365
      28     H     0.41315  0.41315  0.00000  0.17369
      29     H     0.40950  0.40950  0.00000  0.18101

   Total alpha = 44.00000, Total beta = 44.00000, Total charge = -0.00000
