  ==> Input File <==

--------------------------------------------------------------------------
set {
	reference rhf
	basis cc-pvtz
}

set_num_threads( 4 )
memory 2 gb

molecule MOL {
0 1

H	 3.273419	 0.176595	 -0.102789
N	 2.433987	 -0.362316	 -0.080024
C	 1.263552	 0.494993	 0.021953
H	 2.497638	 -0.973615	 0.707122
C	 -0.016533	 -0.325589	 -0.026925
H	 1.280915	 1.180773	 -0.818522
H	 1.263064	 1.106893	 0.925038
C	 -1.280353	 0.525521	 0.047747
H	 -0.016686	 -0.912532	 -0.939714
H	 -0.014099	 -1.037598	 0.796369
C	 -2.489456	 -0.245926	 0.566332
H	 -1.504506	 0.922381	 -0.938774
H	 -1.101723	 1.385237	 0.687946
H	 -2.715122	 -1.093593	 -0.071841
H	 -3.370871	 0.383861	 0.604081
H	 -2.311322	 -0.625733	 1.566930

	symmetry c1
}
set optking {
	frozen_dihedral = ("
		12 8 5 9
	")
}

ee = optimize('scf')
oeprop('DIPOLE', 'QUADRUPOLE', 'MULLIKEN_CHARGES')
f=open( 'psi4out.xyz', 'w' )
f.write( "16  " )
f.write( str(ee) + "\n" )
f.write( MOL.save_string_xyz() )
f.close()
--------------------------------------------------------------------------

    Molecular point group: c1
  Charge       = 0
  Multiplicity = 1
  Basis Set: CC-PVTZ
  Basis Set:
  @DF-RHF Final Energy:  -212.39851697698106
    Total Energy =                       -212.3985169769812273
    Molecular point group: c1
  Basis Set: CC-PVTZ
  Basis Set:
  Basis Set: CC-PVTZ
  Basis Set:
  @DF-RHF Final Energy:  -212.39872780938788
    Total Energy =                       -212.3987278093878786
  Basis Set: CC-PVTZ
  Basis Set:
  Basis Set: CC-PVTZ
  Basis Set:
  @DF-RHF Final Energy:  -212.39876210298146
    Total Energy =                       -212.3987621029815500
  Basis Set: CC-PVTZ
  Basis Set:
  Charge       = 0
  Multiplicity = 1
  Basis Set: CC-PVTZ
  Basis Set:

    Orbital Energies (a.u.)
    -----------------------

    Doubly Occupied:

       1A    -15.526471     2A    -11.238019     3A    -11.212956
       4A    -11.207893     5A    -11.205949     6A     -1.178265
       7A     -1.060087     8A     -0.959693     9A     -0.843705
      10A     -0.792296    11A     -0.664301    12A     -0.641259
      13A     -0.600570    14A     -0.583430    15A     -0.565695
      16A     -0.519800    17A     -0.505916    18A     -0.469216
      19A     -0.464941    20A     -0.460888    21A     -0.384071

  @DF-RHF Final Energy:  -212.39876258056259

   => Energetics <=

    Nuclear Repulsion Energy =            186.5720686829526187
    One-Electron Energy =                -655.7708147969526635
    Two-Electron Energy =                 256.7999835334375121
    DFT Exchange-Correlation Energy =       0.0000000000000000
    Empirical Dispersion Energy =           0.0000000000000000
    PCM Polarization Energy =               0.0000000000000000
    EFP Energy =                            0.0000000000000000
    Total Energy =                       -212.3987625805625612
    Molecular point group: c1
  Basis Set: CC-PVTZ
  Basis Set:

  -Total Gradient:
     Atom            X                  Y                   Z
    ------   -----------------  -----------------  -----------------
       1        0.000009413416    -0.000008274834    -0.000001230333
       2        0.000042646468    -0.000003204054     0.000009407799
       3       -0.000036080374    -0.000037085482    -0.000007785550
       4        0.000007729312     0.000006470441    -0.000002933372
       5       -0.002641447674    -0.003930944402     0.001933957867
       6        0.000005287081     0.000000951883     0.000005812634
       7        0.000001723448     0.000020950939     0.000003586747
       8        0.002880622953     0.004161016535     0.000503472162
       9        0.001738658459     0.002643310431    -0.001727641248
      10        0.000000687854     0.000024039135    -0.000008227693
      11        0.000000704569     0.000029064186    -0.000011333601
      12       -0.001988521660    -0.002890658422    -0.000702820654
      13        0.000002593364    -0.000004721177     0.000007744783
      14        0.000000729494    -0.000012922922     0.000004536147
      15       -0.000019954374    -0.000005393977    -0.000003143400
      16       -0.000004792339     0.000007401721    -0.000003402287

  **** Optimization is complete! (in 4 steps) ****
    Final optimized geometry and variables:
    Molecular point group: c1

    Geometry (in Angstrom), charge = 0, multiplicity = 1:

    H            3.258534202027     0.171128968592    -0.281688043098
    N            2.421568443871    -0.370710834253    -0.242102812989
    C            1.252671045080     0.480082663567    -0.086195351335
    H            2.512450901136    -0.996473835204     0.530981475864
    C           -0.027770091639    -0.344593950415    -0.098560803689
    H            1.236138814836     1.177346619800    -0.917638364706
    H            1.282618234172     1.080171225153     0.824230756883
    C           -1.289938001403     0.518463861295    -0.048712689477
    H           -0.021277179241    -0.939983700762    -1.004918112761
    H           -0.014466118355    -1.033234530512     0.742810895812
    C           -2.519311015580    -0.253174067473     0.424532242085
    H           -1.494923435505     0.904387828285    -1.042620329498
    H           -1.132305335788     1.373917919036     0.601224275524
    H           -2.705367846930    -1.115333956947    -0.207549400525
    H           -3.406877336495     0.369011350530     0.404054124146
    H           -2.389255406132    -0.612152731250     1.440014864226

  Mulliken Charges: (a.u.)
   Center  Symbol    Alpha    Beta     Spin     Total
       1     H     0.43015  0.43015  0.00000  0.13971
       2     N     3.68976  3.68976  0.00000 -0.37953
       3     C     3.02457  3.02457  0.00000 -0.04913
       4     H     0.43100  0.43100  0.00000  0.13799
       5     C     3.08174  3.08174  0.00000 -0.16348
       6     H     0.45729  0.45729  0.00000  0.08543
       7     H     0.46902  0.46902  0.00000  0.06195
       8     C     3.08897  3.08897  0.00000 -0.17795
       9     H     0.44854  0.44854  0.00000  0.10293
      10     H     0.46085  0.46085  0.00000  0.07831
      11     C     3.14891  3.14891  0.00000 -0.29781
      12     H     0.45279  0.45279  0.00000  0.09441
      13     H     0.45700  0.45700  0.00000  0.08601
      14     H     0.45399  0.45399  0.00000  0.09203
      15     H     0.44927  0.44927  0.00000  0.10145
      16     H     0.45616  0.45616  0.00000  0.08768

   Total alpha = 21.00000, Total beta = 21.00000, Total charge = -0.00000
