                              Psi4 1.0.54 Driver

  ==> Input File <==

--------------------------------------------------------------------------
set {
	reference rhf
	basis cc-pvtz
}

set_num_threads( 4 )
memory 2 gb

molecule MOL {
0 1

H	 -2.631972	 -0.819732	 1.599177
C	 -2.629922	 -1.167843	 0.568790
O	 -1.368059	 -1.063098	 -0.000657
H	 -2.914189	 -2.209882	 0.553412
H	 -3.369220	 -0.595709	 0.011129
C	 -0.870848	 0.233442	 -0.058983
C	 0.538515	 0.215926	 -0.595390
H	 -1.490200	 0.845979	 -0.714095
H	 -0.872118	 0.690966	 0.927983
O	 1.401606	 -0.295166	 0.366636
H	 0.569361	 -0.387717	 -1.499876
H	 0.828055	 1.232831	 -0.860048
C	 2.714315	 -0.441627	 -0.061017
H	 2.765292	 -0.641548	 -1.128869
H	 3.305661	 0.447341	 0.150952
H	 3.143725	 -1.278506	 0.470147

	symmetry c1
}
set optking {
	frozen_dihedral = ("
		7 10 13 14
	")
}

ee,wfn = optimize('scf', return_wfn=True)
oeprop( wfn, 'DIPOLE', 'QUADRUPOLE', 'MULLIKEN_CHARGES')
f=open( 'psi4out.xyz', 'w' )
f.write( "16  " )
f.write( str(ee) + "\n" )
f.write( MOL.save_string_xyz() )
f.close()
--------------------------------------------------------------------------

    Molecular point group: c1
  Charge       = 0
  Multiplicity = 1
  Basis Set: CC-PVTZ
  Basis Set:
  @DF-RHF Final Energy:  -307.09591113206113
    Total Energy =                       -307.0959111320611328
    Molecular point group: c1
  Basis Set: CC-PVTZ
  Basis Set:
  Basis Set: CC-PVTZ
  Basis Set:
  @DF-RHF Final Energy:  -307.09601893323219
    Total Energy =                       -307.0960189332323012
  Basis Set: CC-PVTZ
  Basis Set:
  Basis Set: CC-PVTZ
  Basis Set:
  @DF-RHF Final Energy:  -307.09605990807654
    Total Energy =                       -307.0960599080767679
  Basis Set: CC-PVTZ
  Basis Set:
  Charge       = 0
  Multiplicity = 1
  Basis Set: CC-PVTZ
  Basis Set:

    Orbital Energies (a.u.)
    -----------------------

    Doubly Occupied:

       1A    -20.547614     2A    -20.545999     3A    -11.267753
       4A    -11.266828     5A    -11.261484     6A    -11.261366
       7A     -1.390595     8A     -1.373070     9A     -1.031968
      10A     -0.937286    11A     -0.892225    12A     -0.824309
      13A     -0.685557    14A     -0.681810    15A     -0.659431
      16A     -0.637728    17A     -0.630584    18A     -0.598646
      19A     -0.552681    20A     -0.536168    21A     -0.509993
      22A     -0.479547    23A     -0.464370    24A     -0.422030
      25A     -0.411756

  @DF-RHF Final Energy:  -307.09606034219246

   => Energetics <=

    Nuclear Repulsion Energy =            258.7710447162378387
    One-Electron Energy =                -931.9926144362532341
    Two-Electron Energy =                 366.1255093778229366
    DFT Exchange-Correlation Energy =       0.0000000000000000
    Empirical Dispersion Energy =           0.0000000000000000
    PCM Polarization Energy =               0.0000000000000000
    EFP Energy =                            0.0000000000000000
    Total Energy =                       -307.0960603421924588
    Molecular point group: c1
  Basis Set: CC-PVTZ
  Basis Set:

  -Total Gradient:
     Atom            X                  Y                   Z
    ------   -----------------  -----------------  -----------------
       1       -0.000001202421    -0.000000464635    -0.000000256425
       2       -0.000003456763     0.000003095987     0.000005357718
       3        0.000005115047    -0.000005776601     0.000013789218
       4        0.000001639185     0.000000040972    -0.000000530084
       5        0.000002953898     0.000000155902    -0.000000772851
       6       -0.000026607731     0.000022846614    -0.000052236564
       7       -0.000497825055    -0.002058472081    -0.000735146430
       8       -0.000035818786     0.000009841130     0.000002954327
       9        0.000012425972    -0.000020147077    -0.000018136307
      10        0.000785794602     0.003793922564     0.000896399850
      11       -0.000001139701    -0.000004795354     0.000024695322
      12        0.000005144223    -0.000016112101     0.000001569401
      13       -0.000379452954    -0.004512167104     0.000374665280
      14        0.000135169226     0.002801514725    -0.000501113340
      15       -0.000017975803    -0.000001005411    -0.000008395799
      16        0.000015237059    -0.000012477531    -0.000002843316

  **** Optimization is complete! (in 4 steps) ****
    Final optimized geometry and variables:
    Molecular point group: c1

    Geometry (in Angstrom), charge = 0, multiplicity = 1:

    H           -2.594180876620    -0.404055988260     1.557963851464
    C           -2.590736651145    -0.753376269724     0.527995610955
    O           -1.330116482708    -0.641016582457    -0.042674137029
    H           -2.868202188199    -1.797269518652     0.514083928308
    H           -3.334288684874    -0.186758678366    -0.029681521196
    C           -0.841351093447     0.658632172443    -0.102585246811
    C            0.567757343374     0.649657445507    -0.640257349254
    H           -1.464985837122     1.266469002821    -0.758154913258
    H           -0.845270642639     1.117111421456     0.883813759234
    O            1.431765037053     0.136098766028     0.320078461653
    H            0.600647592545     0.048854104412    -1.545629860564
    H            0.848467123261     1.669968854482    -0.902269256050
    C            2.754723032733    -0.012533710713    -0.084160354317
    H            2.830435323371    -0.210353399396    -1.149522544699
    H            3.328621156017     0.887814311934     0.124114899333
    H            3.190596871279    -0.836389379267     0.462902884008

  Mulliken Charges: (a.u.)
   Center  Symbol    Alpha    Beta     Spin     Total
       1     H     0.47019  0.47019  0.00000  0.05961
       2     C     3.03204  3.03204  0.00000 -0.06408
       3     O     4.17029  4.17029  0.00000 -0.34058
       4     H     0.44640  0.44640  0.00000  0.10719
       5     H     0.47373  0.47373  0.00000  0.05255
       6     C     2.96216  2.96216  0.00000  0.07569
       7     C     2.95977  2.95977  0.00000  0.08047
       8     H     0.47621  0.47621  0.00000  0.04758
       9     H     0.47080  0.47080  0.00000  0.05841
      10     O     4.17276  4.17276  0.00000 -0.34552
      11     H     0.46911  0.46911  0.00000  0.06178
      12     H     0.47737  0.47737  0.00000  0.04527
      13     C     3.02932  3.02932  0.00000 -0.05865
      14     H     0.47405  0.47405  0.00000  0.05191
      15     H     0.46690  0.46690  0.00000  0.06619
      16     H     0.44891  0.44891  0.00000  0.10218

   Total alpha = 25.00000, Total beta = 25.00000, Total charge = -0.00000

*** Psi4 exiting successfully. Buy a developer a beer!
