  ==> Input File <==

--------------------------------------------------------------------------
set {
	reference rhf
	basis 6-31G*
}

set_num_threads( 4 )
memory 2 gb

molecule MOL {
0 1

H	 2.591676	 2.013956	 0.335017
O	 3.341076	 1.666752	 -0.126416
C	 3.569581	 0.339145	 0.272707
C	 2.539767	 -0.640285	 -0.279495
H	 4.553106	 0.084646	 -0.100901
H	 3.608576	 0.269204	 1.359154
C	 3.150191	 -1.842006	 -1.004835
H	 1.918388	 -0.986982	 0.542123
H	 1.888481	 -0.097968	 -0.962932
C	 2.090840	 -2.777615	 -1.594098
H	 3.778445	 -2.395543	 -0.312550
H	 3.800546	 -1.489543	 -1.805553
C	 2.649072	 -3.952839	 -2.405002
H	 1.464342	 -3.160324	 -0.790430
H	 1.434942	 -2.195702	 -2.238206
C	 3.440069	 -4.979978	 -1.590270
H	 1.816853	 -4.460393	 -2.888340
H	 3.276202	 -3.569410	 -3.208449
C	 3.885544	 -6.184938	 -2.421569
H	 2.828868	 -5.325407	 -0.757670
H	 4.318053	 -4.512988	 -1.150535
C	 4.680836	 -7.208697	 -1.612192
H	 3.011263	 -6.667298	 -2.853366
H	 4.488322	 -5.840883	 -3.259526
H	 4.093091	 -7.596494	 -0.784912
H	 4.980243	 -8.050979	 -2.228270
H	 5.582037	 -6.766233	 -1.196949

	symmetry c1
}
set optking {
	frozen_dihedral = ("
		8 4 3 2
	")
}

ee = optimize('scf')
oeprop('DIPOLE', 'QUADRUPOLE', 'MULLIKEN_CHARGES')
f=open( 'psi4out.xyz', 'w' )
f.write( "27  " )
f.write( str(ee) + "\n" )
f.write( MOL.save_string_xyz() )
f.close()
--------------------------------------------------------------------------

    Molecular point group: c1
  Charge       = 0
  Multiplicity = 1
  Basis Set: 6-31G*
  Basis Set:
  @DF-RHF Final Energy:  -388.27588902691843
    Total Energy =                       -388.2758890269186622
    Molecular point group: c1
  Basis Set: 6-31G*
  Basis Set:
  Basis Set: 6-31G*
  Basis Set:
  @DF-RHF Final Energy:  -388.27636112805709
    Total Energy =                       -388.2763611280568057
  Basis Set: 6-31G*
  Basis Set:
  Basis Set: 6-31G*
  Basis Set:
  @DF-RHF Final Energy:  -388.27644856820763
    Total Energy =                       -388.2764485682071154
  Basis Set: 6-31G*
  Basis Set:
  Basis Set: 6-31G*
  Basis Set:
  @DF-RHF Final Energy:  -388.27643587205870
    Total Energy =                       -388.2764358720585278
  Basis Set: 6-31G*
  Basis Set:
  Basis Set: 6-31G*
  Basis Set:
  @DF-RHF Final Energy:  -388.27645767057663
    Total Energy =                       -388.2764576705765194
  Basis Set: 6-31G*
  Basis Set:
  Basis Set: 6-31G*
  Basis Set:
  @DF-RHF Final Energy:  -388.27645189715969
    Total Energy =                       -388.2764518971598591
  Basis Set: 6-31G*
  Basis Set:
  Basis Set: 6-31G*
  Basis Set:
  @DF-RHF Final Energy:  -388.27645829493730
    Total Energy =                       -388.2764582949371288
  Basis Set: 6-31G*
  Basis Set:
  Charge       = 0
  Multiplicity = 1
  Basis Set: 6-31G*
  Basis Set:

    Orbital Energies (a.u.)
    -----------------------

    Doubly Occupied:

       1A    -20.551486     2A    -11.266590     3A    -11.216963
       4A    -11.215384     5A    -11.215086     6A    -11.214662
       7A    -11.213766     8A    -11.212620     9A    -11.208306
      10A     -1.357628    11A     -1.093564    12A     -1.060218
      13A     -1.009306    14A     -0.943606    15A     -0.882732
      16A     -0.823772    17A     -0.803952    18A     -0.776969
      19A     -0.688324    20A     -0.647712    21A     -0.633430
      22A     -0.610321    23A     -0.609140    24A     -0.580042
      25A     -0.577275    26A     -0.555512    27A     -0.538643
      28A     -0.522798    29A     -0.509634    30A     -0.485121
      31A     -0.483800    32A     -0.475624    33A     -0.464150
      34A     -0.459839    35A     -0.455901    36A     -0.442210
      37A     -0.417611

  @DF-RHF Final Energy:  -388.27645831807945

   => Energetics <=

    Nuclear Repulsion Energy =            453.5361817487050757
    One-Electron Energy =               -1425.1778883970682728
    Two-Electron Energy =                 583.3652483302835208
    DFT Exchange-Correlation Energy =       0.0000000000000000
    Empirical Dispersion Energy =           0.0000000000000000
    PCM Polarization Energy =               0.0000000000000000
    EFP Energy =                            0.0000000000000000
    Total Energy =                       -388.2764583180796762
    Molecular point group: c1
  Basis Set: 6-31G*
  Basis Set:

  -Total Gradient:
     Atom            X                  Y                   Z
    ------   -----------------  -----------------  -----------------
       1       -0.000002184483     0.000013038207    -0.000004759600
       2        0.001219692681    -0.000293680295    -0.001686177017
       3       -0.001262623315    -0.000082810266     0.002385060908
       4       -0.001566090851     0.002477691801    -0.001131544576
       5        0.000011757312    -0.000008978885     0.000008241836
       6        0.000002809404    -0.000015299280    -0.000007490528
       7        0.000010713853    -0.000001326122     0.000007293132
       8        0.001586582977    -0.002102635254     0.000418803265
       9        0.000000533703    -0.000000325156     0.000006728746
      10       -0.000004991843     0.000010139142    -0.000006769578
      11        0.000010618492    -0.000012148634    -0.000003173153
      12       -0.000000724469     0.000004570982     0.000008394210
      13        0.000003508709     0.000000908047     0.000005858740
      14       -0.000001961944     0.000002810408    -0.000000636246
      15       -0.000001652945    -0.000001971900    -0.000006489766
      16        0.000001227138     0.000002997937    -0.000000022346
      17       -0.000000779040     0.000000332995     0.000003430527
      18       -0.000001758538     0.000001737797     0.000000715337
      19       -0.000005094713    -0.000002703322     0.000000371453
      20       -0.000003179454     0.000000789753    -0.000002339513
      21        0.000001318764     0.000005365923     0.000005216570
      22        0.000004702244     0.000003593670    -0.000001113398
      23       -0.000000974220    -0.000002519198     0.000001473606
      24       -0.000002269005    -0.000000464809    -0.000000554233
      25       -0.000001019837    -0.000000125041    -0.000001775816
      26        0.000001531644     0.000001210662    -0.000000733517
      27        0.000000307737    -0.000000199166     0.000001990955

  **** Optimization is complete! (in 8 steps) ****
    Final optimized geometry and variables:
    Molecular point group: c1

    Geometry (in Angstrom), charge = 0, multiplicity = 1:

    H           -0.664541795786     4.767443618950     1.454909343208
    O            0.144407356845     4.436352601346     1.090195889069
    C            0.309523069728     3.090940803542     1.462267734162
    C           -0.750941767763     2.154242197267     0.855063239878
    H            1.293839893623     2.821499052139     1.101399753860
    H            0.332355321421     2.996522922027     2.545632020015
    C           -0.143026920070     0.939378355915     0.146611440709
    H           -1.424149510929     1.795328881795     1.630871322461
    H           -1.344700573387     2.724626482085     0.147124078287
    C           -1.202198054812    -0.004557674830    -0.427276761604
    H            0.493410436700     0.403324622399     0.846823510215
    H            0.506253635880     1.285282878232    -0.655668328013
    C           -0.644280604104    -1.180276788775    -1.237801702037
    H           -1.820578418050    -0.388273203480     0.382806504965
    H           -1.867077881019     0.570451961564    -1.068617838813
    C            0.164559596147    -2.195611529724    -0.425926246946
    H           -1.477668218878    -1.697409699640    -1.708931515028
    H           -0.029214469593    -0.796151459551    -2.049932209136
    C            0.611656164033    -3.401394467297    -1.255162018732
    H           -0.434673232709    -2.541953006340     0.415214742492
    H            1.042872958177    -1.717914344961     0.001182448032
    C            1.424730974694    -4.413409564357    -0.448687065128
    H           -0.262821010732    -3.893989765425    -1.674950500987
    H            1.202471197694    -3.056721977735    -2.101261006481
    H            0.849154348939    -4.802191832712     0.386733950243
    H            1.725520639735    -5.256290898649    -1.063300774631
    H            2.326000327381    -3.960307835525    -0.045301604641

  Mulliken Charges: (a.u.)
   Center  Symbol    Alpha    Beta     Spin     Total
       1     H     0.28367  0.28367  0.00000  0.43265
       2     O     4.37001  4.37001  0.00000 -0.74001
       3     C     2.99512  2.99512  0.00000  0.00976
       4     C     3.17346  3.17346  0.00000 -0.34692
       5     H     0.41389  0.41389  0.00000  0.17221
       6     H     0.42930  0.42930  0.00000  0.14140
       7     C     3.16078  3.16078  0.00000 -0.32156
       8     H     0.42273  0.42273  0.00000  0.15454
       9     H     0.41347  0.41347  0.00000  0.17307
      10     C     3.15360  3.15360  0.00000 -0.30721
      11     H     0.42119  0.42119  0.00000  0.15762
      12     H     0.41922  0.41922  0.00000  0.16157
      13     C     3.15336  3.15336  0.00000 -0.30673
      14     H     0.42434  0.42434  0.00000  0.15131
      15     H     0.42115  0.42115  0.00000  0.15770
      16     C     3.15268  3.15268  0.00000 -0.30535
      17     H     0.42183  0.42183  0.00000  0.15634
      18     H     0.42315  0.42315  0.00000  0.15370
      19     C     3.15117  3.15117  0.00000 -0.30235
      20     H     0.42502  0.42502  0.00000  0.14997
      21     H     0.42224  0.42224  0.00000  0.15553
      22     C     3.23915  3.23915  0.00000 -0.47831
      23     H     0.42320  0.42320  0.00000  0.15359
      24     H     0.42283  0.42283  0.00000  0.15435
      25     H     0.42209  0.42209  0.00000  0.15582
      26     H     0.41937  0.41937  0.00000  0.16126
      27     H     0.42197  0.42197  0.00000  0.15605

   Total alpha = 37.00000, Total beta = 37.00000, Total charge = -0.00000
