  ==> Input File <==

--------------------------------------------------------------------------
set {
	reference rhf
	basis 6-31G*
}

set_num_threads( 1 )
memory 2 gb

molecule MOL {
0 1

O	 2.743782	 1.064975	 0.582761
C	 2.701189	 0.057885	 -0.047330
C	 1.927079	 -0.147825	 -1.326872
O	 3.347903	 -1.046386	 0.304773
C	 1.174692	 1.101372	 -1.780234
H	 2.634128	 -0.490793	 -2.074967
H	 1.244208	 -0.977303	 -1.161496
C	 0.300557	 0.879666	 -3.019277
H	 1.886180	 1.899417	 -1.970042
H	 0.550794	 1.445070	 -0.962282
C	 1.071265	 0.569461	 -4.305703
H	 -0.292886	 1.777128	 -3.177741
H	 -0.410817	 0.078884	 -2.822539
C	 0.163348	 0.465724	 -5.532864
H	 1.814944	 1.347036	 -4.473447
H	 1.622316	 -0.361934	 -4.196992
C	 0.922095	 0.150833	 -6.823321
H	 -0.382343	 1.399609	 -5.656618
H	 -0.587224	 -0.304309	 -5.361430
C	 0.008658	 0.052721	 -8.044676
H	 1.673217	 0.918799	 -6.995618
H	 1.464698	 -0.784531	 -6.703087
H	 0.575301	 -0.171284	 -8.943199
H	 -0.522666	 0.985268	 -8.212745
H	 -0.733127	 -0.730785	 -7.917602
C	 4.728119	 -1.109107	 -0.004993
H	 4.882018	 -1.033965	 -1.071845
H	 5.068212	 -2.067527	 0.355250
H	 5.265056	 -0.311663	 0.488280

	symmetry c1
}
set optking {
	frozen_dihedral = ("
		21 17 14 11,
		17 14 11 15,
		15 11 8 5,
		6 3 5 9,
		11 8 5 9,
		2 4 26 27,
		6 3 2 1
	")
}

ee = energy('scf')
oeprop('DIPOLE', 'QUADRUPOLE', 'MULLIKEN_CHARGES')
f=open( 'psi4out.xyz', 'w' )
f.write( "29  " )
f.write( str(ee) + "\n" )
f.write( MOL.save_string_xyz() )
f.close()
--------------------------------------------------------------------------

    Molecular point group: c1

    Geometry (in Angstrom), charge = 0, multiplicity = 1:

       Center              X                  Y                   Z               Mass
    ------------   -----------------  -----------------  -----------------  -----------------
           O          0.977182848685     0.893068539319     3.288370038083    15.994914619560
           C          0.934589848685    -0.114021460681     2.658279038083    12.000000000000
           C          0.160479848685    -0.319731460681     1.378737038083    12.000000000000
           O          1.581303848685    -1.218292460681     3.010382038083    15.994914619560
           C         -0.591907151315     0.929465539319     0.925375038083    12.000000000000
           H          0.867528848685    -0.662699460681     0.630642038083     1.007825032070
           H         -0.522391151315    -1.149209460681     1.544113038083     1.007825032070
           C         -1.466042151315     0.707759539319    -0.313667961917    12.000000000000
           H          0.119580848685     1.727510539319     0.735567038083     1.007825032070
           H         -1.215805151315     1.273163539319     1.743327038083     1.007825032070
           C         -0.695334151315     0.397554539319    -1.600093961917    12.000000000000
           H         -2.059485151315     1.605221539319    -0.472131961917     1.007825032070
           H         -2.177416151315    -0.093022460681    -0.116929961917     1.007825032070
           C         -1.603251151315     0.293817539319    -2.827254961917    12.000000000000
           H          0.048344848685     1.175129539319    -1.767837961917     1.007825032070
           H         -0.144283151315    -0.533840460681    -1.491382961917     1.007825032070
           C         -0.844504151315    -0.021073460681    -4.117711961917    12.000000000000
           H         -2.148942151315     1.227702539319    -2.951008961917     1.007825032070
           H         -2.353823151315    -0.476215460681    -2.655820961917     1.007825032070
           C         -1.757941151315    -0.119185460681    -5.339066961917    12.000000000000
           H         -0.093382151315     0.746892539319    -4.290008961917     1.007825032070
           H         -0.301901151315    -0.956437460681    -3.997477961917     1.007825032070
           H         -1.191298151315    -0.343190460681    -6.237589961917     1.007825032070
           H         -2.289265151315     0.813361539319    -5.507135961917     1.007825032070
           H         -2.499726151315    -0.902691460681    -5.211992961917     1.007825032070
           C          2.961519848685    -1.281013460681     2.700616038083    12.000000000000
           H          3.115418848685    -1.205871460681     1.633764038083     1.007825032070
           H          3.301612848685    -2.239433460681     3.060859038083     1.007825032070
           H          3.498456848685    -0.483569460681     3.193889038083     1.007825032070

  Charge       = 0
  Multiplicity = 1
  Basis Set: 6-31G*
  Basis Set:

    Orbital Energies (a.u.)
    -----------------------

    Doubly Occupied:

       1A    -20.586911     2A    -20.554133     3A    -11.373218
       4A    -11.293715     5A    -11.236002     6A    -11.219665
       7A    -11.218592     8A    -11.217829     9A    -11.217544
      10A    -11.216020    11A    -11.210436    12A     -1.463898
      13A     -1.366190    14A     -1.099051    15A     -1.066925
      16A     -1.016800    17A     -0.980313    18A     -0.936774
      19A     -0.865832    20A     -0.802039    21A     -0.792613
      22A     -0.764867    23A     -0.699456    24A     -0.681619
      25A     -0.672763    26A     -0.652856    27A     -0.626911
      28A     -0.618211    29A     -0.596653    30A     -0.588002
      31A     -0.569352    32A     -0.549306    33A     -0.545055
      34A     -0.530672    35A     -0.518639    36A     -0.502971
      37A     -0.493192    38A     -0.479798    39A     -0.473455
      40A     -0.464737    41A     -0.463832    42A     -0.451908
      43A     -0.441944    44A     -0.431503

  @DF-RHF Final Energy:  -501.02410594526111

   => Energetics <=

    Nuclear Repulsion Energy =            613.5149257536130563
    One-Electron Energy =               -1897.9738938192224396
    Two-Electron Energy =                 783.4348621203482708
    DFT Exchange-Correlation Energy =       0.0000000000000000
    Empirical Dispersion Energy =           0.0000000000000000
    PCM Polarization Energy =               0.0000000000000000
    EFP Energy =                            0.0000000000000000
    Total Energy =                       -501.0241059452612262

  Mulliken Charges: (a.u.)
   Center  Symbol    Alpha    Beta     Spin     Total
       1     O     4.26101  4.26101  0.00000 -0.52201
       2     C     2.61320  2.61320  0.00000  0.77359
       3     C     3.21226  3.21226  0.00000 -0.42453
       4     O     4.31134  4.31134  0.00000 -0.62267
       5     C     3.15493  3.15493  0.00000 -0.30986
       6     H     0.40628  0.40628  0.00000  0.18744
       7     H     0.39923  0.39923  0.00000  0.20155
       8     C     3.15630  3.15630  0.00000 -0.31260
       9     H     0.41446  0.41446  0.00000  0.17108
      10     H     0.40755  0.40755  0.00000  0.18491
      11     C     3.15485  3.15485  0.00000 -0.30971
      12     H     0.41819  0.41819  0.00000  0.16362
      13     H     0.42355  0.42355  0.00000  0.15289
      14     C     3.15025  3.15025  0.00000 -0.30050
      15     H     0.42312  0.42312  0.00000  0.15376
      16     H     0.42487  0.42487  0.00000  0.15026
      17     C     3.15145  3.15145  0.00000 -0.30289
      18     H     0.42293  0.42293  0.00000  0.15414
      19     H     0.42367  0.42367  0.00000  0.15266
      20     C     3.23938  3.23938  0.00000 -0.47877
      21     H     0.42297  0.42297  0.00000  0.15407
      22     H     0.42390  0.42390  0.00000  0.15221
      23     H     0.41919  0.41919  0.00000  0.16161
      24     H     0.42131  0.42131  0.00000  0.15739
      25     H     0.42164  0.42164  0.00000  0.15672
      26     C     3.09332  3.09332  0.00000 -0.18664
      27     H     0.42094  0.42094  0.00000  0.15812
      28     H     0.40203  0.40203  0.00000  0.19593
      29     H     0.40589  0.40589  0.00000  0.18822

   Total alpha = 44.00000, Total beta = 44.00000, Total charge = -0.00000
