  ==> Input File <==

--------------------------------------------------------------------------
set {
	reference rhf
	basis 6-31G*
}

set_num_threads( 4 )
memory 2 gb

molecule MOL {
0 1

O	 2.366887	 2.125256	 -0.026501
C	 1.273726	 2.597767	 -0.093517
C	 0.020094	 1.741413	 -0.091874
C	 1.065861	 4.095602	 -0.185364
C	 0.291004	 0.242674	 0.000989
H	 -0.607534	 2.071131	 0.735022
H	 -0.544549	 1.975450	 -0.993433
C	 -0.994322	 -0.586602	 0.000262
H	 0.861074	 0.039382	 0.902001
H	 0.923929	 -0.056512	 -0.828493
C	 -2.259874	 0.272531	 0.000494
H	 -1.004862	 -1.240012	 -0.870939
H	 -1.005220	 -1.241071	 0.870675
C	 -3.549786	 -0.549746	 -0.000374
H	 -2.250389	 0.926680	 -0.869574
H	 -2.250838	 0.925513	 0.871430
C	 -4.809590	 0.315458	 -0.000369
H	 -3.560515	 -1.202009	 -0.871156
H	 -3.561123	 -1.202955	 0.869711
H	 -4.844746	 0.956611	 -0.876632
H	 -5.706986	 -0.295590	 -0.001609
H	 -4.845960	 0.954827	 0.877144
H	 0.464247	 4.446556	 0.648008
H	 2.023126	 4.597993	 -0.176307
H	 0.532336	 4.348657	 -1.096928

	symmetry c1
}
set optking {
	frozen_dihedral = ("
		9 5 8 12
	")
}

ee = optimize('scf')
oeprop('DIPOLE', 'QUADRUPOLE', 'MULLIKEN_CHARGES')
f=open( 'psi4out.xyz', 'w' )
f.write( "25  " )
f.write( str(ee) + "\n" )
f.write( MOL.save_string_xyz() )
f.close()
--------------------------------------------------------------------------

    Molecular point group: c1
  Charge       = 0
  Multiplicity = 1
  Basis Set: 6-31G*
  Basis Set:
  @DF-RHF Final Energy:  -387.12093314403052
    Total Energy =                       -387.1209331440301185
    Molecular point group: c1
  Basis Set: 6-31G*
  Basis Set:
  Basis Set: 6-31G*
  Basis Set:
  @DF-RHF Final Energy:  -387.12067451370967
    Total Energy =                       -387.1206745137089911
  Basis Set: 6-31G*
  Basis Set:
  Basis Set: 6-31G*
  Basis Set:
  @DF-RHF Final Energy:  -387.12563333955876
    Total Energy =                       -387.1256333395590445
  Basis Set: 6-31G*
  Basis Set:
  Basis Set: 6-31G*
  Basis Set:
  @DF-RHF Final Energy:  -387.12645429187609
    Total Energy =                       -387.1264542918765983
  Basis Set: 6-31G*
  Basis Set:
  @DF-RHF Final Energy:  -387.12656906455351
    Total Energy =                       -387.1265690645534505
  Basis Set: 6-31G*
  Basis Set:
  @DF-RHF Final Energy:  -387.12629511236651
    Total Energy =                       -387.1262951123669609
  Basis Set: 6-31G*
  Basis Set:
  Basis Set: 6-31G*
  Basis Set:
  @DF-RHF Final Energy:  -387.12658696775378
    Total Energy =                       -387.1265869677536102
  Basis Set: 6-31G*
  Basis Set:
  Basis Set: 6-31G*
  Basis Set:
  @DF-RHF Final Energy:  -387.12660994045643
    Total Energy =                       -387.1266099404568877
  Basis Set: 6-31G*
  Basis Set:
  Charge       = 0
  Multiplicity = 1
  Basis Set: 6-31G*
  Basis Set:

    Orbital Energies (a.u.)
    -----------------------

    Doubly Occupied:

       1A    -20.550261     2A    -11.326091     3A    -11.231463
       4A    -11.228125     5A    -11.218084     6A    -11.217510
       7A    -11.217055     8A    -11.216558     9A    -11.211264
      10A     -1.395638    11A     -1.091992    12A     -1.055452
      13A     -1.013010    14A     -0.967917    15A     -0.900059
      16A     -0.817780    17A     -0.786373    18A     -0.726788
      19A     -0.660115    20A     -0.654513    21A     -0.632065
      22A     -0.621652    23A     -0.594903    24A     -0.584554
      25A     -0.568049    26A     -0.560130    27A     -0.543325
      28A     -0.526433    29A     -0.523015    30A     -0.494120
      31A     -0.489911    32A     -0.476903    33A     -0.461173
      34A     -0.449188    35A     -0.447552    36A     -0.400864

  @DF-RHF Final Energy:  -387.12660981764543

   => Energetics <=

    Nuclear Repulsion Energy =            445.5603141902990956
    One-Electron Energy =               -1407.6540773997271572
    Two-Electron Energy =                 574.9671533917828583
    DFT Exchange-Correlation Energy =       0.0000000000000000
    Empirical Dispersion Energy =           0.0000000000000000
    PCM Polarization Energy =               0.0000000000000000
    EFP Energy =                            0.0000000000000000
    Total Energy =                       -387.1266098176452033
    Molecular point group: c1
  Basis Set: 6-31G*
  Basis Set:

  -Total Gradient:
     Atom            X                  Y                   Z
    ------   -----------------  -----------------  -----------------
       1       -0.000024887921    -0.000022487573    -0.000013305086
       2        0.000005065215     0.000011836266     0.000047735315
       3        0.000004002217     0.000002746155    -0.000036756195
       4       -0.000010048424     0.000008619144    -0.000012296327
       5       -0.001221823142     0.001807415484     0.001706592859
       6       -0.000003997557     0.000010360035     0.000012400400
       7        0.000017486347     0.000009763210     0.000008057063
       8       -0.001008242470     0.001716407691    -0.001809918587
       9        0.001187319787    -0.001814230307    -0.001141459696
      10        0.000000786691    -0.000010217711    -0.000000704147
      11       -0.000006668469    -0.000006590110    -0.000055915508
      12        0.001092653797    -0.001732602923     0.001290620616
      13        0.000008288725    -0.000018107646    -0.000004366233
      14        0.000007320467     0.000022629265    -0.000007383168
      15       -0.000030486607    -0.000025360939     0.000001143595
      16       -0.000000573891     0.000021878258    -0.000004793699
      17       -0.000018632156     0.000000961994     0.000028048506
      18        0.000004402272     0.000015714726    -0.000002917671
      19        0.000018027592    -0.000005831375    -0.000008308429
      20        0.000001823570    -0.000007785468     0.000002650748
      21       -0.000012882625     0.000003720775     0.000008313746
      22       -0.000005747064     0.000006961740    -0.000004838862
      23       -0.000001771472     0.000002464660    -0.000001956601
      24       -0.000001494430    -0.000002586023     0.000000574768
      25        0.000000079535     0.000004320672    -0.000001217406

  **** Optimization is complete! (in 9 steps) ****
    Final optimized geometry and variables:
    Molecular point group: c1

    Geometry (in Angstrom), charge = 0, multiplicity = 1:

    O            3.190411633043     0.897577261490     0.081218560591
    C            2.148239551298     1.464797567135    -0.040624524823
    C            0.819244881126     0.729966453944    -0.079685491386
    C            2.082860489682     2.973563079028    -0.165956947580
    C            0.965559448923    -0.785422364261     0.050557477518
    H            0.196421433155     1.142221192207     0.710634411850
    H            0.325068455862     1.001289982724    -1.010181769308
    C           -0.344584462500    -1.620177174790     0.012623208387
    H            1.510079563698    -1.003662644639     0.961648179755
    H            1.620191639986    -1.121891059482    -0.745312440327
    C           -1.677169416134    -0.864404797978     0.046899723524
    H           -0.329149731098    -2.259290136703    -0.866188738571
    H           -0.332420902038    -2.306000206348     0.855857638153
    C           -2.880405334876    -1.809808882817     0.026800524659
    H           -1.750122471611    -0.186857874479    -0.800639675225
    H           -1.732081743002    -0.246133065949     0.940561866696
    C           -4.219213296092    -1.073716462660     0.066950315439
    H           -2.836053487942    -2.429372592267    -0.866280492708
    H           -2.817582859306    -2.490387954997     0.873060903062
    H           -4.328562935844    -0.410785649025    -0.786831753058
    H           -5.051675309542    -1.770354925269     0.052498129816
    H           -4.308851346690    -0.470681223842     0.966207608062
    H            1.483604144190     3.395098055810     0.635774858067
    H            3.081320264629     3.386162054274    -0.125273257443
    H            1.611944553150     3.256081919718    -1.102985037118

  Mulliken Charges: (a.u.)
   Center  Symbol    Alpha    Beta     Spin     Total
       1     O     4.26100  4.26100  0.00000 -0.52201
       2     C     2.73595  2.73595  0.00000  0.52809
       3     C     3.21285  3.21285  0.00000 -0.42570
       4     C     3.28626  3.28626  0.00000 -0.57251
       5     C     3.15366  3.15366  0.00000 -0.30732
       6     H     0.40868  0.40868  0.00000  0.18263
       7     H     0.40928  0.40928  0.00000  0.18144
       8     C     3.15835  3.15835  0.00000 -0.31670
       9     H     0.40943  0.40943  0.00000  0.18114
      10     H     0.40984  0.40984  0.00000  0.18031
      11     C     3.15440  3.15440  0.00000 -0.30880
      12     H     0.41976  0.41976  0.00000  0.16049
      13     H     0.41938  0.41938  0.00000  0.16124
      14     C     3.15113  3.15113  0.00000 -0.30226
      15     H     0.42469  0.42469  0.00000  0.15061
      16     H     0.42455  0.42455  0.00000  0.15089
      17     C     3.23925  3.23925  0.00000 -0.47849
      18     H     0.42227  0.42227  0.00000  0.15546
      19     H     0.42213  0.42213  0.00000  0.15574
      20     H     0.42229  0.42229  0.00000  0.15543
      21     H     0.41854  0.41854  0.00000  0.16292
      22     H     0.42212  0.42212  0.00000  0.15575
      23     H     0.40880  0.40880  0.00000  0.18240
      24     H     0.39653  0.39653  0.00000  0.20694
      25     H     0.40884  0.40884  0.00000  0.18231

   Total alpha = 36.00000, Total beta = 36.00000, Total charge =  0.00000
