  ==> Input File <==

--------------------------------------------------------------------------
set {
	reference rhf
	basis 6-31G*
}

set_num_threads( 1 )
memory 2 gb

molecule MOL {
0 1

H	 -3.301617	 0.570527	 0.000000
C	 -2.250981	 0.344174	 0.000000
C	 -1.813665	 -0.976045	 0.000000
C	 -1.315303	 1.358057	 0.000000
H	 -2.528860	 -1.779366	 0.000000
C	 -0.467298	 -1.270142	 0.000000
H	 -1.635074	 2.385107	 0.000000
C	 0.047081	 1.078114	 0.000000
H	 -0.115948	 -2.285222	 0.000000
C	 0.472063	 -0.241155	 0.000000
H	 0.749976	 1.888426	 0.000000
O	 1.765256	 -0.628444	 0.000000
C	 2.696949	 0.063147	 0.780207
H	 2.773664	 1.102747	 0.479078
H	 3.647173	 -0.423240	 0.617986
H	 2.447265	 0.012870	 1.834940

	symmetry c1
}
set optking {
	frozen_dihedral = ("
		10 12 13 14
	")
}

ee = energy('scf')
oeprop('DIPOLE', 'QUADRUPOLE', 'MULLIKEN_CHARGES')
f=open( 'psi4out.xyz', 'w' )
f.write( "16  " )
f.write( str(ee) + "\n" )
f.write( MOL.save_string_xyz() )
f.close()
--------------------------------------------------------------------------

    Molecular point group: c1

    Geometry (in Angstrom), charge = 0, multiplicity = 1:

       Center              X                  Y                   Z               Mass
    ------------   -----------------  -----------------  -----------------  -----------------
           H         -3.289713952777     0.610271962324    -0.113989582672     1.007825032070
           C         -2.239077952777     0.383918962324    -0.113989582672    12.000000000000
           C         -1.801761952777    -0.936300037676    -0.113989582672    12.000000000000
           C         -1.303399952777     1.397801962324    -0.113989582672    12.000000000000
           H         -2.516956952777    -1.739621037676    -0.113989582672     1.007825032070
           C         -0.455394952777    -1.230397037676    -0.113989582672    12.000000000000
           H         -1.623170952777     2.424851962324    -0.113989582672     1.007825032070
           C          0.058984047223     1.117858962324    -0.113989582672    12.000000000000
           H         -0.104044952777    -2.245477037676    -0.113989582672     1.007825032070
           C          0.483966047223    -0.201410037676    -0.113989582672    12.000000000000
           H          0.761879047223     1.928170962324    -0.113989582672     1.007825032070
           O          1.777159047223    -0.588699037676    -0.113989582672    15.994914619560
           C          2.708852047223     0.102891962324     0.666217417328    12.000000000000
           H          2.785567047223     1.142491962324     0.365088417328     1.007825032070
           H          3.659076047223    -0.383495037676     0.503996417328     1.007825032070
           H          2.459168047223     0.052614962324     1.720950417328     1.007825032070

  Charge       = 0
  Multiplicity = 1
  Basis Set: 6-31G*
  Basis Set:

    Orbital Energies (a.u.)
    -----------------------

    Doubly Occupied:

       1A    -20.578392     2A    -11.291046     3A    -11.278375
       4A    -11.232962     5A    -11.231178     6A    -11.225024
       7A    -11.221509     8A    -11.219850     9A     -1.410093
      10A     -1.145998    11A     -1.020216    12A     -1.013478
      13A     -0.938602    14A     -0.831081    15A     -0.805211
      16A     -0.718558    17A     -0.666053    18A     -0.663292
      19A     -0.647855    20A     -0.615352    21A     -0.589720
      22A     -0.579715    23A     -0.528438    24A     -0.512416
      25A     -0.506841    26A     -0.479135    27A     -0.449341
      28A     -0.334398    29A     -0.309518

  @DF-RHF Final Energy:  -344.58011114262314

   => Energetics <=

    Nuclear Repulsion Energy =            347.8893256750416754
    One-Electron Energy =               -1156.8514227580426450
    Two-Electron Energy =                 464.3819859403774331
    DFT Exchange-Correlation Energy =       0.0000000000000000
    Empirical Dispersion Energy =           0.0000000000000000
    PCM Polarization Energy =               0.0000000000000000
    EFP Energy =                            0.0000000000000000
    Total Energy =                       -344.5801111426235934

  Mulliken Charges: (a.u.)
   Center  Symbol    Alpha    Beta     Spin     Total
       1     H     0.40060  0.40060  0.00000  0.19880
       2     C     3.10958  3.10958  0.00000 -0.21917
       3     C     3.09383  3.09383  0.00000 -0.18767
       4     C     3.09319  3.09319  0.00000 -0.18638
       5     H     0.39900  0.39900  0.00000  0.20200
       6     C     3.12356  3.12356  0.00000 -0.24713
       7     H     0.39953  0.39953  0.00000  0.20094
       8     C     3.13519  3.13519  0.00000 -0.27037
       9     H     0.39320  0.39320  0.00000  0.21359
      10     C     2.78904  2.78904  0.00000  0.42192
      11     H     0.39741  0.39741  0.00000  0.20518
      12     O     4.32902  4.32902  0.00000 -0.65804
      13     C     3.08538  3.08538  0.00000 -0.17075
      14     H     0.42376  0.42376  0.00000  0.15248
      15     H     0.40782  0.40782  0.00000  0.18436
      16     H     0.41988  0.41988  0.00000  0.16024

   Total alpha = 29.00000, Total beta = 29.00000, Total charge = -0.00000
