  ==> Input File <==

--------------------------------------------------------------------------
set {
	reference rhf
	basis cc-pvtz
}

set_num_threads( 4 )
memory 2 gb

molecule MOL {
0 1

O	 -2.817697	 1.304178	 0.001046
C	 -2.664672	 0.129869	 0.003507
C	 -3.797908	 -0.860100	 -0.001145
O	 -1.481217	 -0.452708	 0.001092
H	 -4.408836	 -0.679689	 -0.875387
H	 -3.443486	 -1.878443	 -0.002770
H	 -4.412123	 -0.683688	 0.871605
C	 -0.332055	 0.384012	 -0.000250
C	 0.892252	 -0.506059	 -0.000295
H	 -0.360822	 1.020205	 -0.874146
H	 -0.359817	 1.021310	 0.872861
C	 1.662951	 -0.422947	 -1.314630
H	 0.582981	 -1.529814	 0.183952
H	 1.535568	 -0.219666	 0.825410
C	 2.902878	 -1.312426	 -1.337749
H	 1.008498	 -0.701316	 -2.136930
H	 1.959104	 0.607157	 -1.496714
C	 3.673973	 -1.228765	 -2.650540
H	 2.608016	 -2.342319	 -1.157654
H	 3.557711	 -1.035076	 -0.516556
H	 3.055314	 -1.533376	 -3.487987
H	 4.546908	 -1.870807	 -2.634026
H	 4.012087	 -0.215925	 -2.842078

	symmetry c1
}
set optking {
	frozen_dihedral = ("
		13 9 8 10
	")
}

ee = optimize('scf')
oeprop('DIPOLE', 'QUADRUPOLE', 'MULLIKEN_CHARGES')
f=open( 'psi4out.xyz', 'w' )
f.write( "23  " )
f.write( str(ee) + "\n" )
f.write( MOL.save_string_xyz() )
f.close()
--------------------------------------------------------------------------

    Molecular point group: c1
  Charge       = 0
  Multiplicity = 1
  Basis Set: CC-PVTZ
  Basis Set:
  @DF-RHF Final Energy:  -423.12896288691610
    Total Energy =                       -423.1289628869163835
    Molecular point group: c1
  Basis Set: CC-PVTZ
  Basis Set:
  Basis Set: CC-PVTZ
  Basis Set:
  @DF-RHF Final Energy:  -423.12912795489626
    Total Energy =                       -423.1291279548966031
  Basis Set: CC-PVTZ
  Basis Set:
  Basis Set: CC-PVTZ
  Basis Set:
  @DF-RHF Final Energy:  -423.12928955875770
    Total Energy =                       -423.1292895587580460
  Basis Set: CC-PVTZ
  Basis Set:
  Basis Set: CC-PVTZ
  Basis Set:
  @DF-RHF Final Energy:  -423.12942717280566
    Total Energy =                       -423.1294271728058902
  Basis Set: CC-PVTZ
  Basis Set:
  Basis Set: CC-PVTZ
  Basis Set:
  @DF-RHF Final Energy:  -423.12942828308820
    Total Energy =                       -423.1294282830883731
  Basis Set: CC-PVTZ
  Basis Set:
  Charge       = 0
  Multiplicity = 1
  Basis Set: CC-PVTZ
  Basis Set:

    Orbital Energies (a.u.)
    -----------------------

    Doubly Occupied:

       1A    -20.595563     2A    -20.529275     3A    -11.365969
       4A    -11.280051     5A    -11.230692     6A    -11.222333
       7A    -11.219474     8A    -11.218246     9A    -11.210385
      10A     -1.470387    11A     -1.363338    12A     -1.092798
      13A     -1.041816    14A     -1.003123    15A     -0.931508
      16A     -0.843357    17A     -0.800215    18A     -0.781634
      19A     -0.690828    20A     -0.684466    21A     -0.669515
      22A     -0.646129    23A     -0.609151    24A     -0.584354
      25A     -0.580750    26A     -0.573863    27A     -0.559392
      28A     -0.535526    29A     -0.528071    30A     -0.501691
      31A     -0.501095    32A     -0.474368    33A     -0.471373
      34A     -0.466367    35A     -0.447592    36A     -0.439006

  @DF-RHF Final Energy:  -423.12942885719713

   => Energetics <=

    Nuclear Repulsion Energy =            453.3716276085453956
    One-Electron Energy =               -1474.6747104148578273
    Two-Electron Energy =                 598.1736539491150779
    DFT Exchange-Correlation Energy =       0.0000000000000000
    Empirical Dispersion Energy =           0.0000000000000000
    PCM Polarization Energy =               0.0000000000000000
    EFP Energy =                            0.0000000000000000
    Total Energy =                       -423.1294288571973539
    Molecular point group: c1
  Basis Set: CC-PVTZ
  Basis Set:

  -Total Gradient:
     Atom            X                  Y                   Z
    ------   -----------------  -----------------  -----------------
       1        0.000009020530    -0.000041326130    -0.000000667330
       2       -0.000063176693     0.000048269987     0.000021127224
       3        0.000004386459     0.000002667794     0.000014612372
       4        0.000069018709     0.000052134523    -0.000012240758
       5       -0.000002075443    -0.000003416686    -0.000008630246
       6        0.000001573021     0.000001916961    -0.000000396503
       7       -0.000000666004     0.000002549389    -0.000009738507
       8        0.001529250160     0.002113707994     0.000999119214
       9        0.000033571842    -0.000073122088     0.002625552736
      10       -0.001277069128    -0.001771964343    -0.001240816155
      11       -0.000000906553    -0.000021571462     0.000002683528
      12       -0.000042145433     0.000025777844     0.000045550038
      13       -0.000280479179    -0.000341330519    -0.002405954907
      14        0.000001215256     0.000014875512    -0.000013412650
      15       -0.000014396846     0.000003237671     0.000003302837
      16        0.000003167743     0.000000749161     0.000004557375
      17       -0.000002801644    -0.000000168437    -0.000008800840
      18        0.000025180371    -0.000011513385    -0.000004013266
      19        0.000003794581     0.000003894717    -0.000000973817
      20       -0.000002670319    -0.000004086455    -0.000004605510
      21        0.000000050421    -0.000000661611     0.000004230086
      22        0.000008322504     0.000001093952    -0.000011688962
      23       -0.000002164359    -0.000001714388     0.000001204043

  **** Optimization is complete! (in 6 steps) ****
    Final optimized geometry and variables:
    Molecular point group: c1

    Geometry (in Angstrom), charge = 0, multiplicity = 1:

    O           -2.595475259367     1.623036710976     0.598207123344
    C           -2.432615570275     0.449827252098     0.589077066101
    C           -3.558869244799    -0.548346112420     0.565905333597
    O           -1.245244045435    -0.123595421756     0.598835187449
    H           -4.163878474643    -0.363984445264    -0.311692025291
    H           -3.197470237811    -1.564266185585     0.557869622532
    H           -4.181478811432    -0.384436126001     1.435218354886
    C           -0.100287996741     0.726593879767     0.621086484668
    C            1.149426709073    -0.153897915461     0.599696187039
    H           -0.150706127943     1.369417406013    -0.245715812489
    H           -0.151043519996     1.346379803290     1.503334508437
    C            1.911416433022    -0.089831448866    -0.722873626169
    H            0.844859960039    -1.177371948745     0.779957336724
    H            1.809707603419     0.131666342582     1.410921577432
    C            3.140431174751    -0.992662253004    -0.752089352759
    H            1.241091698481    -0.366493843764    -1.533043611532
    H            2.215515361040     0.936196944384    -0.915497870287
    C            3.901453185920    -0.925609526718    -2.071909670621
    H            2.835842248653    -2.018379739544    -0.563206857276
    H            3.806215947345    -0.718561461463     0.061850434000
    H            3.271844423268    -1.227388664602    -2.902246514859
    H            4.766897165604    -1.577918277984    -2.059391994913
    H            4.249854909310     0.082114398114    -2.272109988709

  Mulliken Charges: (a.u.)
   Center  Symbol    Alpha    Beta     Spin     Total
       1     O     4.20283  4.20283  0.00000 -0.40565
       2     C     2.81193  2.81193  0.00000  0.37614
       3     C     3.13896  3.13896  0.00000 -0.27792
       4     O     4.14799  4.14799  0.00000 -0.29599
       5     H     0.44223  0.44223  0.00000  0.11553
       6     H     0.44236  0.44236  0.00000  0.11529
       7     H     0.44204  0.44204  0.00000  0.11592
       8     C     2.98498  2.98498  0.00000  0.03005
       9     C     3.09158  3.09158  0.00000 -0.18316
      10     H     0.45344  0.45344  0.00000  0.09312
      11     H     0.44853  0.44853  0.00000  0.10293
      12     C     3.09242  3.09242  0.00000 -0.18484
      13     H     0.44657  0.44657  0.00000  0.10686
      14     H     0.44816  0.44816  0.00000  0.10368
      15     C     3.08658  3.08658  0.00000 -0.17316
      16     H     0.45165  0.45165  0.00000  0.09670
      17     H     0.45331  0.45331  0.00000  0.09338
      18     C     3.14953  3.14953  0.00000 -0.29906
      19     H     0.45348  0.45348  0.00000  0.09304
      20     H     0.45423  0.45423  0.00000  0.09154
      21     H     0.45461  0.45461  0.00000  0.09078
      22     H     0.44790  0.44790  0.00000  0.10421
      23     H     0.45468  0.45468  0.00000  0.09063

   Total alpha = 36.00000, Total beta = 36.00000, Total charge = -0.00000
