                              Psi4 1.0.54 Driver

  ==> Input File <==

--------------------------------------------------------------------------
set {
	reference rhf
	basis cc-pvtz
}

set_num_threads( 4 )
memory 2 gb

molecule MOL {
0 1

O	 -2.071633	 -1.227563	 -0.223463
C	 -1.652164	 -0.152425	 0.058082
C	 -0.327811	 0.006324	 0.778296
C	 -2.402515	 1.108629	 -0.298924
C	 0.664972	 0.816313	 -0.064156
H	 -0.477522	 0.491134	 1.737290
H	 0.069514	 -0.984895	 0.955652
C	 2.018833	 0.983251	 0.619527
H	 0.249951	 1.797733	 -0.279247
H	 0.796477	 0.319116	 -1.019073
C	 3.013547	 1.777446	 -0.220093
H	 1.880339	 1.476114	 1.577874
H	 2.431530	 0.002445	 0.836874
H	 2.643888	 2.776679	 -0.424834
H	 3.196447	 1.291790	 -1.172488
H	 3.964844	 1.875175	 0.289695
H	 -3.240910	 0.874416	 -0.936711
H	 -1.747554	 1.818823	 -0.790984
H	 -2.760419	 1.579708	 0.610998

	symmetry c1
}
set optking {
	frozen_dihedral = ("
		5 3 2 4
	")
}

ee,wfn = optimize('scf', return_wfn=True)
oeprop( wfn, 'DIPOLE', 'QUADRUPOLE', 'MULLIKEN_CHARGES')
f=open( 'psi4out.xyz', 'w' )
f.write( "19  " )
f.write( str(ee) + "\n" )
f.write( MOL.save_string_xyz() )
f.close()
--------------------------------------------------------------------------

    Molecular point group: c1
  Charge       = 0
  Multiplicity = 1
  Basis Set: CC-PVTZ
  Basis Set:
  @DF-RHF Final Energy:  -309.17519715417336
    Total Energy =                       -309.1751971541735884
    Molecular point group: c1
  Basis Set: CC-PVTZ
  Basis Set:
  Basis Set: CC-PVTZ
  Basis Set:
  @DF-RHF Final Energy:  -309.17574176351422
    Total Energy =                       -309.1757417635140541
  Basis Set: CC-PVTZ
  Basis Set:
  Basis Set: CC-PVTZ
  Basis Set:
  @DF-RHF Final Energy:  -309.17651943319248
    Total Energy =                       -309.1765194331924249
  Basis Set: CC-PVTZ
  Basis Set:
  Basis Set: CC-PVTZ
  Basis Set:
  @DF-RHF Final Energy:  -309.17659237362477
    Total Energy =                       -309.1765923736248851
  Basis Set: CC-PVTZ
  Basis Set:
  @DF-RHF Final Energy:  -309.17664387422019
    Total Energy =                       -309.1766438742201899
  @DF-RHF Final Energy:  -309.17671891476584
    Total Energy =                       -309.1767189147659565
  @DF-RHF Final Energy:  -309.17677378211931
    Total Energy =                       -309.1767737821194260
  @DF-RHF Final Energy:  -309.17666666602656
    Total Energy =                       -309.1766666660266196
  Basis Set: CC-PVTZ
  Basis Set:
  @DF-RHF Final Energy:  -309.17683804932375
    Total Energy =                       -309.1768380493237487
  Basis Set: CC-PVTZ
  Basis Set:
  Basis Set: CC-PVTZ
  Basis Set:
  @DF-RHF Final Energy:  -309.17683860914502
    Total Energy =                       -309.1768386091452498
  Basis Set: CC-PVTZ
  Basis Set:
  Basis Set: CC-PVTZ
  Basis Set:
  @DF-RHF Final Energy:  -309.17684102389319
    Total Energy =                       -309.1768410238934166
  Basis Set: CC-PVTZ
  Basis Set:
  Charge       = 0
  Multiplicity = 1
  Basis Set: CC-PVTZ
  Basis Set:

    Orbital Energies (a.u.)
    -----------------------

    Doubly Occupied:

       1A    -20.537359     2A    -11.319417     3A    -11.230973
       4A    -11.228418     5A    -11.226232     6A    -11.224774
       7A    -11.215025     8A     -1.397027     9A     -1.095421
      10A     -1.030289    11A     -0.983263    12A     -0.894652
      13A     -0.810020    14A     -0.734227    15A     -0.665500
      16A     -0.648314    17A     -0.628332    18A     -0.615153
      19A     -0.583369    20A     -0.575944    21A     -0.555681
      22A     -0.534736    23A     -0.510622    24A     -0.505132
      25A     -0.485945    26A     -0.478200    27A     -0.474228
      28A     -0.399585

  @DF-RHF Final Energy:  -309.17684142102195

   => Energetics <=

    Nuclear Repulsion Energy =            301.7393874207238582
    One-Electron Energy =               -1016.6567811308869977
    Two-Electron Energy =                 405.7405522891414194
    DFT Exchange-Correlation Energy =       0.0000000000000000
    Empirical Dispersion Energy =           0.0000000000000000
    PCM Polarization Energy =               0.0000000000000000
    EFP Energy =                            0.0000000000000000
    Total Energy =                       -309.1768414210217770
    Molecular point group: c1
  Basis Set: CC-PVTZ
  Basis Set:

  -Total Gradient:
     Atom            X                  Y                   Z
    ------   -----------------  -----------------  -----------------
       1        0.000004432316    -0.000004580294     0.000001620542
       2       -0.000113237300     0.000018217793     0.000170182629
       3        0.000086946866    -0.000124885039    -0.000120909728
       4        0.000078005121    -0.000005743772    -0.000101143230
       5       -0.000046150881     0.000090667208     0.000053778756
       6       -0.000001697013     0.000000185063     0.000002605456
       7       -0.000006069497     0.000002968794    -0.000003594342
       8        0.000003542315     0.000002001312    -0.000006066531
       9        0.000004158986    -0.000003637701    -0.000000371527
      10        0.000001764107     0.000003992199     0.000002442515
      11        0.000005236721     0.000000554305     0.000003370788
      12        0.000000015702     0.000000273156    -0.000004528482
      13       -0.000001760706     0.000002068828     0.000000721869
      14        0.000001017401    -0.000002438174     0.000000371920
      15       -0.000002090933     0.000000832159     0.000004178799
      16        0.000000290357     0.000001032959    -0.000003029119
      17       -0.000015418810    -0.000006771578    -0.000003220656
      18        0.000006377031     0.000008139734    -0.000018444776
      19       -0.000005361787     0.000017123047     0.000022035118

  **** Optimization is complete! (in 12 steps) ****
    Final optimized geometry and variables:
    Molecular point group: c1

    Geometry (in Angstrom), charge = 0, multiplicity = 1:

    O           -1.963944673174    -1.722434435977    -0.311347763646
    C           -1.559087082812    -0.638335505401    -0.042250609054
    C           -0.226602143541    -0.448345265988     0.653924572238
    C           -2.358414291648     0.598810764224    -0.387618198881
    C            0.781450257624     0.380738808186    -0.147668011957
    H           -0.411928727361     0.036678074979     1.609278364716
    H            0.170486762907    -1.434040810101     0.854511617232
    C            2.138654036802     0.474626821706     0.544182422191
    H            0.395917300804     1.382475847251    -0.309192245089
    H            0.910251715358    -0.064571867976    -1.130478863999
    C            3.153061430486     1.295213790866    -0.244799137164
    H            2.008220174421     0.911959151786     1.530205863329
    H            2.528567827101    -0.526203664772     0.703249258046
    H            2.806539584412     2.312991212579    -0.390023454631
    H            3.328613275312     0.863352048298    -1.224247285212
    H            4.104702603186     1.340917122312     0.271453193396
    H           -3.367756894081     0.314754604962    -0.643063414874
    H           -1.907294332835     1.095801762241    -1.239346039243
    H           -2.366105344300     1.304574818847     0.434726588589

  Mulliken Charges: (a.u.)
   Center  Symbol    Alpha    Beta     Spin     Total
       1     O     4.17269  4.17269  0.00000 -0.34538
       2     C     2.85779  2.85779  0.00000  0.28443
       3     C     3.09663  3.09663  0.00000 -0.19327
       4     C     3.16380  3.16380  0.00000 -0.32760
       5     C     3.10277  3.10277  0.00000 -0.20553
       6     H     0.44846  0.44846  0.00000  0.10308
       7     H     0.43854  0.43854  0.00000  0.12293
       8     C     3.08572  3.08572  0.00000 -0.17144
       9     H     0.45113  0.45113  0.00000  0.09774
      10     H     0.44581  0.44581  0.00000  0.10839
      11     C     3.14916  3.14916  0.00000 -0.29832
      12     H     0.45355  0.45355  0.00000  0.09289
      13     H     0.44972  0.44972  0.00000  0.10056
      14     H     0.45517  0.45517  0.00000  0.08965
      15     H     0.45342  0.45342  0.00000  0.09316
      16     H     0.44669  0.44669  0.00000  0.10663
      17     H     0.43242  0.43242  0.00000  0.13517
      18     H     0.44741  0.44741  0.00000  0.10517
      19     H     0.44912  0.44912  0.00000  0.10175

   Total alpha = 28.00000, Total beta = 28.00000, Total charge =  0.00000

*** Psi4 exiting successfully. Buy a developer a beer!
