                              Psi4 1.0.54 Driver

  ==> Input File <==

--------------------------------------------------------------------------
set {
	reference rhf
	basis cc-pvtz
}

set_num_threads( 4 )
memory 2 gb

molecule MOL {
0 1

H	 -2.171709	 0.882708	 0.500286
C	 -2.016894	 0.001719	 -0.114152
O	 -0.775228	 0.000056	 -0.739966
H	 -2.760846	 0.003757	 -0.898169
H	 -2.174774	 -0.879864	 0.498643
C	 0.222021	 0.915098	 -0.330732
C	 1.405624	 0.599272	 -1.238597
C	 -0.231204	 2.359707	 -0.550582
C	 0.612674	 0.688655	 1.131017
H	 1.126615	 0.733797	 -2.275979
H	 1.715318	 -0.429337	 -1.103848
H	 2.246761	 1.246063	 -1.019236
H	 -0.568374	 2.496793	 -1.570971
H	 0.591926	 3.040483	 -0.369225
H	 -1.036804	 2.640015	 0.116500
H	 0.869660	 -0.350959	 1.294880
H	 1.472675	 1.296500	 1.385572
H	 -0.185809	 0.955167	 1.812166

	symmetry c1
}
set optking {
	frozen_dihedral = ("
		6 3 2 5
	")
}

ee,wfn = optimize('scf', return_wfn=True)
oeprop( wfn, 'DIPOLE', 'QUADRUPOLE', 'MULLIKEN_CHARGES')
f=open( 'psi4out.xyz', 'w' )
f.write( "18  " )
f.write( str(ee) + "\n" )
f.write( MOL.save_string_xyz() )
f.close()
--------------------------------------------------------------------------

    Molecular point group: c1
  Charge       = 0
  Multiplicity = 1
  Basis Set: CC-PVTZ
  Basis Set:
  @DF-RHF Final Energy:  -271.27412283386684
    Total Energy =                       -271.2741228338667838
    Molecular point group: c1
  Basis Set: CC-PVTZ
  Basis Set:
  Basis Set: CC-PVTZ
  Basis Set:
  @DF-RHF Final Energy:  -271.27367764258304
    Total Energy =                       -271.2736776425830385
  Basis Set: CC-PVTZ
  Basis Set:
  Basis Set: CC-PVTZ
  Basis Set:
  @DF-RHF Final Energy:  -271.27437116819726
    Total Energy =                       -271.2743711681972627
  Basis Set: CC-PVTZ
  Basis Set:
  Basis Set: CC-PVTZ
  Basis Set:
  @DF-RHF Final Energy:  -271.27464116970935
    Total Energy =                       -271.2746411697093549
  Basis Set: CC-PVTZ
  Basis Set:
  Basis Set: CC-PVTZ
  Basis Set:
  @DF-RHF Final Energy:  -271.27463865342600
    Total Energy =                       -271.2746386534259955
  Basis Set: CC-PVTZ
  Basis Set:
  Basis Set: CC-PVTZ
  Basis Set:
  @DF-RHF Final Energy:  -271.27464668349586
    Total Energy =                       -271.2746466834960302
  Basis Set: CC-PVTZ
  Basis Set:
  Basis Set: CC-PVTZ
  Basis Set:
  @DF-RHF Final Energy:  -271.27464783317311
    Total Energy =                       -271.2746478331731623
  Basis Set: CC-PVTZ
  Basis Set:
  Charge       = 0
  Multiplicity = 1
  Basis Set: CC-PVTZ
  Basis Set:

    Orbital Energies (a.u.)
    -----------------------

    Doubly Occupied:

       1A    -20.538267     2A    -11.280762     3A    -11.258440
       4A    -11.207284     5A    -11.206814     6A    -11.201811
       7A     -1.371324     8A     -1.074138     9A     -0.946535
      10A     -0.940954    11A     -0.913525    12A     -0.753790
      13A     -0.656470    14A     -0.645531    15A     -0.640553
      16A     -0.590755    17A     -0.572246    18A     -0.552550
      19A     -0.538735    20A     -0.524837    21A     -0.515384
      22A     -0.491556    23A     -0.488211    24A     -0.439717
      25A     -0.404155

  @DF-RHF Final Energy:  -271.27464790337450

   => Energetics <=

    Nuclear Repulsion Energy =            272.5006198178471664
    One-Electron Energy =                -908.0418500210658976
    Two-Electron Energy =                 364.2665822998440035
    DFT Exchange-Correlation Energy =       0.0000000000000000
    Empirical Dispersion Energy =           0.0000000000000000
    PCM Polarization Energy =               0.0000000000000000
    EFP Energy =                            0.0000000000000000
    Total Energy =                       -271.2746479033746709
    Molecular point group: c1
  Basis Set: CC-PVTZ
  Basis Set:

  -Total Gradient:
     Atom            X                  Y                   Z
    ------   -----------------  -----------------  -----------------
       1        0.000008530417    -0.000003802985    -0.000006385562
       2        0.000428656125     0.001004105988     0.000940139634
       3        0.000359578030    -0.001218597181     0.000737016732
       4       -0.000020351821     0.000000591358     0.000010514091
       5       -0.000490947023    -0.000506916964    -0.001011969663
       6       -0.000274512026     0.000737653372    -0.000667304378
       7        0.000022373348     0.000004503118    -0.000004049196
       8       -0.000017003399    -0.000000604647     0.000004538674
       9       -0.000021225560    -0.000003112573     0.000010588146
      10        0.000003418391    -0.000004438046    -0.000001985659
      11        0.000002419781     0.000000404910     0.000002143173
      12        0.000003737125     0.000000045579    -0.000007637289
      13        0.000000592054    -0.000000053723     0.000013321460
      14       -0.000007550068    -0.000013022955    -0.000004254424
      15        0.000008355481     0.000003961870    -0.000004933730
      16        0.000002550504     0.000009939083    -0.000002301648
      17       -0.000017290915    -0.000006045599    -0.000012605203
      18        0.000008669553    -0.000004610607     0.000005164843

  **** Optimization is complete! (in 8 steps) ****
    Final optimized geometry and variables:
    Molecular point group: c1

    Geometry (in Angstrom), charge = 0, multiplicity = 1:

    H           -2.049372758289     0.101039085783     0.793947496756
    C           -1.892639450656    -0.717885965693     0.104822365170
    O           -0.633365538485    -0.703559484218    -0.494363338104
    H           -2.646191658387    -0.650054144424    -0.670513245367
    H           -2.043638036645    -1.649526567391     0.640025337838
    C            0.380021551072     0.154611951730    -0.010059810425
    C            1.593717745714    -0.181721637482    -0.869459724044
    C           -0.005286104997     1.621528684417    -0.211313509337
    C            0.687561771413    -0.135903853985     1.460046038747
    H            1.371257121634    -0.007197181557    -1.914437808366
    H            1.858353116662    -1.224680349781    -0.750860894889
    H            2.446366519367     0.426148770454    -0.590666217978
    H           -0.253236589731     1.802139476756    -1.250071341980
    H            0.820704010783     2.268194134648     0.060408321728
    H           -0.855070920729     1.908446248882     0.395345054857
    H            0.934430780237    -1.182544742892     1.590833378511
    H            1.530439533495     0.457586816238     1.793782322085
    H           -0.151451849802     0.097903276021     2.103854700299

  Mulliken Charges: (a.u.)
   Center  Symbol    Alpha    Beta     Spin     Total
       1     H     0.46821  0.46821  0.00000  0.06358
       2     C     3.04318  3.04318  0.00000 -0.08637
       3     O     4.19356  4.19356  0.00000 -0.38712
       4     H     0.45049  0.45049  0.00000  0.09902
       5     H     0.45704  0.45704  0.00000  0.08592
       6     C     2.87911  2.87911  0.00000  0.24178
       7     C     3.14290  3.14290  0.00000 -0.28580
       8     C     3.16073  3.16073  0.00000 -0.32146
       9     C     3.16055  3.16055  0.00000 -0.32111
      10     H     0.44880  0.44880  0.00000  0.10239
      11     H     0.44920  0.44920  0.00000  0.10161
      12     H     0.45922  0.45922  0.00000  0.08156
      13     H     0.44646  0.44646  0.00000  0.10709
      14     H     0.44897  0.44897  0.00000  0.10206
      15     H     0.44817  0.44817  0.00000  0.10367
      16     H     0.44658  0.44658  0.00000  0.10684
      17     H     0.44821  0.44821  0.00000  0.10358
      18     H     0.44862  0.44862  0.00000  0.10276

   Total alpha = 25.00000, Total beta = 25.00000, Total charge =  0.00000

*** Psi4 exiting successfully. Buy a developer a beer!
