  ==> Input File <==

--------------------------------------------------------------------------
set {
	reference rhf
	basis cc-pvtz
}

set_num_threads( 4 )
memory 2 gb

molecule MOL {
0 1

H	 -2.362939	 -1.309000	 -0.383250
C	 -1.359344	 -1.272457	 0.020748
C	 -0.684082	 0.000127	 -0.464918
H	 -0.825835	 -2.151141	 -0.318537
H	 -1.416276	 -1.292399	 1.099455
C	 -1.359089	 1.272668	 0.021259
N	 0.742439	 -0.000109	 0.007333
H	 -0.596914	 0.000345	 -1.538146
H	 -2.362696	 1.309620	 -0.382686
H	 -0.825392	 2.151374	 -0.317674
H	 -1.415983	 1.292181	 1.099973
O	 1.471656	 -0.806209	 -0.463930
O	 1.048968	 0.805935	 0.821350

	symmetry c1
}
set optking {
	frozen_dihedral = ("
		12 7 3 8
	")
}

ee = optimize('scf')
oeprop('DIPOLE', 'QUADRUPOLE', 'MULLIKEN_CHARGES')
f=open( 'psi4out.xyz', 'w' )
f.write( "13  " )
f.write( str(ee) + "\n" )
f.write( MOL.save_string_xyz() )
f.close()
--------------------------------------------------------------------------

    Molecular point group: c1
  Charge       = 0
  Multiplicity = 1
  Basis Set: CC-PVTZ
  Basis Set:
  @DF-RHF Final Energy:  -321.86268431199460
    Total Energy =                       -321.8626843119945988
    Molecular point group: c1
  Basis Set: CC-PVTZ
  Basis Set:
  Basis Set: CC-PVTZ
  Basis Set:
  @DF-RHF Final Energy:  -321.86066613188967
    Total Energy =                       -321.8606661318899569
  Basis Set: CC-PVTZ
  Basis Set:
  Basis Set: CC-PVTZ
  Basis Set:
  @DF-RHF Final Energy:  -321.86103593825669
    Total Energy =                       -321.8610359382566912
  Basis Set: CC-PVTZ
  Basis Set:
  Basis Set: CC-PVTZ
  Basis Set:
  @DF-RHF Final Energy:  -321.86316848678098
    Total Energy =                       -321.8631684867810918
  Basis Set: CC-PVTZ
  Basis Set:
  Basis Set: CC-PVTZ
  Basis Set:
  @DF-RHF Final Energy:  -321.86348977540797
    Total Energy =                       -321.8634897754079702
  Basis Set: CC-PVTZ
  Basis Set:
  Basis Set: CC-PVTZ
  Basis Set:
  @DF-RHF Final Energy:  -321.86350890340435
    Total Energy =                       -321.8635089034038401
  Basis Set: CC-PVTZ
  Basis Set:
  Charge       = 0
  Multiplicity = 1
  Basis Set: CC-PVTZ
  Basis Set:

    Orbital Energies (a.u.)
    -----------------------

    Doubly Occupied:

       1A    -20.591483     2A    -20.585827     3A    -15.833316
       4A    -11.305628     5A    -11.243690     6A    -11.237710
       7A     -1.634251     8A     -1.418305     9A     -1.141252
      10A     -0.970756    11A     -0.957704    12A     -0.815574
      13A     -0.760029    14A     -0.730606    15A     -0.725072
      16A     -0.645017    17A     -0.593142    18A     -0.587897
      19A     -0.570850    20A     -0.526812    21A     -0.521640
      22A     -0.484709    23A     -0.472001    24A     -0.451416

  @DF-RHF Final Energy:  -321.86350995962584

   => Energetics <=

    Nuclear Repulsion Energy =            257.3888991238520703
    One-Electron Energy =                -948.8954379458203903
    Two-Electron Energy =                 369.6430288623424758
    DFT Exchange-Correlation Energy =       0.0000000000000000
    Empirical Dispersion Energy =           0.0000000000000000
    PCM Polarization Energy =               0.0000000000000000
    EFP Energy =                            0.0000000000000000
    Total Energy =                       -321.8635099596258442
    Molecular point group: c1
  Basis Set: CC-PVTZ
  Basis Set:

  -Total Gradient:
     Atom            X                  Y                   Z
    ------   -----------------  -----------------  -----------------
       1        0.000004212976     0.000003935230    -0.000002905387
       2        0.000004056995    -0.000008171705     0.000013176373
       3       -0.000153255069    -0.001806106549     0.000330068647
       4        0.000002178619    -0.000005267407     0.000000784442
       5       -0.000000727274     0.000000978906    -0.000007252044
       6        0.000013741747    -0.000012124936     0.000004389642
       7        0.000405404846     0.001297301905    -0.001344112751
       8        0.000029816411     0.001308147613    -0.000010091146
       9        0.000006446556    -0.000004456431    -0.000002313182
      10        0.000003806832     0.000007918615     0.000000864370
      11       -0.000005015255     0.000002431694     0.000005472070
      12       -0.000344020863    -0.000799566464     0.000976627798
      13        0.000033353475     0.000014979531     0.000035291169

  **** Optimization is complete! (in 7 steps) ****
    Final optimized geometry and variables:
    Molecular point group: c1

    Geometry (in Angstrom), charge = 0, multiplicity = 1:

    H           -2.371118754828    -1.273437038099    -0.349794607430
    C           -1.354206122382    -1.253247320636     0.019356683293
    C           -0.683889572459     0.029364194491    -0.455124489035
    H           -0.833238485095    -2.123873347759    -0.348480607551
    H           -1.385179470500    -1.290077630732     1.101577294226
    C           -1.386797144593     1.289777209227     0.007456205801
    N            0.749160956633    -0.000825999545     0.012149488516
    H           -0.589671565153     0.022945054453    -1.530677424441
    H           -2.378384156524     1.302042167095    -0.428236121887
    H           -0.860816908036     2.177379723508    -0.312996893354
    H           -1.480759075680     1.318624124806     1.083334317585
    O            1.440030179003    -0.834137804349    -0.473239056280
    O            1.097325502314     0.777006460581     0.833417774763

  Mulliken Charges: (a.u.)
   Center  Symbol    Alpha    Beta     Spin     Total
       1     H     0.44908  0.44908  0.00000  0.10183
       2     C     3.14382  3.14382  0.00000 -0.28764
       3     C     3.00719  3.00719  0.00000 -0.01438
       4     H     0.43247  0.43247  0.00000  0.13505
       5     H     0.44536  0.44536  0.00000  0.10928
       6     C     3.14273  3.14273  0.00000 -0.28547
       7     N     3.27464  3.27464  0.00000  0.45072
       8     H     0.42834  0.42834  0.00000  0.14331
       9     H     0.45023  0.45023  0.00000  0.09955
      10     H     0.43847  0.43847  0.00000  0.12306
      11     H     0.44150  0.44150  0.00000  0.11700
      12     O     4.17616  4.17616  0.00000 -0.35233
      13     O     4.16999  4.16999  0.00000 -0.33998

   Total alpha = 24.00000, Total beta = 24.00000, Total charge = -0.00000
