  ==> Input File <==

--------------------------------------------------------------------------
set {
	reference rhf
	basis cc-pvtz
}

set_num_threads( 4 )
memory 2 gb

molecule MOL {
0 1

H	 1.166964	 -1.062386	 0.758429
O	 1.324748	 -0.612467	 -0.052206
C	 0.706474	 0.636793	 -0.025501
C	 1.475325	 1.700037	 0.706628
H	 -0.252914	 0.493913	 0.457679
H	 0.496064	 0.987011	 -1.034349
C	 2.586655	 1.516591	 1.384565
H	 1.044407	 2.686030	 0.648533
H	 3.036950	 0.546976	 1.479712
H	 3.075582	 2.334150	 1.879144

	symmetry c1
}
set optking {
	frozen_dihedral = ("
		5 3 2 1
	")
}

ee = optimize('scf')
oeprop('DIPOLE', 'QUADRUPOLE', 'MULLIKEN_CHARGES')
f=open( 'psi4out.xyz', 'w' )
f.write( "10  " )
f.write( str(ee) + "\n" )
f.write( MOL.save_string_xyz() )
f.close()
--------------------------------------------------------------------------

    Molecular point group: c1
  Charge       = 0
  Multiplicity = 1
  Basis Set: CC-PVTZ
  Basis Set:
  @DF-RHF Final Energy:  -191.99652672408496
    Total Energy =                       -191.9965267240850153
    Molecular point group: c1
  Basis Set: CC-PVTZ
  Basis Set:
  Basis Set: CC-PVTZ
  Basis Set:
  @DF-RHF Final Energy:  -191.99796383369426
    Total Energy =                       -191.9979638336942855
  Basis Set: CC-PVTZ
  Basis Set:
  Basis Set: CC-PVTZ
  Basis Set:
  @DF-RHF Final Energy:  -191.99837682509408
    Total Energy =                       -191.9983768250940557
  Basis Set: CC-PVTZ
  Basis Set:
  Basis Set: CC-PVTZ
  Basis Set:
  @DF-RHF Final Energy:  -191.99839012045655
    Total Energy =                       -191.9983901204564631
  Basis Set: CC-PVTZ
  Basis Set:
  Basis Set: CC-PVTZ
  Basis Set:
  @DF-RHF Final Energy:  -191.99839209497972
    Total Energy =                       -191.9983920949798915
  Basis Set: CC-PVTZ
  Basis Set:
  Charge       = 0
  Multiplicity = 1
  Basis Set: CC-PVTZ
  Basis Set:

    Orbital Energies (a.u.)
    -----------------------

    Doubly Occupied:

       1A    -20.554517     2A    -11.278464     3A    -11.227060
       4A    -11.213062     5A     -1.374559     6A     -1.060177
       7A     -0.930491     8A     -0.767844     9A     -0.697967
      10A     -0.661767    11A     -0.618362    12A     -0.575512
      13A     -0.530287    14A     -0.503261    15A     -0.450041
      16A     -0.366285

  @DF-RHF Final Energy:  -191.99839214695189

   => Energetics <=

    Nuclear Repulsion Energy =            119.4541298546709243
    One-Electron Energy =                -497.2857364430608413
    Two-Electron Energy =                 185.8332144414381446
    DFT Exchange-Correlation Energy =       0.0000000000000000
    Empirical Dispersion Energy =           0.0000000000000000
    PCM Polarization Energy =               0.0000000000000000
    EFP Energy =                            0.0000000000000000
    Total Energy =                       -191.9983921469518009
    Molecular point group: c1
  Basis Set: CC-PVTZ
  Basis Set:

  -Total Gradient:
     Atom            X                  Y                   Z
    ------   -----------------  -----------------  -----------------
       1       -0.001182248280    -0.000595499424    -0.000679390338
       2        0.001582883732     0.000778102226     0.001173707218
       3       -0.000855759128    -0.000452276161    -0.001660466814
       4        0.000017483675     0.000016829064    -0.000045468660
       5        0.000430294604     0.000230267094     0.001185258925
       6        0.000009218229     0.000020141129     0.000008854921
       7        0.000016051257     0.000012016625    -0.000027586644
       8       -0.000004687635     0.000000625651     0.000015096167
       9       -0.000005080001    -0.000003675129     0.000011909618
      10       -0.000008156453    -0.000006531080     0.000018085605

  **** Optimization is complete! (in 6 steps) ****
    Final optimized geometry and variables:
    Molecular point group: c1

    Geometry (in Angstrom), charge = 0, multiplicity = 1:

    H           -0.408876720315    -1.807103692612     0.291649359859
    O           -0.179945608060    -1.352729085923    -0.498085257226
    C           -0.789314155636    -0.097168159678    -0.520716580507
    C           -0.044092212841     0.962773789645     0.241368335029
    H           -1.804874154174    -0.151302537237    -0.134300546781
    H           -0.865435287725     0.198431895336    -1.560588468527
    C            1.107685893113     0.800140880436     0.852838951866
    H           -0.528784871041     1.925260425892     0.262652757319
    H            1.622221713593    -0.141205250989     0.839179697654
    H            1.575817391610     1.610953074690     1.377926091556

  Mulliken Charges: (a.u.)
   Center  Symbol    Alpha    Beta     Spin     Total
       1     H     0.39119  0.39119  0.00000  0.21763
       2     O     4.19878  4.19878  0.00000 -0.39756
       3     C     2.95172  2.95172  0.00000  0.09656
       4     C     3.08360  3.08360  0.00000 -0.16720
       5     H     0.46874  0.46874  0.00000  0.06253
       6     H     0.45417  0.45417  0.00000  0.09166
       7     C     3.17730  3.17730  0.00000 -0.35460
       8     H     0.42373  0.42373  0.00000  0.15254
       9     H     0.42233  0.42233  0.00000  0.15535
      10     H     0.42845  0.42845  0.00000  0.14309

   Total alpha = 16.00000, Total beta = 16.00000, Total charge = -0.00000
