  ==> Input File <==

--------------------------------------------------------------------------
set {
	reference rhf
	basis 6-31G*
}

set_num_threads( 1 )
memory 2 gb

molecule MOL {
0 1

H	 -2.172150	 0.880146	 0.502514
C	 -2.018062	 -0.000025	 -0.114509
O	 -0.774054	 0.001095	 -0.743181
H	 -2.760490	 0.003458	 -0.901350
H	 -2.173624	 -0.884374	 0.496163
C	 0.401091	 0.178117	 0.027682
C	 1.523781	 0.113578	 -1.005475
C	 0.406762	 1.544487	 0.720640
C	 0.566634	 -0.950487	 1.050405
H	 1.394707	 0.894637	 -1.746230
H	 1.505577	 -0.841973	 -1.517300
H	 2.494449	 0.237368	 -0.536282
H	 0.217323	 2.332170	 -0.000954
H	 1.371964	 1.728481	 1.181218
H	 -0.342696	 1.610169	 1.502019
H	 0.489937	 -1.915449	 0.560490
H	 1.539393	 -0.886170	 1.526994
H	 -0.181717	 -0.905371	 1.834348

	symmetry c1
}
set optking {
	frozen_dihedral = ("
		2 3 6 7
	")
}

ee = energy('scf')
oeprop('DIPOLE', 'QUADRUPOLE', 'MULLIKEN_CHARGES')
f=open( 'psi4out.xyz', 'w' )
f.write( "18  " )
f.write( str(ee) + "\n" )
f.write( MOL.save_string_xyz() )
f.close()
--------------------------------------------------------------------------

    Molecular point group: c1

    Geometry (in Angstrom), charge = 0, multiplicity = 1:

       Center              X                  Y                   Z               Mass
    ------------   -----------------  -----------------  -----------------  -----------------
           H         -2.167325741888     0.733518111453     0.511798553255     1.007825032070
           C         -2.013237741888    -0.146652888547    -0.105224446745    12.000000000000
           O         -0.769229741888    -0.145532888547    -0.733896446745    15.994914619560
           H         -2.755665741888    -0.143169888547    -0.892065446745     1.007825032070
           H         -2.168799741888    -1.031001888547     0.505447553255     1.007825032070
           C          0.405915258112     0.031489111453     0.036966553255    12.000000000000
           C          1.528605258112    -0.033049888547    -0.996190446745    12.000000000000
           C          0.411586258112     1.397859111453     0.729924553255    12.000000000000
           C          0.571458258112    -1.097114888547     1.059689553255    12.000000000000
           H          1.399531258112     0.748009111453    -1.736945446745     1.007825032070
           H          1.510401258112    -0.988600888547    -1.508015446745     1.007825032070
           H          2.499273258112     0.090740111453    -0.526997446745     1.007825032070
           H          0.222147258112     2.185542111453     0.008330553255     1.007825032070
           H          1.376788258112     1.581853111453     1.190502553255     1.007825032070
           H         -0.337871741888     1.463541111453     1.511303553255     1.007825032070
           H          0.494761258112    -2.062076888547     0.569774553255     1.007825032070
           H          1.544217258112    -1.032797888547     1.536278553255     1.007825032070
           H         -0.176892741888    -1.051998888547     1.843632553255     1.007825032070

  Charge       = 0
  Multiplicity = 1
  Basis Set: 6-31G*
  Basis Set:

    Orbital Energies (a.u.)
    -----------------------

    Doubly Occupied:

       1A    -20.546844     2A    -11.281317     3A    -11.260459
       4A    -11.208689     5A    -11.208650     6A    -11.203207
       7A     -1.370093     8A     -1.073041     9A     -0.945779
      10A     -0.939785    11A     -0.912407    12A     -0.752354
      13A     -0.655245    14A     -0.644259    15A     -0.637371
      16A     -0.592946    17A     -0.574761    18A     -0.552682
      19A     -0.534224    20A     -0.523709    21A     -0.514624
      22A     -0.487244    23A     -0.486463    24A     -0.438801
      25A     -0.404540

  @DF-RHF Final Energy:  -271.17535991789617

   => Energetics <=

    Nuclear Repulsion Energy =            272.2865676179830530
    One-Electron Energy =                -907.4245373431647295
    Two-Electron Energy =                 363.9626098072853893
    DFT Exchange-Correlation Energy =       0.0000000000000000
    Empirical Dispersion Energy =           0.0000000000000000
    PCM Polarization Energy =               0.0000000000000000
    EFP Energy =                            0.0000000000000000
    Total Energy =                       -271.1753599178962304

  Mulliken Charges: (a.u.)
   Center  Symbol    Alpha    Beta     Spin     Total
       1     H     0.42993  0.42993  0.00000  0.14013
       2     C     3.07950  3.07950  0.00000 -0.15901
       3     O     4.31849  4.31849  0.00000 -0.63698
       4     H     0.41304  0.41304  0.00000  0.17393
       5     H     0.42886  0.42886  0.00000  0.14227
       6     C     2.84244  2.84244  0.00000  0.31511
       7     C     3.23302  3.23302  0.00000 -0.46605
       8     C     3.24761  3.24761  0.00000 -0.49522
       9     C     3.24731  3.24731  0.00000 -0.49462
      10     H     0.41412  0.41412  0.00000  0.17176
      11     H     0.41410  0.41410  0.00000  0.17180
      12     H     0.42513  0.42513  0.00000  0.14973
      13     H     0.41326  0.41326  0.00000  0.17348
      14     H     0.41957  0.41957  0.00000  0.16087
      15     H     0.42020  0.42020  0.00000  0.15960
      16     H     0.41334  0.41334  0.00000  0.17332
      17     H     0.41975  0.41975  0.00000  0.16049
      18     H     0.42032  0.42032  0.00000  0.15937

   Total alpha = 25.00000, Total beta = 25.00000, Total charge = -0.00000
