                              Psi4 1.0.54 Driver

  ==> Input File <==

--------------------------------------------------------------------------
set {
	reference rhf
	basis cc-pvtz
}

set_num_threads( 4 )
memory 2 gb

molecule MOL {
0 1

H	 4.125920	 -0.552325	 -1.870971
C	 3.461800	 -0.837657	 -1.063729
C	 2.178835	 -0.014333	 -1.091882
H	 3.250004	 -1.896381	 -1.169961
H	 3.998719	 -0.700781	 -0.130992
C	 1.215950	 -0.382441	 0.027187
H	 1.672814	 -0.144794	 -2.041981
H	 2.427264	 1.041681	 -1.016426
N	 0.000002	 0.398953	 -0.040851
H	 0.947498	 -1.430885	 -0.061520
H	 1.722419	 -0.274628	 0.991007
C	 -1.215959	 -0.382435	 0.027143
H	 -0.000012	 1.086078	 0.683841
C	 -2.451944	 0.502410	 -0.038737
H	 -1.221867	 -1.069392	 -0.813828
H	 -1.259993	 -0.999709	 0.929424
C	 -3.752217	 -0.292550	 0.005776
H	 -2.407325	 1.093801	 -0.946480
H	 -2.431979	 1.206234	 0.790023
H	 -3.817783	 -0.982946	 -0.828547
H	 -4.612613	 0.364348	 -0.042306
H	 -3.830160	 -0.871666	 0.919868

	symmetry c1
}
set optking {
	frozen_dihedral = ("
		10 6 9 12
	")
}

ee,wfn = optimize('scf', return_wfn=True)
oeprop( wfn, 'DIPOLE', 'QUADRUPOLE', 'MULLIKEN_CHARGES')
f=open( 'psi4out.xyz', 'w' )
f.write( "22  " )
f.write( str(ee) + "\n" )
f.write( MOL.save_string_xyz() )
f.close()
--------------------------------------------------------------------------

    Molecular point group: c1
  Charge       = 0
  Multiplicity = 1
  Basis Set: CC-PVTZ
  Basis Set:
  @DF-RHF Final Energy:  -290.48560001659376
    Total Energy =                       -290.4856000165940486
    Molecular point group: c1
  Basis Set: CC-PVTZ
  Basis Set:
  Basis Set: CC-PVTZ
  Basis Set:
  @DF-RHF Final Energy:  -290.46915816360780
    Total Energy =                       -290.4691581636081992
  Basis Set: CC-PVTZ
  Basis Set:
  Basis Set: CC-PVTZ
  Basis Set:
  @DF-RHF Final Energy:  -290.48593098366797
    Total Energy =                       -290.4859309836682542
  Basis Set: CC-PVTZ
  Basis Set:
  Basis Set: CC-PVTZ
  Basis Set:
  @DF-RHF Final Energy:  -290.48610630443983
    Total Energy =                       -290.4861063044397156
  Basis Set: CC-PVTZ
  Basis Set:
  Basis Set: CC-PVTZ
  Basis Set:
  @DF-RHF Final Energy:  -290.48611080322524
    Total Energy =                       -290.4861108032251309
  Basis Set: CC-PVTZ
  Basis Set:
  Charge       = 0
  Multiplicity = 1
  Basis Set: CC-PVTZ
  Basis Set:

    Orbital Energies (a.u.)
    -----------------------

    Doubly Occupied:

       1A    -15.525719     2A    -11.237226     3A    -11.236599
       4A    -11.211738     5A    -11.207650     6A    -11.205565
       7A    -11.204445     8A     -1.203061     9A     -1.058257
      10A     -1.025881    11A     -0.928342    12A     -0.870786
      13A     -0.806381    14A     -0.794488    15A     -0.669678
      16A     -0.632030    17A     -0.615683    18A     -0.601009
      19A     -0.579961    20A     -0.559268    21A     -0.537965
      22A     -0.520093    23A     -0.511514    24A     -0.487897
      25A     -0.483548    26A     -0.471342    27A     -0.466064
      28A     -0.453012    29A     -0.354815

  @DF-RHF Final Energy:  -290.48611165084117

   => Energetics <=

    Nuclear Repulsion Energy =            313.9223858751613534
    One-Electron Energy =               -1013.8969574983661914
    Two-Electron Energy =                 409.4884599723635574
    DFT Exchange-Correlation Energy =       0.0000000000000000
    Empirical Dispersion Energy =           0.0000000000000000
    PCM Polarization Energy =               0.0000000000000000
    EFP Energy =                            0.0000000000000000
    Total Energy =                       -290.4861116508412806
    Molecular point group: c1
  Basis Set: CC-PVTZ
  Basis Set:

  -Total Gradient:
     Atom            X                  Y                   Z
    ------   -----------------  -----------------  -----------------
       1        0.000018873972    -0.000007310222    -0.000018341692
       2       -0.000042884410     0.000003830228    -0.000016390003
       3        0.000012524878     0.000012680019     0.000051460907
       4       -0.000005234971    -0.000011893986     0.000004132989
       5        0.000006116570     0.000011946071     0.000013642538
       6       -0.000166227877    -0.000423082646    -0.002439028696
       7       -0.000017859957    -0.000008941421    -0.000029652387
       8       -0.000005615098     0.000013088763     0.000004244595
       9        0.000277884075     0.000594124760     0.002007422000
      10        0.000074220332     0.000217270809     0.001573850649
      11        0.000018317859     0.000003415975     0.000012551614
      12       -0.000221325187    -0.000395198498    -0.001202757206
      13        0.000031573078     0.000003632014     0.000017564906
      14        0.000026871721    -0.000012681104     0.000016123542
      15        0.000002907182    -0.000008796260    -0.000005985387
      16        0.000006764704     0.000005098476     0.000014800477
      17       -0.000035548517     0.000023250580    -0.000026327889
      18        0.000009152017     0.000005749466    -0.000027307492
      19        0.000006959960     0.000015469492     0.000008220657
      20       -0.000002030902    -0.000018288937    -0.000006319074
      21        0.000006164119    -0.000005376809     0.000006967364
      22       -0.000001603549    -0.000017986772     0.000041127589

  **** Optimization is complete! (in 6 steps) ****
    Final optimized geometry and variables:
    Molecular point group: c1

    Geometry (in Angstrom), charge = 0, multiplicity = 1:

    H            3.981073112245    -0.479665591567    -2.116482156446
    C            3.464420514647    -0.636404147663    -1.176868537397
    C            2.114155264807     0.071593256684    -1.165883142979
    H            3.348814158230    -1.706913677264    -1.039701660027
    H            4.108156064968    -0.271555377056    -0.382788907807
    C            1.351456750712    -0.124835473978     0.138099899280
    H            1.497912255098    -0.285753408454    -1.984294968401
    H            2.253811671582     1.135441765729    -1.332184268087
    N            0.068494759933     0.561301588715     0.136068181096
    H            1.188923153930    -1.184578074974     0.308632783699
    H            1.971711749111     0.210697243373     0.968535557131
    C           -1.070006872478    -0.219215838926     0.570138927647
    H            0.121688357657     1.412387750490     0.650222882993
    C           -2.353489379167     0.595436589754     0.511193685502
    H           -1.161829077818    -1.076944436008    -0.088797107382
    H           -0.944128142043    -0.617524409246     1.581316680600
    C           -3.581401140230    -0.202820352028     0.935259168633
    H           -2.481221049885     0.968590360334    -0.498944557703
    H           -2.252442489957     1.467790140430     1.152732833234
    H           -3.728713536671    -1.065098015704     0.293484231821
    H           -4.477812229657     0.403611546988     0.882487559815
    H           -3.486231100039    -0.562554419176     1.954400322134

  Mulliken Charges: (a.u.)
   Center  Symbol    Alpha    Beta     Spin     Total
       1     H     0.44780  0.44780  0.00000  0.10441
       2     C     3.15578  3.15578  0.00000 -0.31156
       3     C     3.06676  3.06676  0.00000 -0.13352
       4     H     0.45612  0.45612  0.00000  0.08776
       5     H     0.45702  0.45702  0.00000  0.08596
       6     C     3.04140  3.04140  0.00000 -0.08280
       7     H     0.45522  0.45522  0.00000  0.08956
       8     H     0.45713  0.45713  0.00000  0.08575
       9     N     3.64395  3.64395  0.00000 -0.28791
      10     H     0.45744  0.45744  0.00000  0.08511
      11     H     0.45853  0.45853  0.00000  0.08295
      12     C     3.02213  3.02213  0.00000 -0.04426
      13     H     0.44263  0.44263  0.00000  0.11473
      14     C     3.08278  3.08278  0.00000 -0.16556
      15     H     0.45994  0.45994  0.00000  0.08012
      16     H     0.47422  0.47422  0.00000  0.05156
      17     C     3.15348  3.15348  0.00000 -0.30696
      18     H     0.44940  0.44940  0.00000  0.10119
      19     H     0.45956  0.45956  0.00000  0.08087
      20     H     0.45485  0.45485  0.00000  0.09029
      21     H     0.44770  0.44770  0.00000  0.10461
      22     H     0.45615  0.45615  0.00000  0.08769

   Total alpha = 29.00000, Total beta = 29.00000, Total charge = -0.00000

*** Psi4 exiting successfully. Buy a developer a beer!
