  ==> Input File <==

--------------------------------------------------------------------------
set {
	reference rhf
	basis cc-pvtz
}

set_num_threads( 4 )
memory 2 gb

molecule MOL {
0 1

H	 3.459101	 0.139266	 -0.762951
C	 2.749156	 -0.051729	 0.031265
C	 1.322304	 0.099773	 -0.484271
H	 2.929445	 -1.053887	 0.403481
H	 2.954281	 0.646699	 0.834672
C	 0.308557	 -0.162619	 0.622645
H	 1.143368	 -0.594400	 -1.295960
H	 1.169532	 1.100095	 -0.870217
N	 -1.069352	 -0.004081	 0.085342
H	 0.371632	 -1.172932	 0.991288
H	 0.400391	 0.548875	 1.426218
O	 -1.178405	 0.460222	 -0.999604
O	 -1.966873	 -0.325658	 0.789605

	symmetry c1
}
set optking {
	frozen_dihedral = ("
		12 9 6 3
	")
}

ee = optimize('scf')
oeprop('DIPOLE', 'QUADRUPOLE', 'MULLIKEN_CHARGES')
f=open( 'psi4out.xyz', 'w' )
f.write( "13  " )
f.write( str(ee) + "\n" )
f.write( MOL.save_string_xyz() )
f.close()
--------------------------------------------------------------------------

    Molecular point group: c1
  Charge       = 0
  Multiplicity = 1
  Basis Set: CC-PVTZ
  Basis Set:
  @DF-RHF Final Energy:  -321.85853768798097
    Total Energy =                       -321.8585376879809701
    Molecular point group: c1
  Basis Set: CC-PVTZ
  Basis Set:
  Basis Set: CC-PVTZ
  Basis Set:
  @DF-RHF Final Energy:  -321.85904379879486
    Total Energy =                       -321.8590437987948008
  Basis Set: CC-PVTZ
  Basis Set:
  Basis Set: CC-PVTZ
  Basis Set:
  @DF-RHF Final Energy:  -321.86034143007510
    Total Energy =                       -321.8603414300748682
  Basis Set: CC-PVTZ
  Basis Set:
  Basis Set: CC-PVTZ
  Basis Set:
  @DF-RHF Final Energy:  -321.86034737395750
    Total Energy =                       -321.8603473739573815
  Basis Set: CC-PVTZ
  Basis Set:
  Basis Set: CC-PVTZ
  Basis Set:
  @DF-RHF Final Energy:  -321.86047538938647
    Total Energy =                       -321.8604753893861812
  Basis Set: CC-PVTZ
  Basis Set:
  Basis Set: CC-PVTZ
  Basis Set:
  @DF-RHF Final Energy:  -321.86052315729705
    Total Energy =                       -321.8605231572970524
  Basis Set: CC-PVTZ
  Basis Set:
  Basis Set: CC-PVTZ
  Basis Set:
  @DF-RHF Final Energy:  -321.86052882910155
    Total Energy =                       -321.8605288291012698
  Basis Set: CC-PVTZ
  Basis Set:
  Charge       = 0
  Multiplicity = 1
  Basis Set: CC-PVTZ
  Basis Set:

    Orbital Energies (a.u.)
    -----------------------

    Doubly Occupied:

       1A    -20.593632     2A    -20.587564     3A    -15.838525
       4A    -11.299136     5A    -11.246960     6A    -11.234912
       7A     -1.637265     8A     -1.421366     9A     -1.131608
      10A     -1.026639    11A     -0.884911    12A     -0.826450
      13A     -0.762866    14A     -0.753267    15A     -0.730938
      16A     -0.657061    17A     -0.607561    18A     -0.575586
      19A     -0.554494    20A     -0.522261    21A     -0.509617
      22A     -0.488574    23A     -0.474501    24A     -0.453477

  @DF-RHF Final Energy:  -321.86052891412635

   => Energetics <=

    Nuclear Repulsion Energy =            247.6328988730105891
    One-Electron Energy =                -929.3485163588727573
    Two-Electron Energy =                 359.8550885717358483
    DFT Exchange-Correlation Energy =       0.0000000000000000
    Empirical Dispersion Energy =           0.0000000000000000
    PCM Polarization Energy =               0.0000000000000000
    EFP Energy =                            0.0000000000000000
    Total Energy =                       -321.8605289141262915
    Molecular point group: c1
  Basis Set: CC-PVTZ
  Basis Set:

  -Total Gradient:
     Atom            X                  Y                   Z
    ------   -----------------  -----------------  -----------------
       1       -0.000007045151    -0.000002645686    -0.000002618982
       2       -0.000006458592    -0.000013052041     0.000003016684
       3       -0.000016620370     0.000125137580     0.000030669279
       4        0.000002257501    -0.000001202361     0.000001983934
       5       -0.000005658839     0.000003625195    -0.000002334385
       6        0.000022595423    -0.000192900751    -0.000053343600
       7        0.000001067781    -0.000007247156    -0.000016637725
       8        0.000001915366    -0.000001453997     0.000005639138
       9        0.000039938960     0.000219978262     0.000088160464
      10       -0.000001783309     0.000001237776     0.000005357811
      11       -0.000003944558     0.000003013883     0.000001033928
      12       -0.000015396227    -0.000147417601    -0.000018736235
      13       -0.000010867981     0.000012926896    -0.000042190311

  **** Optimization is complete! (in 8 steps) ****
    Final optimized geometry and variables:
    Molecular point group: c1

    Geometry (in Angstrom), charge = 0, multiplicity = 1:

    H            3.510468316050     0.121567755387    -0.738869791117
    C            2.773677500271    -0.061540945989     0.032280002796
    C            1.364676067136     0.116758790674    -0.527167802664
    H            2.929149607382    -1.067615020837     0.405958061995
    H            2.967861464964     0.629374446637     0.845385755447
    C            0.330651821092    -0.139764395838     0.549241807884
    H            1.202960479893    -0.564272548762    -1.352719633908
    H            1.241263403965     1.117005841990    -0.917975017999
    N           -1.082184034649    -0.005062857221     0.081053006881
    H            0.388630540548    -1.136526526581     0.957754832434
    H            0.407642910549     0.559929013455     1.369433136201
    O           -1.285621976026     0.451482158442    -0.991351170457
    O           -1.916715160691    -0.362162773868     0.843763081571

  Mulliken Charges: (a.u.)
   Center  Symbol    Alpha    Beta     Spin     Total
       1     H     0.44125  0.44125  0.00000  0.11750
       2     C     3.15270  3.15270  0.00000 -0.30540
       3     C     3.09076  3.09076  0.00000 -0.18153
       4     H     0.45308  0.45308  0.00000  0.09384
       5     H     0.45315  0.45315  0.00000  0.09370
       6     C     3.04691  3.04691  0.00000 -0.09382
       7     H     0.44089  0.44089  0.00000  0.11822
       8     H     0.43799  0.43799  0.00000  0.12402
       9     N     3.27303  3.27303  0.00000  0.45394
      10     H     0.43259  0.43259  0.00000  0.13481
      11     H     0.43416  0.43416  0.00000  0.13168
      12     O     4.16911  4.16911  0.00000 -0.33823
      13     O     4.17437  4.17437  0.00000 -0.34875

   Total alpha = 24.00000, Total beta = 24.00000, Total charge = -0.00000
