  ==> Input File <==

--------------------------------------------------------------------------
set {
	reference rhf
	basis cc-pvtz
}

set_num_threads( 4 )
memory 2 gb

molecule MOL {
0 1

H	 -1.767255	 2.213056	 -0.919663
C	 -0.750139	 1.845184	 -0.953092
C	 -0.600949	 0.658697	 -0.000002
H	 -0.084601	 2.650971	 -0.674071
H	 -0.523723	 1.554633	 -1.970148
C	 0.763408	 0.112229	 -0.000006
H	 -0.839196	 0.948561	 1.014961
H	 -1.275844	 -0.141601	 -0.273814
N	 1.806008	 -0.317179	 0.000007

	symmetry c1
}
set optking {
	frozen_dihedral = ("
		7 3 6 9
	")
}

ee = optimize('scf')
oeprop('DIPOLE', 'QUADRUPOLE', 'MULLIKEN_CHARGES')
f=open( 'psi4out.xyz', 'w' )
f.write( "9  " )
f.write( str(ee) + "\n" )
f.write( MOL.save_string_xyz() )
f.close()
--------------------------------------------------------------------------

    Molecular point group: c1
  Charge       = 0
  Multiplicity = 1
  Basis Set: CC-PVTZ
  Basis Set:
  @DF-RHF Final Energy:  -171.02344482548912
    Total Energy =                       -171.0234448254890367
    Molecular point group: c1
  Basis Set: CC-PVTZ
  Basis Set:
  Basis Set: CC-PVTZ
  Basis Set:
  @DF-RHF Final Energy:  -170.67764391898939
    Total Energy =                       -170.6776439189893608
  Basis Set: CC-PVTZ
  Basis Set:
  Basis Set: CC-PVTZ
  Basis Set:
  @DF-RHF Final Energy:  -170.71260740766891
    Total Energy =                       -170.7126074076689406
  Basis Set: CC-PVTZ
  Basis Set:
  Basis Set: CC-PVTZ
  Basis Set:
  @DF-RHF Final Energy:  -170.82350017056558
    Total Energy =                       -170.8235001705655236
  Basis Set: CC-PVTZ
  Basis Set:
  @DF-RHF Final Energy:  -170.72384324775049
    Total Energy =                       -170.7238432477504944
  @DF-RHF Final Energy:  -170.84896448309263
    Total Energy =                       -170.8489644830926011
  @DF-RHF Final Energy:  -170.98007711658411
    Total Energy =                       -170.9800771165842548
  @DF-RHF Final Energy:  -170.98296491830962
    Total Energy =                       -170.9829649183096762
  @DF-RHF Final Energy:  -171.02157599520979
    Total Energy =                       -171.0215759952097869
  @DF-RHF Final Energy:  -171.02072967534099
    Total Energy =                       -171.0207296753410446
  @DF-RHF Final Energy:  -171.02209232403661
    Total Energy =                       -171.0220923240366915
  @DF-RHF Final Energy:  -171.02310323399723
    Total Energy =                       -171.0231032339972899
  @DF-RHF Final Energy:  -171.02310486319948
    Total Energy =                       -171.0231048631995350
  @DF-RHF Final Energy:  -171.02326040479298
    Total Energy =                       -171.0232604047930067
  @DF-RHF Final Energy:  -171.02334949011595
    Total Energy =                       -171.0233494901159190
  @DF-RHF Final Energy:  -171.02341071127933
    Total Energy =                       -171.0234107112793538
  @DF-RHF Final Energy:  -171.02345755694120
    Total Energy =                       -171.0234575569411675
  @DF-RHF Final Energy:  -171.02344561308780
    Total Energy =                       -171.0234456130877447
  @DF-RHF Final Energy:  -171.02343889695447
    Total Energy =                       -171.0234388969545307
  @DF-RHF Final Energy:  -171.02344558829145
    Total Energy =                       -171.0234455882912812
  @DF-RHF Final Energy:  -171.02345678265132
    Total Energy =                       -171.0234567826511807
  @DF-RHF Final Energy:  -171.02345675363168
    Total Energy =                       -171.0234567536317059
  @DF-RHF Final Energy:  -171.02345662079978
    Total Energy =                       -171.0234566207997773
  @DF-RHF Final Energy:  -171.02345692376142
    Total Energy =                       -171.0234569237613869
  @DF-RHF Final Energy:  -171.02345763619684
    Total Energy =                       -171.0234576361968948
  @DF-RHF Final Energy:  -171.02345731280400
    Total Energy =                       -171.0234573128040552
  @DF-RHF Final Energy:  -171.02345755785825
    Total Energy =                       -171.0234575578581939
  @DF-RHF Final Energy:  -171.02345738081056
    Total Energy =                       -171.0234573808104983
  @DF-RHF Final Energy:  -171.02345735321319
    Total Energy =                       -171.0234573532132458
  @DF-RHF Final Energy:  -171.02345733458378
    Total Energy =                       -171.0234573345837816
  @DF-RHF Final Energy:  -171.02345732406354
    Total Energy =                       -171.0234573240634859
  @DF-RHF Final Energy:  -171.02345731850170
    Total Energy =                       -171.0234573185016416
  @DF-RHF Final Energy:  -171.02345731564981
    Total Energy =                       -171.0234573156497504
  @DF-RHF Final Energy:  -171.02345842101653
    Total Energy =                       -171.0234584210165849
  @DF-RHF Final Energy:  -171.02344577027441
    Total Energy =                       -171.0234457702745203
  @DF-RHF Final Energy:  -171.02344609951459
    Total Energy =                       -171.0234460995145014
  Basis Set: CC-PVTZ
  Basis Set:
  @DF-RHF Final Energy:  -171.02344921908349
    Total Energy =                       -171.0234492190834601
  Basis Set: CC-PVTZ
  Basis Set:
  Basis Set: CC-PVTZ
  Basis Set:
  @DF-RHF Final Energy:  -171.02344809472774
    Total Energy =                       -171.0234480947277689
  Basis Set: CC-PVTZ
  Basis Set:
  Basis Set: CC-PVTZ
  Basis Set:
  @DF-RHF Final Energy:  -171.02344972260272
    Total Energy =                       -171.0234497226027770
  Basis Set: CC-PVTZ
  Basis Set:
  Charge       = 0
  Multiplicity = 1
  Basis Set: CC-PVTZ
  Basis Set:

    Orbital Energies (a.u.)
    -----------------------

    Doubly Occupied:

       1A    -15.556476     2A    -11.282858     3A    -11.261100
       4A    -11.244951     5A     -1.229096     6A     -1.084077
       7A     -0.913157     8A     -0.699906     9A     -0.661160
      10A     -0.589694    11A     -0.562954    12A     -0.545345
      13A     -0.539935    14A     -0.463974    15A     -0.463858

  @DF-RHF Final Energy:  -171.02344783852425

   => Energetics <=

    Nuclear Repulsion Energy =            103.6830902990381986
    One-Electron Energy =                -435.2159971173360873
    Two-Electron Energy =                 160.5094589797736262
    DFT Exchange-Correlation Energy =       0.0000000000000000
    Empirical Dispersion Energy =           0.0000000000000000
    PCM Polarization Energy =               0.0000000000000000
    EFP Energy =                            0.0000000000000000
    Total Energy =                       -171.0234478385242483
    Molecular point group: c1
  Basis Set: CC-PVTZ
  Basis Set:

  -Total Gradient:
     Atom            X                  Y                   Z
    ------   -----------------  -----------------  -----------------
       1       -0.000785304998     0.000287181758    -0.000023330337
       2        0.000472258928     0.000117941011     0.000685464402
       3       -0.000551471092    -0.000770556432    -0.000430979470
       4        0.000019474527     0.000113384440    -0.000027350504
       5        0.000264615913    -0.000244203326    -0.000905719256
       6        0.000969499247     0.000622498395    -0.000436816974
       7        0.000012435820     0.000251258423     0.000990043497
       8        0.000065711370     0.000023457290    -0.000121593026
       9       -0.000467219716    -0.000400961557     0.000270281667

    Molecular point group: c1

    Geometry (in Angstrom), charge = 0, multiplicity = 1:

    H           -2.017264623795     1.586771922226    -0.667646045676
    C           -0.998685148375     1.221492410239    -0.695699372897
    C           -0.851179827268     0.036367605012     0.259246459959
    H           -0.336839997997     2.029992335511    -0.415218912642
    H           -0.766713579569     0.929962495624    -1.711660993803
    C            0.512148846559    -0.514011157915     0.259923027360
    H           -1.087330884294     0.328643502102     1.274254593038
    H           -1.527781142629    -0.763162786722    -0.012711627733
    N            1.559186761980    -0.933407329536     0.261609504709

  Mulliken Charges: (a.u.)
   Center  Symbol    Alpha    Beta     Spin     Total
       1     H     0.44625  0.44625  0.00000  0.10750
       2     C     3.13538  3.13538  0.00000 -0.27077
       3     C     3.07934  3.07934  0.00000 -0.15867
       4     H     0.44480  0.44480  0.00000  0.11039
       5     H     0.44506  0.44506  0.00000  0.10988
       6     C     3.04263  3.04263  0.00000 -0.08526
       7     H     0.43222  0.43222  0.00000  0.13555
       8     H     0.43187  0.43187  0.00000  0.13627
       9     N     3.54245  3.54245  0.00000 -0.08489

   Total alpha = 15.00000, Total beta = 15.00000, Total charge = -0.00000
