                              Psi4 1.0.54 Driver

  ==> Input File <==

--------------------------------------------------------------------------
set {
	reference rhf
	basis cc-pvtz
}

set_num_threads( 4 )
memory 2 gb

molecule MOL {
0 1

H	 3.775371	 -0.575035	 0.521861
O	 2.880222	 -0.779864	 0.746472
C	 2.076458	 -0.067370	 -0.038225
C	 0.626018	 -0.337582	 0.258241
O	 2.495083	 0.676355	 -0.856435
C	 -0.267326	 0.883135	 0.076490
H	 0.325620	 -1.161483	 -0.378003
H	 0.574537	 -0.713685	 1.275261
C	 -1.726822	 0.642622	 0.463839
H	 -0.210803	 1.217591	 -0.953497
H	 0.129920	 1.693110	 0.675679
C	 -2.480891	 -0.340606	 -0.429852
H	 -2.243098	 1.597649	 0.438609
H	 -1.776542	 0.301208	 1.495542
C	 -3.955933	 -0.460128	 -0.060472
H	 -2.393755	 -0.020485	 -1.464726
H	 -2.024244	 -1.323637	 -0.374360
H	 -4.467673	 -1.160944	 -0.709827
H	 -4.458917	 0.497287	 -0.144505
H	 -4.076458	 -0.806900	 0.960497

	symmetry c1
}
set optking {
	frozen_dihedral = ("
		5 3 4 7
	")
}

ee,wfn = optimize('scf', return_wfn=True)
oeprop( wfn, 'DIPOLE', 'QUADRUPOLE', 'MULLIKEN_CHARGES')
f=open( 'psi4out.xyz', 'w' )
f.write( "20  " )
f.write( str(ee) + "\n" )
f.write( MOL.save_string_xyz() )
f.close()
--------------------------------------------------------------------------

    Molecular point group: c1
  Charge       = 0
  Multiplicity = 1
  Basis Set: CC-PVTZ
  Basis Set:
  @DF-RHF Final Energy:  -384.09381153935715
    Total Energy =                       -384.0938115393572616
    Molecular point group: c1
  Basis Set: CC-PVTZ
  Basis Set:
  Basis Set: CC-PVTZ
  Basis Set:
  @DF-RHF Final Energy:  -384.09304397774116
    Total Energy =                       -384.0930439777413312
  Basis Set: CC-PVTZ
  Basis Set:
  Basis Set: CC-PVTZ
  Basis Set:
  @DF-RHF Final Energy:  -384.09398469783883
    Total Energy =                       -384.0939846978387209
  Basis Set: CC-PVTZ
  Basis Set:
  Basis Set: CC-PVTZ
  Basis Set:
  @DF-RHF Final Energy:  -384.09422469439590
    Total Energy =                       -384.0942246943963596
  Basis Set: CC-PVTZ
  Basis Set:
  Basis Set: CC-PVTZ
  Basis Set:
  @DF-RHF Final Energy:  -384.09423582414661
    Total Energy =                       -384.0942358241462671
  Basis Set: CC-PVTZ
  Basis Set:
  Basis Set: CC-PVTZ
  Basis Set:
  @DF-RHF Final Energy:  -384.09423779476589
    Total Energy =                       -384.0942377947659452
  Basis Set: CC-PVTZ
  Basis Set:
  Basis Set: CC-PVTZ
  Basis Set:
  @DF-RHF Final Energy:  -384.09423802753724
    Total Energy =                       -384.0942380275372443
  Basis Set: CC-PVTZ
  Basis Set:
  Charge       = 0
  Multiplicity = 1
  Basis Set: CC-PVTZ
  Basis Set:

    Orbital Energies (a.u.)
    -----------------------

    Doubly Occupied:

       1A    -20.605019     2A    -20.538872     3A    -11.373357
       4A    -11.238228     5A    -11.223005     6A    -11.219225
       7A    -11.218447     8A    -11.210664     9A     -1.477721
      10A     -1.368401    11A     -1.097858    12A     -1.042084
      13A     -0.962194    14A     -0.869784    15A     -0.819583
      16A     -0.779617    17A     -0.704460    18A     -0.692524
      19A     -0.663461    20A     -0.634853    21A     -0.609645
      22A     -0.596724    23A     -0.577316    24A     -0.557531
      25A     -0.540034    26A     -0.514883    27A     -0.496246
      28A     -0.484980    29A     -0.471160    30A     -0.468465
      31A     -0.460173    32A     -0.443397

  @DF-RHF Final Energy:  -384.09423861854793

   => Energetics <=

    Nuclear Repulsion Energy =            376.6144202217572001
    One-Electron Energy =               -1269.4974922626693115
    Two-Electron Energy =                 508.7888334223639504
    DFT Exchange-Correlation Energy =       0.0000000000000000
    Empirical Dispersion Energy =           0.0000000000000000
    PCM Polarization Energy =               0.0000000000000000
    EFP Energy =                            0.0000000000000000
    Total Energy =                       -384.0942386185481610
    Molecular point group: c1
  Basis Set: CC-PVTZ
  Basis Set:

  -Total Gradient:
     Atom            X                  Y                   Z
    ------   -----------------  -----------------  -----------------
       1       -0.000005390241    -0.000004202737     0.000001856476
       2        0.000009778236     0.000010009629    -0.000011076848
       3       -0.000014165550     0.001451433519     0.001037409732
       4        0.000366924580    -0.001290011309     0.000565643384
       5       -0.000021582614    -0.000902348904    -0.000811392443
       6       -0.000001045738    -0.000004197648    -0.000003805334
       7       -0.000323396259     0.000735204264    -0.000780945329
       8       -0.000006617438     0.000000544485    -0.000000074223
       9       -0.000001289726     0.000002164000    -0.000000814529
      10        0.000000414265    -0.000000817072     0.000001223847
      11        0.000000336040     0.000001195578     0.000000833758
      12       -0.000000443540     0.000001503837    -0.000000749585
      13       -0.000003337045     0.000001144584     0.000000222573
      14       -0.000000141485    -0.000000373141     0.000000363911
      15        0.000000737043    -0.000000985413     0.000001390272
      16        0.000000137674     0.000000625421     0.000000286419
      17       -0.000000256356    -0.000000570103     0.000000387228
      18       -0.000000608293    -0.000001243853    -0.000000803070
      19        0.000000108392     0.000000883210    -0.000000483844
      20       -0.000000161952     0.000000041653     0.000000527607

  **** Optimization is complete! (in 8 steps) ****
    Final optimized geometry and variables:
    Molecular point group: c1

    Geometry (in Angstrom), charge = 0, multiplicity = 1:

    H            3.787270045545    -0.642805777740     0.371508328562
    O            2.905538153915    -0.824106371177     0.661209920184
    C            2.069004316744    -0.074841412001    -0.049743220310
    C            0.627298368154    -0.343364123003     0.291805117490
    O            2.450247463674     0.679753441358    -0.877055862516
    C           -0.268781854184     0.873978624361     0.075862369463
    H            0.323613331601    -1.161524560494    -0.353170638695
    H            0.569418792200    -0.704991355239     1.309975529243
    C           -1.733655549182     0.634405389791     0.442744838160
    H           -0.191755123142     1.192197742197    -0.956399272524
    H            0.112051889097     1.694422648408     0.674764678223
    C           -2.470055061131    -0.360129904583    -0.453179602479
    H           -2.251115905201     1.588131182054     0.397828440192
    H           -1.800351081996     0.304543311878     1.477134491730
    C           -3.950030882274    -0.482249370786    -0.104505526130
    H           -2.368284692791    -0.049663053597    -1.489532834738
    H           -2.010689167506    -1.340811963592    -0.381156171585
    H           -4.448327806266    -1.193877177829    -0.752523265073
    H           -4.456378476993     0.471418189400    -0.208586817597
    H           -4.084527727594    -0.816556102236     0.918893842525

  Mulliken Charges: (a.u.)
   Center  Symbol    Alpha    Beta     Spin     Total
       1     H     0.38135  0.38135  0.00000  0.23730
       2     O     4.15845  4.15845  0.00000 -0.31690
       3     C     2.80850  2.80850  0.00000  0.38300
       4     C     3.10189  3.10189  0.00000 -0.20379
       5     O     4.19466  4.19466  0.00000 -0.38932
       6     C     3.09673  3.09673  0.00000 -0.19346
       7     H     0.44152  0.44152  0.00000  0.11695
       8     H     0.43619  0.43619  0.00000  0.12763
       9     C     3.09796  3.09796  0.00000 -0.19593
      10     H     0.44001  0.44001  0.00000  0.11997
      11     H     0.44410  0.44410  0.00000  0.11181
      12     C     3.08715  3.08715  0.00000 -0.17429
      13     H     0.44586  0.44586  0.00000  0.10828
      14     H     0.45396  0.45396  0.00000  0.09208
      15     C     3.14957  3.14957  0.00000 -0.29913
      16     H     0.45131  0.45131  0.00000  0.09739
      17     H     0.45468  0.45468  0.00000  0.09064
      18     H     0.44759  0.44759  0.00000  0.10481
      19     H     0.45364  0.45364  0.00000  0.09273
      20     H     0.45487  0.45487  0.00000  0.09026

   Total alpha = 32.00000, Total beta = 32.00000, Total charge =  0.00000

*** Psi4 exiting successfully. Buy a developer a beer!
