                              Psi4 1.0.54 Driver

  ==> Input File <==

--------------------------------------------------------------------------
set {
	reference rhf
	basis cc-pvtz
}

set_num_threads( 4 )
memory 2 gb

molecule MOL {
0 1

H	 -1.835082	 1.385983	 0.000069
C	 -1.300516	 0.441153	 -0.000028
O	 -0.006604	 0.654344	 -0.000106
O	 -1.828920	 -0.612308	 0.000113
C	 0.852093	 -0.482521	 -0.000161
C	 2.136375	 -0.090286	 -0.691155
H	 0.355788	 -1.295029	 -0.511501
H	 1.026033	 -0.788886	 1.021528
H	 1.946639	 0.217731	 -1.711497
H	 2.813740	 -0.935710	 -0.708165
H	 2.620245	 0.726442	 -0.170774

	symmetry c1
}
set optking {
	frozen_dihedral = ("
		7 5 3 2
	")
}

ee,wfn = optimize('scf', return_wfn=True)
oeprop( wfn, 'DIPOLE', 'QUADRUPOLE', 'MULLIKEN_CHARGES')
f=open( 'psi4out.xyz', 'w' )
f.write( "11  " )
f.write( str(ee) + "\n" )
f.write( MOL.save_string_xyz() )
f.close()
--------------------------------------------------------------------------

    Molecular point group: c1
  Charge       = 0
  Multiplicity = 1
  Basis Set: CC-PVTZ
  Basis Set:
  @DF-RHF Final Energy:  -266.93067974002929
    Total Energy =                       -266.9306797400291202
    Molecular point group: c1
  Basis Set: CC-PVTZ
  Basis Set:
  Basis Set: CC-PVTZ
  Basis Set:
  @DF-RHF Final Energy:  -266.93076671232865
    Total Energy =                       -266.9307667123287047
  Basis Set: CC-PVTZ
  Basis Set:
  Basis Set: CC-PVTZ
  Basis Set:
  @DF-RHF Final Energy:  -266.93041405495188
    Total Energy =                       -266.9304140549520525
  Basis Set: CC-PVTZ
  Basis Set:
  Basis Set: CC-PVTZ
  Basis Set:
  @DF-RHF Final Energy:  -266.93085316434531
    Total Energy =                       -266.9308531643453080
  Basis Set: CC-PVTZ
  Basis Set:
  Basis Set: CC-PVTZ
  Basis Set:
  @DF-RHF Final Energy:  -266.93090297293872
    Total Energy =                       -266.9309029729386111
  Basis Set: CC-PVTZ
  Basis Set:
  Charge       = 0
  Multiplicity = 1
  Basis Set: CC-PVTZ
  Basis Set:

    Orbital Energies (a.u.)
    -----------------------

    Doubly Occupied:

       1A    -20.605240     2A    -20.545246     3A    -11.370653
       4A    -11.289438     5A    -11.225301     6A     -1.478216
       7A     -1.377559     8A     -1.053797     9A     -0.905489
      10A     -0.804529    11A     -0.743394    12A     -0.689872
      13A     -0.680232    14A     -0.598639    15A     -0.575622
      16A     -0.558527    17A     -0.526919    18A     -0.509717
      19A     -0.463300    20A     -0.456404

  @DF-RHF Final Energy:  -266.93090370961215

   => Energetics <=

    Nuclear Repulsion Energy =            179.5455941761441636
    One-Electron Energy =                -720.0368136694497707
    Two-Electron Energy =                 273.5603157836935111
    DFT Exchange-Correlation Energy =       0.0000000000000000
    Empirical Dispersion Energy =           0.0000000000000000
    PCM Polarization Energy =               0.0000000000000000
    EFP Energy =                            0.0000000000000000
    Total Energy =                       -266.9309037096120960
    Molecular point group: c1
  Basis Set: CC-PVTZ
  Basis Set:

  -Total Gradient:
     Atom            X                  Y                   Z
    ------   -----------------  -----------------  -----------------
       1        0.000030533308    -0.000043562139     0.000001236582
       2        0.000025633924    -0.000052587987    -0.001372000715
       3       -0.000222821188     0.000065781800     0.002278655626
       4       -0.000054785202     0.000024863245    -0.000012463227
       5        0.000810942345     0.000563864985    -0.002232023830
       6       -0.000013417942    -0.000016747677     0.000006565713
       7       -0.000598461510    -0.000471034206     0.001351907968
       8        0.000046200908    -0.000055844046    -0.000019460287
       9       -0.000008251596    -0.000000038873     0.000002568639
      10        0.000000673919    -0.000000081947    -0.000004966622
      11       -0.000016246967    -0.000014613154    -0.000000019847

  **** Optimization is complete! (in 6 steps) ****
    Final optimized geometry and variables:
    Molecular point group: c1

    Geometry (in Angstrom), charge = 0, multiplicity = 1:

    H           -1.782351487538     1.434796182681     0.077631297939
    C           -1.272815167222     0.477077004730     0.116201820801
    O            0.025726308101     0.663131834783     0.125179050887
    O           -1.831385872213    -0.560167993954     0.146320884016
    C            0.884228893144    -0.475112402223     0.136315956503
    C            2.190037047927    -0.087587179566    -0.516467671722
    H            0.398622287941    -1.292003320805    -0.372846044793
    H            1.033678702586    -0.770084515195     1.166856584809
    H            2.034329834412     0.197200849977    -1.549369215913
    H            2.873566361683    -0.928008606538    -0.491365600648
    H            2.649716171904     0.743481893396     0.002998162962

  Mulliken Charges: (a.u.)
   Center  Symbol    Alpha    Beta     Spin     Total
       1     H     0.44954  0.44954  0.00000  0.10091
       2     C     2.84332  2.84332  0.00000  0.31335
       3     O     4.14607  4.14607  0.00000 -0.29215
       4     O     4.19550  4.19550  0.00000 -0.39099
       5     C     2.97585  2.97585  0.00000  0.04831
       6     C     3.13226  3.13226  0.00000 -0.26452
       7     H     0.44687  0.44687  0.00000  0.10625
       8     H     0.45508  0.45508  0.00000  0.08983
       9     H     0.45086  0.45086  0.00000  0.09827
      10     H     0.45440  0.45440  0.00000  0.09120
      11     H     0.45023  0.45023  0.00000  0.09953

   Total alpha = 20.00000, Total beta = 20.00000, Total charge =  0.00000

*** Psi4 exiting successfully. Buy a developer a beer!
