  ==> Input File <==

--------------------------------------------------------------------------
set {
	reference rhf
	basis cc-pvtz
}

set_num_threads( 4 )
memory 2 gb

molecule MOL {
0 1

H	 0.404050	 -1.179163	 -1.110251
C	 0.483953	 -0.124086	 -1.405661
C	 0.062554	 0.862911	 -0.350953
O	 0.884413	 0.160634	 -2.480705
C	 -1.339253	 0.577611	 0.196911
H	 0.131819	 1.860496	 -0.765104
H	 0.785620	 0.783951	 0.457759
C	 -1.813142	 -0.849710	 -0.061612
H	 -2.032833	 1.276441	 -0.256032
H	 -1.357249	 0.782269	 1.263793
H	 -1.839268	 -1.063526	 -1.124230
H	 -2.810118	 -1.001930	 0.334000
H	 -1.159274	 -1.579980	 0.402282

	symmetry c1
}
set optking {
	frozen_dihedral = ("
		6 3 5 9
	")
}

ee = optimize('scf')
oeprop('DIPOLE', 'QUADRUPOLE', 'MULLIKEN_CHARGES')
f=open( 'psi4out.xyz', 'w' )
f.write( "13  " )
f.write( str(ee) + "\n" )
f.write( MOL.save_string_xyz() )
f.close()
--------------------------------------------------------------------------

    Molecular point group: c1
  Charge       = 0
  Multiplicity = 1
  Basis Set: CC-PVTZ
  Basis Set:
  @DF-RHF Final Energy:  -231.06133156606819
    Total Energy =                       -231.0613315660681906
    Molecular point group: c1
  Basis Set: CC-PVTZ
  Basis Set:
  Basis Set: CC-PVTZ
  Basis Set:
  @DF-RHF Final Energy:  -231.06199209332632
    Total Energy =                       -231.0619920933264382
  Basis Set: CC-PVTZ
  Basis Set:
  Basis Set: CC-PVTZ
  Basis Set:
  @DF-RHF Final Energy:  -231.06377731163806
    Total Energy =                       -231.0637773116379776
  Basis Set: CC-PVTZ
  Basis Set:
  Basis Set: CC-PVTZ
  Basis Set:
  @DF-RHF Final Energy:  -231.06382176324476
    Total Energy =                       -231.0638217632449312
  Basis Set: CC-PVTZ
  Basis Set:
  @DF-RHF Final Energy:  -231.06416762362736
    Total Energy =                       -231.0641676236274122
  @DF-RHF Final Energy:  -231.06424396781088
    Total Energy =                       -231.0642439678109668
  @DF-RHF Final Energy:  -231.06425947946036
    Total Energy =                       -231.0642594794604747
  @DF-RHF Final Energy:  -231.06427106162579
    Total Energy =                       -231.0642710616258171
  @DF-RHF Final Energy:  -231.06428124661863
    Total Energy =                       -231.0642812466187479
  @DF-RHF Final Energy:  -231.06417053679976
    Total Energy =                       -231.0641705367997645
  @DF-RHF Final Energy:  -231.06430274036768
    Total Energy =                       -231.0643027403679071
  Basis Set: CC-PVTZ
  Basis Set:
  @DF-RHF Final Energy:  -231.06430905779305
    Total Energy =                       -231.0643090577930252
  Basis Set: CC-PVTZ
  Basis Set:
  Basis Set: CC-PVTZ
  Basis Set:
  @DF-RHF Final Energy:  -231.06432181850766
    Total Energy =                       -231.0643218185077785
  Basis Set: CC-PVTZ
  Basis Set:
  Basis Set: CC-PVTZ
  Basis Set:
  @DF-RHF Final Energy:  -231.06433300452878
    Total Energy =                       -231.0643330045285495
  Basis Set: CC-PVTZ
  Basis Set:
  Charge       = 0
  Multiplicity = 1
  Basis Set: CC-PVTZ
  Basis Set:

    Orbital Energies (a.u.)
    -----------------------

    Doubly Occupied:

       1A    -20.551316     2A    -11.320294     3A    -11.237168
       4A    -11.234167     5A    -11.223542     6A     -1.405942
       7A     -1.083440     8A     -0.974512     9A     -0.859013
      10A     -0.776379    11A     -0.680573    12A     -0.641118
      13A     -0.621308    14A     -0.604451    15A     -0.561898
      16A     -0.534228    17A     -0.517153    18A     -0.488772
      19A     -0.480269    20A     -0.410483

  @DF-RHF Final Energy:  -231.06433236103675

   => Energetics <=

    Nuclear Repulsion Energy =            174.2857605400560601
    One-Electron Energy =                -658.2881343207615146
    Two-Electron Energy =                 252.9380414196689344
    DFT Exchange-Correlation Energy =       0.0000000000000000
    Empirical Dispersion Energy =           0.0000000000000000
    PCM Polarization Energy =               0.0000000000000000
    EFP Energy =                            0.0000000000000000
    Total Energy =                       -231.0643323610365201
    Molecular point group: c1
  Basis Set: CC-PVTZ
  Basis Set:

  -Total Gradient:
     Atom            X                  Y                   Z
    ------   -----------------  -----------------  -----------------
       1       -0.000070968813    -0.000036528375    -0.000000974521
       2        0.000282554867    -0.000000131175     0.000160680278
       3        0.001102796130     0.001992113381     0.004957181979
       4       -0.000052068775    -0.000007137325     0.000014569062
       5       -0.001009845042    -0.003065819595    -0.004133818168
       6       -0.000942863652    -0.001434607875    -0.003866214154
       7       -0.000026984782     0.000298443834     0.000079308017
       8       -0.000012203449     0.000030276141    -0.000256412330
       9        0.000673212203     0.002587801496     0.002987412538
      10        0.000062848122    -0.000347910971     0.000071262242
      11       -0.000052480987    -0.000013708402     0.000011100179
      12        0.000002144557    -0.000010906414     0.000015216686
      13        0.000043859624     0.000008115280    -0.000039311807

  **** Optimization is complete! (in 15 steps) ****
    Final optimized geometry and variables:
    Molecular point group: c1

    Geometry (in Angstrom), charge = 0, multiplicity = 1:

    H            1.097708421896    -1.261791135924    -0.297202869047
    C            0.927904714161    -0.218318063268    -0.583628624397
    C            0.467312217537     0.703349423990     0.516924926585
    O            1.118204474212     0.122942784890    -1.700368362063
    C           -0.975314752211     0.433870732774     1.010510515635
    H            0.544089151884     1.705419612427     0.118681794570
    H            1.167670978094     0.595472150969     1.339535931245
    C           -1.507165228185    -0.983605286402     0.813049719400
    H           -1.638876888095     1.145833745753     0.535317613895
    H           -1.014168511558     0.671105220836     2.067651016725
    H           -1.566688190177    -1.252323949538    -0.235425162884
    H           -2.504697668509    -1.064990934267     1.226756828834
    H           -0.885898905317    -1.719506090626     1.312174868972

  Mulliken Charges: (a.u.)
   Center  Symbol    Alpha    Beta     Spin     Total
       1     H     0.46207  0.46207  0.00000  0.07585
       2     C     2.90541  2.90541  0.00000  0.18918
       3     C     3.08897  3.08897  0.00000 -0.17795
       4     O     4.16577  4.16577  0.00000 -0.33155
       5     C     3.08984  3.08984  0.00000 -0.17967
       6     H     0.44102  0.44102  0.00000  0.11795
       7     H     0.44957  0.44957  0.00000  0.10086
       8     C     3.15947  3.15947  0.00000 -0.31894
       9     H     0.44523  0.44523  0.00000  0.10954
      10     H     0.44962  0.44962  0.00000  0.10075
      11     H     0.44850  0.44850  0.00000  0.10300
      12     H     0.44275  0.44275  0.00000  0.11449
      13     H     0.45176  0.45176  0.00000  0.09647

   Total alpha = 20.00000, Total beta = 20.00000, Total charge = -0.00000
