                              Psi4 1.0.54 Driver

  ==> Input File <==

--------------------------------------------------------------------------
set {
	reference rhf
	basis cc-pvtz
}

set_num_threads( 4 )
memory 2 gb

molecule MOL {
0 1

H	 2.614283	 2.028610	 0.296620
O	 3.358864	 1.662087	 -0.142800
C	 3.565468	 0.338079	 0.273842
C	 3.253214	 -0.691848	 -0.801534
H	 4.610751	 0.273239	 0.544321
H	 2.986891	 0.128048	 1.171387
C	 1.781177	 -0.752815	 -1.203081
H	 3.861807	 -0.475219	 -1.674371
H	 3.565934	 -1.665653	 -0.432335
C	 1.500521	 -1.819963	 -2.260087
H	 1.471180	 0.217042	 -1.577623
H	 1.175522	 -0.956110	 -0.321526
C	 0.028515	 -1.975631	 -2.646379
H	 2.084174	 -1.601890	 -3.151166
H	 1.861018	 -2.775633	 -1.889674
C	 -0.576936	 -0.781007	 -3.381256
H	 -0.066950	 -2.854303	 -3.278320
H	 -0.556596	 -2.182436	 -1.753053
C	 -2.015080	 -1.023455	 -3.832223
H	 0.035255	 -0.547346	 -4.249641
H	 -0.553044	 0.099526	 -2.746359
C	 -2.623893	 0.168694	 -4.562990
H	 -2.045909	 -1.895925	 -4.479080
H	 -2.626316	 -1.265353	 -2.966811
H	 -2.053223	 0.415756	 -5.452109
H	 -3.642532	 -0.037528	 -4.871134
H	 -2.642462	 1.049062	 -3.928986

	symmetry c1
}
set optking {
	frozen_dihedral = ("
		4 3 2 1
	")
}

ee,wfn = optimize('scf', return_wfn=True)
oeprop( wfn, 'DIPOLE', 'QUADRUPOLE', 'MULLIKEN_CHARGES')
f=open( 'psi4out.xyz', 'w' )
f.write( "27  " )
f.write( str(ee) + "\n" )
f.write( MOL.save_string_xyz() )
f.close()
--------------------------------------------------------------------------

    Molecular point group: c1
  Charge       = 0
  Multiplicity = 1
  Basis Set: CC-PVTZ
  Basis Set:
  @DF-RHF Final Energy:  -388.42674024696788
    Total Energy =                       -388.4267402469679382
    Molecular point group: c1
  Basis Set: CC-PVTZ
  Basis Set:
  Basis Set: CC-PVTZ
  Basis Set:
  @DF-RHF Final Energy:  -388.42700416304450
    Total Energy =                       -388.4270041630448986
  Basis Set: CC-PVTZ
  Basis Set:
  Basis Set: CC-PVTZ
  Basis Set:
  @DF-RHF Final Energy:  -388.42705384342833
    Total Energy =                       -388.4270538434284390
  Basis Set: CC-PVTZ
  Basis Set:
  Basis Set: CC-PVTZ
  Basis Set:
  @DF-RHF Final Energy:  -388.42705636364099
    Total Energy =                       -388.4270563636410998
  Basis Set: CC-PVTZ
  Basis Set:
  Charge       = 0
  Multiplicity = 1
  Basis Set: CC-PVTZ
  Basis Set:

    Orbital Energies (a.u.)
    -----------------------

    Doubly Occupied:

       1A    -20.545325     2A    -11.265922     3A    -11.211503
       4A    -11.210723     5A    -11.210401     6A    -11.209948
       7A    -11.209573     8A    -11.208604     9A    -11.205252
      10A     -1.362666    11A     -1.092575    12A     -1.059881
      13A     -1.010758    14A     -0.946904    15A     -0.884597
      16A     -0.815874    17A     -0.797890    18A     -0.774631
      19A     -0.706062    20A     -0.648775    21A     -0.632033
      22A     -0.621459    23A     -0.592212    24A     -0.581983
      25A     -0.579592    26A     -0.548254    27A     -0.540220
      28A     -0.527105    29A     -0.506930    30A     -0.486279
      31A     -0.481676    32A     -0.473438    33A     -0.466082
      34A     -0.458686    35A     -0.453812    36A     -0.441609
      37A     -0.421212

  @DF-RHF Final Energy:  -388.42705726876392

   => Energetics <=

    Nuclear Repulsion Energy =            460.2483694896225757
    One-Electron Energy =               -1438.9699617278861297
    Two-Electron Energy =                 590.2945349694994093
    DFT Exchange-Correlation Energy =       0.0000000000000000
    Empirical Dispersion Energy =           0.0000000000000000
    PCM Polarization Energy =               0.0000000000000000
    EFP Energy =                            0.0000000000000000
    Total Energy =                       -388.4270572687642016
    Molecular point group: c1
  Basis Set: CC-PVTZ
  Basis Set:

  -Total Gradient:
     Atom            X                  Y                   Z
    ------   -----------------  -----------------  -----------------
       1        0.000308019738     0.000160943781     0.000352891253
       2       -0.000264113939    -0.000311531383    -0.000341340562
       3       -0.000232468357    -0.000008751416     0.000095201867
       4        0.000253696854    -0.000119174927    -0.000020716983
       5       -0.000077781213     0.000109981544    -0.000014525101
       6        0.000019364164     0.000098614154    -0.000067545704
       7        0.000019657369    -0.000034132305     0.000030468474
       8        0.000014025090     0.000044556670     0.000068307098
       9        0.000000172123    -0.000046193119    -0.000031794742
      10       -0.000016909297     0.000079828827    -0.000062389584
      11        0.000018612563    -0.000006034824    -0.000020398328
      12       -0.000006007966     0.000011891670    -0.000000939216
      13       -0.000013160536     0.000021504389     0.000049130226
      14       -0.000003881458     0.000015179014    -0.000007102856
      15        0.000006173154     0.000016036689    -0.000004420180
      16       -0.000017497753    -0.000002099314    -0.000004572007
      17        0.000001019889    -0.000012356517     0.000020379521
      18        0.000001380062     0.000017037925     0.000015499565
      19        0.000011182192    -0.000011588765    -0.000017237204
      20        0.000009675248     0.000015222014    -0.000006913578
      21       -0.000038560711    -0.000038422174    -0.000027352088
      22        0.000004251860    -0.000003683084    -0.000003808785
      23       -0.000005251527    -0.000003325793    -0.000000309162
      24        0.000008460274     0.000002570705     0.000000293854
      25       -0.000003274055     0.000001749072    -0.000001443959
      26        0.000003107307     0.000000454864    -0.000000385826
      27        0.000000108934     0.000001722302     0.000001024011

  **** Optimization is complete! (in 5 steps) ****
    Final optimized geometry and variables:
    Molecular point group: c1

    Geometry (in Angstrom), charge = 0, multiplicity = 1:

    H            1.645257956343     2.556203458852     2.202255742220
    O            2.395465710705     2.174052310946     1.790104085020
    C            2.623553823004     0.874670998037     2.279415855126
    C            2.321890960266    -0.183567775062     1.231572000671
    H            3.666169785550     0.812989330442     2.567957590453
    H            2.032205016370     0.695663097602     3.173314550436
    C            0.850908264926    -0.258114931216     0.832792267931
    H            2.928701190877     0.023626425993     0.355190442300
    H            2.647104069662    -1.146476650085     1.618740406129
    C            0.579199082663    -1.318103629749    -0.233174490023
    H            0.535959781326     0.715273095033     0.476567765124
    H            0.251147387094    -0.478512012794     1.714577954704
    C           -0.893853923840    -1.495814260281    -0.605806992371
    H            1.148675310722    -1.078943196230    -1.128092801570
    H            0.960653170187    -2.272096140123     0.120885206572
    C           -1.526881068952    -0.304284451243    -1.322070032906
    H           -0.981671125850    -2.369694132036    -1.245580497669
    H           -1.465925974438    -1.721165219318     0.291525764930
    C           -2.965591008087    -0.565747233199    -1.760081131230
    H           -0.928042528597    -0.052337412417    -2.194573430922
    H           -1.509480594382     0.570081431210    -0.678870200140
    C           -3.601491111302     0.623156707723    -2.472800085756
    H           -2.989655093557    -1.432488123736    -2.414937042584
    H           -3.563557569338    -0.825598886197    -0.890599460804
    H           -3.045003203887     0.887258530113    -3.365969548204
    H           -4.620318502310     0.403907449089    -2.771277722458
    H           -3.626206642277     1.497339997635    -1.830549708781

  Mulliken Charges: (a.u.)
   Center  Symbol    Alpha    Beta     Spin     Total
       1     H     0.39032  0.39032  0.00000  0.21937
       2     O     4.20826  4.20826  0.00000 -0.41653
       3     C     2.98323  2.98323  0.00000  0.03353
       4     C     3.08173  3.08173  0.00000 -0.16346
       5     H     0.45264  0.45264  0.00000  0.09471
       6     H     0.46957  0.46957  0.00000  0.06086
       7     C     3.09988  3.09988  0.00000 -0.19976
       8     H     0.45222  0.45222  0.00000  0.09555
       9     H     0.45467  0.45467  0.00000  0.09067
      10     C     3.09896  3.09896  0.00000 -0.19792
      11     H     0.44898  0.44898  0.00000  0.10204
      12     H     0.45826  0.45826  0.00000  0.08347
      13     C     3.09801  3.09801  0.00000 -0.19603
      14     H     0.45219  0.45219  0.00000  0.09561
      15     H     0.44936  0.44936  0.00000  0.10129
      16     C     3.08741  3.08741  0.00000 -0.17482
      17     H     0.44863  0.44863  0.00000  0.10274
      18     H     0.45457  0.45457  0.00000  0.09087
      19     C     3.08393  3.08393  0.00000 -0.16786
      20     H     0.45440  0.45440  0.00000  0.09119
      21     H     0.45439  0.45439  0.00000  0.09122
      22     C     3.14960  3.14960  0.00000 -0.29919
      23     H     0.45416  0.45416  0.00000  0.09167
      24     H     0.45515  0.45515  0.00000  0.08970
      25     H     0.45492  0.45492  0.00000  0.09016
      26     H     0.44874  0.44874  0.00000  0.10252
      27     H     0.45580  0.45580  0.00000  0.08840

   Total alpha = 37.00000, Total beta = 37.00000, Total charge =  0.00000

*** Psi4 exiting successfully. Buy a developer a beer!
