                              Psi4 1.0.54 Driver

  ==> Input File <==

--------------------------------------------------------------------------
set {
	reference rhf
	basis cc-pvtz
}

set_num_threads( 4 )
memory 2 gb

molecule MOL {
0 1

H	 -1.752232	 -2.214755	 -0.011938
C	 -1.343852	 -1.221619	 -0.018179
N	 -0.058800	 -1.097635	 -0.261688
C	 -2.148159	 -0.124236	 0.219734
C	 0.449026	 0.119242	 -0.273393
H	 -3.196988	 -0.237571	 0.417076
N	 -1.655094	 1.094230	 0.209506
C	 -0.370318	 1.215445	 -0.035100
C	 1.924033	 0.265863	 -0.538106
H	 0.033214	 2.210441	 -0.046812
C	 2.378418	 1.726293	 -0.549381
H	 2.460796	 -0.271926	 0.234184
H	 2.167596	 -0.202387	 -1.484485
H	 3.448318	 1.789325	 -0.708368
H	 2.145511	 2.204975	 0.392742
H	 1.887832	 2.281556	 -1.340933

	symmetry c1
}
set optking {
	frozen_dihedral = ("
		12 9 5 3
	")
}

ee,wfn = optimize('scf', return_wfn=True)
oeprop( wfn, 'DIPOLE', 'QUADRUPOLE', 'MULLIKEN_CHARGES')
f=open( 'psi4out.xyz', 'w' )
f.write( "16  " )
f.write( str(ee) + "\n" )
f.write( MOL.save_string_xyz() )
f.close()
--------------------------------------------------------------------------

    Molecular point group: c1
  Charge       = 0
  Multiplicity = 1
  Basis Set: CC-PVTZ
  Basis Set:
  @DF-RHF Final Energy:  -340.86859603727612
    Total Energy =                       -340.8685960372758927
    Molecular point group: c1
  Basis Set: CC-PVTZ
  Basis Set:
  Basis Set: CC-PVTZ
  Basis Set:
  @DF-RHF Final Energy:  -340.86969805375981
    Total Energy =                       -340.8696980537598620
  Basis Set: CC-PVTZ
  Basis Set:
  Basis Set: CC-PVTZ
  Basis Set:
  @DF-RHF Final Energy:  -340.87027606776195
    Total Energy =                       -340.8702760677619494
  Basis Set: CC-PVTZ
  Basis Set:
  Basis Set: CC-PVTZ
  Basis Set:
  @DF-RHF Final Energy:  -340.87030137518457
    Total Energy =                       -340.8703013751844537
  Basis Set: CC-PVTZ
  Basis Set:
  Basis Set: CC-PVTZ
  Basis Set:
  @DF-RHF Final Energy:  -340.87031046784784
    Total Energy =                       -340.8703104678480145
  Basis Set: CC-PVTZ
  Basis Set:
  Basis Set: CC-PVTZ
  Basis Set:
  @DF-RHF Final Energy:  -340.87032018370661
    Total Energy =                       -340.8703201837067809
  Basis Set: CC-PVTZ
  Basis Set:
  Basis Set: CC-PVTZ
  Basis Set:
  @DF-RHF Final Energy:  -340.87032122922716
    Total Energy =                       -340.8703212292273292
  Basis Set: CC-PVTZ
  Basis Set:
  Charge       = 0
  Multiplicity = 1
  Basis Set: CC-PVTZ
  Basis Set:

    Orbital Energies (a.u.)
    -----------------------

    Doubly Occupied:

       1A    -15.579655     2A    -15.574604     3A    -11.278966
       4A    -11.272272     5A    -11.267276     6A    -11.266445
       7A    -11.232242     8A    -11.221505     9A     -1.315177
      10A     -1.222879    11A     -1.087169    12A     -1.016304
      13A     -0.910690    14A     -0.893167    15A     -0.831393
      16A     -0.716896    17A     -0.711038    18A     -0.652431
      19A     -0.632702    20A     -0.611634    21A     -0.571609
      22A     -0.565008    23A     -0.520005    24A     -0.512947
      25A     -0.508644    26A     -0.486348    27A     -0.430857
      28A     -0.396845    29A     -0.346494

  @DF-RHF Final Energy:  -340.87032167961962

   => Energetics <=

    Nuclear Repulsion Energy =            350.0225457038810077
    One-Electron Energy =               -1154.5193396774116081
    Two-Electron Energy =                 463.6264722939106377
    DFT Exchange-Correlation Energy =       0.0000000000000000
    Empirical Dispersion Energy =           0.0000000000000000
    PCM Polarization Energy =               0.0000000000000000
    EFP Energy =                            0.0000000000000000
    Total Energy =                       -340.8703216796200195
    Molecular point group: c1
  Basis Set: CC-PVTZ
  Basis Set:

  -Total Gradient:
     Atom            X                  Y                   Z
    ------   -----------------  -----------------  -----------------
       1        0.000006779012     0.000000812543     0.000000111271
       2       -0.000143157346     0.000030363335     0.000018775173
       3        0.000088093338     0.000135275451    -0.000124121864
       4        0.000031783424    -0.000153024009    -0.000003444825
       5        0.000057141255    -0.000160690297     0.000181172291
       6       -0.000001586330     0.000003567820    -0.000009281529
       7        0.000110565997     0.000102669859    -0.000007227026
       8       -0.000136251892     0.000047557665     0.000017121669
       9        0.000013746056    -0.000070798534    -0.000139958143
      10        0.000003599510     0.000003635532    -0.000006511669
      11       -0.000005075731     0.000018815869    -0.000011154474
      12       -0.000013512411     0.000080491652     0.000071889611
      13       -0.000005096128    -0.000009839610     0.000003117673
      14       -0.000041582146    -0.000012346099     0.000011285923
      15        0.000010670112    -0.000004179925    -0.000027515857
      16        0.000023883281    -0.000012311255     0.000025741775

  **** Optimization is complete! (in 8 steps) ****
    Final optimized geometry and variables:
    Molecular point group: c1

    Geometry (in Angstrom), charge = 0, multiplicity = 1:

    H           -1.334363399758    -2.695379076616     0.030578456272
    C           -1.076826187413    -1.654018492304     0.081158837661
    N            0.168518581452    -1.327141751069    -0.165917712460
    C           -2.029539207929    -0.702399876006     0.394829105377
    C            0.498040003079    -0.048892041581    -0.107023892309
    H           -3.046820887591    -0.979716995767     0.595263152442
    N           -1.718114410459     0.570442839008     0.455945951583
    C           -0.467151855746     0.897041675029     0.207587282354
    C            1.943891000245     0.278867224537    -0.394311172948
    H           -0.225907187104     1.939319495475     0.259679686671
    C            2.318027735415     1.755863584691    -0.406496916426
    H            2.545766683088    -0.243814995906     0.341313046061
    H            2.190447182207    -0.170303686366    -1.349524921938
    H            3.370349824763     1.864081807929    -0.636684506453
    H            2.144375612298     2.224872295578     0.554990950672
    H            1.760023857990     2.306287159568    -1.155183027488

  Mulliken Charges: (a.u.)
   Center  Symbol    Alpha    Beta     Spin     Total
       1     H     0.41365  0.41365  0.00000  0.17270
       2     C     3.04263  3.04263  0.00000 -0.08526
       3     N     3.59478  3.59478  0.00000 -0.18957
       4     C     3.04898  3.04898  0.00000 -0.09796
       5     C     2.95374  2.95374  0.00000  0.09251
       6     H     0.41431  0.41431  0.00000  0.17138
       7     N     3.58843  3.58843  0.00000 -0.17687
       8     C     3.07638  3.07638  0.00000 -0.15276
       9     C     3.05858  3.05858  0.00000 -0.11715
      10     H     0.41203  0.41203  0.00000  0.17593
      11     C     3.16513  3.16513  0.00000 -0.33026
      12     H     0.44463  0.44463  0.00000  0.11074
      13     H     0.44409  0.44409  0.00000  0.11183
      14     H     0.44207  0.44207  0.00000  0.11586
      15     H     0.45091  0.45091  0.00000  0.09819
      16     H     0.44966  0.44966  0.00000  0.10068

   Total alpha = 29.00000, Total beta = 29.00000, Total charge = -0.00000

*** Psi4 exiting successfully. Buy a developer a beer!
