  ==> Input File <==

--------------------------------------------------------------------------
set {
	reference rhf
	basis 6-31G*
}

set_num_threads( 4 )
memory 2 gb

molecule MOL {
0 1

O	 0.169884	 1.278546	 -4.242380
C	 -0.363684	 1.228967	 -3.175946
C	 -0.056469	 0.103817	 -2.203340
C	 -1.341099	 2.292227	 -2.727044
C	 1.274704	 0.355511	 -1.476862
H	 0.011367	 -0.815505	 -2.774785
H	 -0.859338	 -0.005978	 -1.479895
C	 1.631333	 -0.777471	 -0.511575
H	 2.050046	 0.478257	 -2.224634
H	 1.219326	 1.292406	 -0.924677
C	 2.915987	 -0.544314	 0.291766
H	 1.720334	 -1.708028	 -1.069132
H	 0.807366	 -0.917005	 0.185173
C	 3.373361	 0.914346	 0.347591
H	 3.708709	 -1.142521	 -0.150311
H	 2.780642	 -0.921148	 1.303579
H	 3.506512	 1.320010	 -0.651625
H	 4.322697	 0.999599	 0.867103
H	 2.660624	 1.545032	 0.868198
H	 -2.333113	 1.858916	 -2.630022
H	 -1.369907	 3.096963	 -3.448400
H	 -1.064847	 2.681005	 -1.751165

	symmetry c1
}
set optking {
	frozen_dihedral = ("
		12 8 11 15
	")
}

ee = optimize('scf')
oeprop('DIPOLE', 'QUADRUPOLE', 'MULLIKEN_CHARGES')
f=open( 'psi4out.xyz', 'w' )
f.write( "22  " )
f.write( str(ee) + "\n" )
f.write( MOL.save_string_xyz() )
f.close()
--------------------------------------------------------------------------

    Molecular point group: c1
  Charge       = 0
  Multiplicity = 1
  Basis Set: 6-31G*
  Basis Set:
  @DF-RHF Final Energy:  -348.09011795605596
    Total Energy =                       -348.0901179560559626
    Molecular point group: c1
  Basis Set: 6-31G*
  Basis Set:
  Basis Set: 6-31G*
  Basis Set:
  @DF-RHF Final Energy:  -348.09094858817326
    Total Energy =                       -348.0909485881729779
  Basis Set: 6-31G*
  Basis Set:
  Basis Set: 6-31G*
  Basis Set:
  @DF-RHF Final Energy:  -348.09230839260147
    Total Energy =                       -348.0923083926012396
  Basis Set: 6-31G*
  Basis Set:
  Basis Set: 6-31G*
  Basis Set:
  @DF-RHF Final Energy:  -348.09233951247137
    Total Energy =                       -348.0923395124713124
  Basis Set: 6-31G*
  Basis Set:
  @DF-RHF Final Energy:  -348.09232573681788
    Total Energy =                       -348.0923257368177701
  @DF-RHF Final Energy:  -348.09241495909026
    Total Energy =                       -348.0924149590908314
  @DF-RHF Final Energy:  -348.09241875294407
    Total Energy =                       -348.0924187529434448
  Basis Set: 6-31G*
  Basis Set:
  @DF-RHF Final Energy:  -348.09242617366391
    Total Energy =                       -348.0924261736640801
  Basis Set: 6-31G*
  Basis Set:
  Basis Set: 6-31G*
  Basis Set:
  @DF-RHF Final Energy:  -348.09241382204459
    Total Energy =                       -348.0924138220448185
  Basis Set: 6-31G*
  Basis Set:
  Basis Set: 6-31G*
  Basis Set:
  @DF-RHF Final Energy:  -348.09242669217394
    Total Energy =                       -348.0924266921738308
  Basis Set: 6-31G*
  Basis Set:
  Charge       = 0
  Multiplicity = 1
  Basis Set: 6-31G*
  Basis Set:

    Orbital Energies (a.u.)
    -----------------------

    Doubly Occupied:

       1A    -20.547119     2A    -11.324210     3A    -11.229298
       4A    -11.228681     5A    -11.228032     6A    -11.222961
       7A    -11.220837     8A    -11.213042     9A     -1.392858
      10A     -1.094218    11A     -1.042766    12A     -0.999091
      13A     -0.937967    14A     -0.863108    15A     -0.779911
      16A     -0.733083    17A     -0.663911    18A     -0.646578
      19A     -0.628388    20A     -0.614638    21A     -0.593540
      22A     -0.588134    23A     -0.557280    24A     -0.545682
      25A     -0.528969    26A     -0.526360    27A     -0.503124
      28A     -0.484921    29A     -0.468405    30A     -0.462133
      31A     -0.457056    32A     -0.395854

  @DF-RHF Final Energy:  -348.09242700290980

   => Energetics <=

    Nuclear Repulsion Energy =            374.0420760385350718
    One-Electron Energy =               -1212.8247012550955333
    Two-Electron Energy =                 490.6901982136509446
    DFT Exchange-Correlation Energy =       0.0000000000000000
    Empirical Dispersion Energy =           0.0000000000000000
    PCM Polarization Energy =               0.0000000000000000
    EFP Energy =                            0.0000000000000000
    Total Energy =                       -348.0924270029095737
    Molecular point group: c1
  Basis Set: 6-31G*
  Basis Set:

  -Total Gradient:
     Atom            X                  Y                   Z
    ------   -----------------  -----------------  -----------------
       1        0.000003813383    -0.000010093822     0.000001984370
       2        0.000016828293     0.000061291452     0.000020030830
       3        0.000003268824     0.000009900996     0.000009163880
       4       -0.000034194996    -0.000032090764    -0.000037324926
       5       -0.000008957268     0.000036855442     0.000025404319
       6       -0.000007073163    -0.000004516015    -0.000017413904
       7        0.000019390679    -0.000015711839     0.000004534484
       8       -0.002862563026    -0.004638436137     0.006383760045
       9        0.000001384628    -0.000019084396     0.000007718774
      10       -0.000014790361     0.000007328162    -0.000031567827
      11        0.002090308501     0.006166912363    -0.005329001597
      12        0.002103472607     0.002919386678    -0.004584273089
      13        0.000013337317    -0.000001914593     0.000003686955
      14        0.000007470912    -0.000008860980    -0.000008394460
      15       -0.001341837300    -0.004484337640     0.003539589184
      16       -0.000009262898     0.000000412401     0.000011888276
      17       -0.000023596793     0.000011097020    -0.000020194626
      18        0.000004777952     0.000005568261    -0.000014175126
      19        0.000018425201    -0.000007420907     0.000014666192
      20        0.000002462770     0.000003615659     0.000011861196
      21        0.000003213725    -0.000000904012     0.000001348486
      22        0.000014121012     0.000001002670     0.000006708565

  **** Optimization is complete! (in 11 steps) ****
    Final optimized geometry and variables:
    Molecular point group: c1

    Geometry (in Angstrom), charge = 0, multiplicity = 1:

    O           -0.823697017904     0.615556949352    -2.560909031876
    C           -1.347114673931     0.583925382764    -1.488834048472
    C           -1.022592158592    -0.517929009113    -0.495555859921
    C           -2.335165796950     1.644438075376    -1.056230078642
    C            0.292033102876    -0.219508385913     0.243460705432
    H           -0.925988339604    -1.443851896159    -1.051772947684
    H           -1.831147442238    -0.636103403799     0.220555603154
    C            0.651210555108    -1.331800959061     1.236501851751
    H            1.080368670547    -0.107273795870    -0.494408927358
    H            0.207610510237     0.732978795585     0.759581234366
    C            2.005623481005    -1.163873140206     1.966021039866
    H            0.684147265397    -2.254320152858     0.663370438810
    H           -0.152307653306    -1.426992111195     1.961517908415
    C            2.522195453007     0.263681250037     2.146375550826
    H            2.756677616754    -1.776143816991     1.474705668673
    H            1.904903741333    -1.609501776669     2.953060964885
    H            2.724778942005     0.750367120255     1.198637005392
    H            3.447611419201     0.255635284815     2.713521972863
    H            1.811382450461     0.878323543178     2.691316046978
    H           -3.322078861676     1.201829586344    -0.949855666587
    H           -2.374315825291     2.435704297295    -1.791837211849
    H           -2.061865700420     2.053768106651    -0.088028381893

  Mulliken Charges: (a.u.)
   Center  Symbol    Alpha    Beta     Spin     Total
       1     O     4.26245  4.26245  0.00000 -0.52489
       2     C     2.73691  2.73691  0.00000  0.52619
       3     C     3.19968  3.19968  0.00000 -0.39936
       4     C     3.28953  3.28953  0.00000 -0.57906
       5     C     3.16582  3.16582  0.00000 -0.33164
       6     H     0.40145  0.40145  0.00000  0.19709
       7     H     0.41714  0.41714  0.00000  0.16571
       8     C     3.15389  3.15389  0.00000 -0.30778
       9     H     0.40617  0.40617  0.00000  0.18766
      10     H     0.41854  0.41854  0.00000  0.16293
      11     C     3.15538  3.15538  0.00000 -0.31076
      12     H     0.41819  0.41819  0.00000  0.16363
      13     H     0.42146  0.42146  0.00000  0.15709
      14     C     3.24349  3.24349  0.00000 -0.48698
      15     H     0.41869  0.41869  0.00000  0.16262
      16     H     0.42021  0.42021  0.00000  0.15958
      17     H     0.41764  0.41764  0.00000  0.16472
      18     H     0.41735  0.41735  0.00000  0.16530
      19     H     0.42219  0.42219  0.00000  0.15562
      20     H     0.40685  0.40685  0.00000  0.18630
      21     H     0.39711  0.39711  0.00000  0.20579
      22     H     0.40987  0.40987  0.00000  0.18025

   Total alpha = 32.00000, Total beta = 32.00000, Total charge =  0.00000
