  ==> Input File <==

--------------------------------------------------------------------------
set {
	reference rhf
	basis 6-31G*
}

set_num_threads( 4 )
memory 2 gb

molecule MOL {
0 1

H	 -0.944757	 -0.000069	 1.678017
O	 -0.042387	 -0.000390	 1.388199
C	 -0.001487	 0.000018	 -0.026623
C	 0.013961	 1.441853	 -0.538007
C	 1.237673	 -0.760175	 -0.503313
C	 -1.275582	 -0.714883	 -0.462537
H	 0.003094	 1.477527	 -1.622677
H	 0.906956	 1.962270	 -0.199434
H	 -0.850249	 1.981132	 -0.166071
H	 1.277833	 -0.812411	 -1.586710
H	 2.146577	 -0.269636	 -0.162437
H	 1.233022	 -1.770251	 -0.108851
H	 -1.341098	 -0.767720	 -1.544508
H	 -2.146815	 -0.189134	 -0.088333
H	 -1.293855	 -1.723390	 -0.065080

	symmetry c1
}
set optking {
	frozen_dihedral = ("
		4 3 2 1
	")
}

ee = optimize('scf')
oeprop('DIPOLE', 'QUADRUPOLE', 'MULLIKEN_CHARGES')
f=open( 'psi4out.xyz', 'w' )
f.write( "15  " )
f.write( str(ee) + "\n" )
f.write( MOL.save_string_xyz() )
f.close()
--------------------------------------------------------------------------

    Molecular point group: c1
  Charge       = 0
  Multiplicity = 1
  Basis Set: 6-31G*
  Basis Set:
  @DF-RHF Final Energy:  -232.14974117544213
    Total Energy =                       -232.1497411754421023
    Molecular point group: c1
  Basis Set: 6-31G*
  Basis Set:
  Basis Set: 6-31G*
  Basis Set:
  @DF-RHF Final Energy:  -232.15167870937555
    Total Energy =                       -232.1516787093755738
  Basis Set: 6-31G*
  Basis Set:
  Basis Set: 6-31G*
  Basis Set:
  @DF-RHF Final Energy:  -232.15218014817131
    Total Energy =                       -232.1521801481711123
  Basis Set: 6-31G*
  Basis Set:
  Basis Set: 6-31G*
  Basis Set:
  @DF-RHF Final Energy:  -232.15218527326942
    Total Energy =                       -232.1521852732694811
  Basis Set: 6-31G*
  Basis Set:
  Basis Set: 6-31G*
  Basis Set:
  @DF-RHF Final Energy:  -232.15218626774177
    Total Energy =                       -232.1521862677418540
  Basis Set: 6-31G*
  Basis Set:
  Basis Set: 6-31G*
  Basis Set:
  @DF-RHF Final Energy:  -232.15218847834515
    Total Energy =                       -232.1521884783450105
  Basis Set: 6-31G*
  Basis Set:
  Charge       = 0
  Multiplicity = 1
  Basis Set: 6-31G*
  Basis Set:

    Orbital Energies (a.u.)
    -----------------------

    Doubly Occupied:

       1A    -20.548007     2A    -11.281890     3A    -11.216476
       4A    -11.206357     5A    -11.204581     6A     -1.359397
       7A     -1.063520     8A     -0.944499     9A     -0.936295
      10A     -0.775598    11A     -0.669784    12A     -0.622458
      13A     -0.621040    14A     -0.574913    15A     -0.556526
      16A     -0.532272    17A     -0.516750    18A     -0.508880
      19A     -0.502170    20A     -0.457010    21A     -0.423896

  @DF-RHF Final Energy:  -232.15218833063412

   => Energetics <=

    Nuclear Repulsion Energy =            200.3027052791847211
    One-Electron Energy =                -711.8651485118285791
    Two-Electron Energy =                 279.4102549020096831
    DFT Exchange-Correlation Energy =       0.0000000000000000
    Empirical Dispersion Energy =           0.0000000000000000
    PCM Polarization Energy =               0.0000000000000000
    EFP Energy =                            0.0000000000000000
    Total Energy =                       -232.1521883306342033
    Molecular point group: c1
  Basis Set: 6-31G*
  Basis Set:

  -Total Gradient:
     Atom            X                  Y                   Z
    ------   -----------------  -----------------  -----------------
       1       -0.000067781718    -0.002240071833     0.000022597693
       2        0.000583215705     0.002748656777    -0.000036973603
       3       -0.001878954163    -0.000462273654     0.000104629733
       4        0.001372479675    -0.000045671005    -0.000068578374
       5       -0.000005562535     0.000000628739    -0.000000003374
       6       -0.000018548510    -0.000007015818    -0.000019580921
       7        0.000022731978     0.000001778752    -0.000002830670
       8       -0.000006948449     0.000024811205     0.000000486433
       9       -0.000001220020    -0.000015662383    -0.000005574027
      10        0.000002165702     0.000020765427     0.000005699330
      11        0.000019118269    -0.000014752541     0.000001484188
      12       -0.000015307979     0.000000327306    -0.000008594446
      13       -0.000011671816    -0.000007257309     0.000003815583
      14        0.000005411010    -0.000001171755     0.000003338689
      15        0.000000872848    -0.000003091907     0.000000083761

  **** Optimization is complete! (in 7 steps) ****
    Final optimized geometry and variables:
    Molecular point group: c1

    Geometry (in Angstrom), charge = 0, multiplicity = 1:

    H           -0.812392398897     0.052077140734     1.753456244043
    O            0.061036796173     0.017773453089     1.389820276524
    C           -0.004054797424     0.002949339681    -0.026209441312
    C            0.022873056974     1.444723676194    -0.536256497241
    C            1.241456673490    -0.749279830733    -0.486243661432
    C           -1.271079147440    -0.719455737071    -0.484479614653
    H            0.019972755253     1.483202229299    -1.621477761927
    H            0.911769710752     1.949238531063    -0.174917358882
    H           -0.842832992623     1.994391414056    -0.177245692696
    H            1.305911549150    -0.773793501337    -1.569534100623
    H            2.131914985524    -0.266083391719    -0.099753501166
    H            1.224525795986    -1.768249953297    -0.115881049805
    H           -1.321006327727    -0.776706226014    -1.566524098152
    H           -2.161453079440    -0.195996598209    -0.142315890899
    H           -1.296464316635    -1.729369045489    -0.087841827668

  Mulliken Charges: (a.u.)
   Center  Symbol    Alpha    Beta     Spin     Total
       1     H     0.28188  0.28188  0.00000  0.43625
       2     O     4.37963  4.37963  0.00000 -0.75927
       3     C     2.84899  2.84899  0.00000  0.30202
       4     C     3.23376  3.23376  0.00000 -0.46752
       5     C     3.23277  3.23277  0.00000 -0.46554
       6     C     3.25368  3.25368  0.00000 -0.50736
       7     H     0.42469  0.42469  0.00000  0.15061
       8     H     0.41279  0.41279  0.00000  0.17442
       9     H     0.42459  0.42459  0.00000  0.15082
      10     H     0.42490  0.42490  0.00000  0.15019
      11     H     0.41276  0.41276  0.00000  0.17449
      12     H     0.41597  0.41597  0.00000  0.16805
      13     H     0.41630  0.41630  0.00000  0.16739
      14     H     0.42418  0.42418  0.00000  0.15164
      15     H     0.41310  0.41310  0.00000  0.17380

   Total alpha = 21.00000, Total beta = 21.00000, Total charge =  0.00000
