  ==> Input File <==

--------------------------------------------------------------------------
set {
	reference rhf
	basis 6-31G*
}

set_num_threads( 1 )
memory 2 gb

molecule MOL {
0 1

H	 -4.031818	 -0.453427	 -0.000094
C	 -2.967712	 -0.297022	 -0.000064
C	 -2.458620	 0.992929	 0.000032
C	 -2.109895	 -1.385637	 -0.000122
H	 -3.124998	 1.836319	 0.000077
C	 -1.090278	 1.193236	 0.000070
H	 -2.506361	 -2.384847	 -0.000198
C	 -0.739812	 -1.187531	 -0.000085
H	 -0.678594	 2.184290	 0.000146
C	 -0.226438	 0.104061	 0.000012
H	 -0.072310	 -2.027032	 -0.000131
C	 1.239129	 0.373821	 0.000060
O	 1.558639	 1.505785	 -0.609181
O	 2.048547	 -0.347125	 0.493961
C	 2.934134	 1.841226	 -0.655694
H	 3.331604	 1.947456	 0.343069
H	 2.989727	 2.780467	 -1.183508
H	 3.491484	 1.080529	 -1.182591

	symmetry c1
}
set optking {
	frozen_dihedral = ("
		12 13 15 16,
		10 12 13 15
	")
}

ee = energy('scf')
oeprop('DIPOLE', 'QUADRUPOLE', 'MULLIKEN_CHARGES')
f=open( 'psi4out.xyz', 'w' )
f.write( "18  " )
f.write( str(ee) + "\n" )
f.write( MOL.save_string_xyz() )
f.close()
--------------------------------------------------------------------------

    Molecular point group: c1

    Geometry (in Angstrom), charge = 0, multiplicity = 1:

       Center              X                  Y                   Z               Mass
    ------------   -----------------  -----------------  -----------------  -----------------
           H         -3.973434310210    -0.770630158188     0.086280700883     1.007825032070
           C         -2.909328310210    -0.614225158188     0.086310700883    12.000000000000
           C         -2.400236310210     0.675725841812     0.086406700883    12.000000000000
           C         -2.051511310210    -1.702840158188     0.086252700883    12.000000000000
           H         -3.066614310210     1.519115841812     0.086451700883     1.007825032070
           C         -1.031894310210     0.876032841812     0.086444700883    12.000000000000
           H         -2.447977310210    -2.702050158188     0.086176700883     1.007825032070
           C         -0.681428310210    -1.504734158188     0.086289700883    12.000000000000
           H         -0.620210310210     1.867086841812     0.086520700883     1.007825032070
           C         -0.168054310210    -0.213142158188     0.086386700883    12.000000000000
           H         -0.013926310210    -2.344235158188     0.086243700883     1.007825032070
           C          1.297512689790     0.056617841812     0.086434700883    12.000000000000
           O          1.617022689790     1.188581841812    -0.522806299117    15.994914619560
           O          2.106930689790    -0.664328158188     0.580335700883    15.994914619560
           C          2.992517689790     1.524022841812    -0.569319299117    12.000000000000
           H          3.389987689790     1.630252841812     0.429443700883     1.007825032070
           H          3.048110689790     2.463263841812    -1.097133299117     1.007825032070
           H          3.549867689790     0.763325841812    -1.096216299117     1.007825032070

  Charge       = 0
  Multiplicity = 1
  Basis Set: 6-31G*
  Basis Set:

    Orbital Energies (a.u.)
    -----------------------

    Doubly Occupied:

       1A    -20.608657     2A    -20.544919     3A    -11.377932
       4A    -11.283443     5A    -11.247363     6A    -11.244747
       7A    -11.244295     8A    -11.242859     9A    -11.238340
      10A    -11.237852    11A     -1.473407    12A     -1.363740
      13A     -1.165987    14A     -1.049275    15A     -1.025435
      16A     -0.978278    17A     -0.860354    18A     -0.835923
      19A     -0.778343    20A     -0.739353    21A     -0.685133
      22A     -0.677720    23A     -0.672734    24A     -0.631446
      25A     -0.625434    26A     -0.598219    27A     -0.587122
      28A     -0.556813    29A     -0.531445    30A     -0.518817
      31A     -0.505275    32A     -0.499901    33A     -0.458164
      34A     -0.443002    35A     -0.343994    36A     -0.341919

  @DF-RHF Final Energy:  -457.34705442069105

   => Energetics <=

    Nuclear Repulsion Energy =            492.9031910853502723
    One-Electron Energy =               -1600.0651335675565861
    Two-Electron Energy =                 649.8148880615142389
    DFT Exchange-Correlation Energy =       0.0000000000000000
    Empirical Dispersion Energy =           0.0000000000000000
    PCM Polarization Energy =               0.0000000000000000
    EFP Energy =                            0.0000000000000000
    Total Energy =                       -457.3470544206920749

  Mulliken Charges: (a.u.)
   Center  Symbol    Alpha    Beta     Spin     Total
       1     H     0.39565  0.39565  0.00000  0.20869
       2     C     3.09170  3.09170  0.00000 -0.18340
       3     C     3.10519  3.10519  0.00000 -0.21038
       4     C     3.10609  3.10609  0.00000 -0.21217
       5     H     0.39623  0.39623  0.00000  0.20755
       6     C     3.09078  3.09078  0.00000 -0.18156
       7     H     0.39517  0.39517  0.00000  0.20966
       8     C     3.08904  3.08904  0.00000 -0.17808
       9     H     0.38240  0.38240  0.00000  0.23520
      10     C     3.05149  3.05149  0.00000 -0.10298
      11     H     0.38153  0.38153  0.00000  0.23695
      12     C     2.60430  2.60430  0.00000  0.79140
      13     O     4.30751  4.30751  0.00000 -0.61502
      14     O     4.28753  4.28753  0.00000 -0.57507
      15     C     3.09298  3.09298  0.00000 -0.18597
      16     H     0.40765  0.40765  0.00000  0.18471
      17     H     0.40753  0.40753  0.00000  0.18494
      18     H     0.40724  0.40724  0.00000  0.18553

   Total alpha = 36.00000, Total beta = 36.00000, Total charge = -0.00000
