  ==> Input File <==

--------------------------------------------------------------------------
set {
	reference rhf
	basis 6-31G*
}

set_num_threads( 1 )
memory 2 gb

molecule MOL {
0 1

H	 -3.161837	 0.500524	 -0.000234
C	 -2.367097	 -0.232926	 -0.000000
O	 -1.158440	 0.455814	 -0.000122
H	 -2.468853	 -0.861886	 -0.882833
H	 -2.468942	 -0.861421	 0.883154
C	 -0.029776	 -0.365156	 0.000148
C	 1.196563	 0.487551	 0.275184
H	 0.067794	 -0.869507	 -0.962146
H	 -0.129937	 -1.140765	 0.760612
C	 2.486051	 -0.332056	 0.293798
H	 1.255098	 1.261355	 -0.484067
H	 1.058837	 0.991976	 1.226649
H	 2.655459	 -0.826258	 -0.658825
H	 3.344354	 0.300946	 0.492468
H	 2.457554	 -1.098135	 1.063678

	symmetry c1
}
set optking {
	frozen_dihedral = ("
		6 3 2 4,
		11 7 6 8
	")
}

ee = energy('scf')
oeprop('DIPOLE', 'QUADRUPOLE', 'MULLIKEN_CHARGES')
f=open( 'psi4out.xyz', 'w' )
f.write( "15  " )
f.write( str(ee) + "\n" )
f.write( MOL.save_string_xyz() )
f.close()
--------------------------------------------------------------------------

    Molecular point group: c1

    Geometry (in Angstrom), charge = 0, multiplicity = 1:

       Center              X                  Y                   Z               Mass
    ------------   -----------------  -----------------  -----------------  -----------------
           H         -3.155487733571     0.509216471622    -0.111979199377     1.007825032070
           C         -2.360747733571    -0.224233528378    -0.111745199377    12.000000000000
           O         -1.152090733571     0.464506471622    -0.111867199377    15.994914619560
           H         -2.462503733571    -0.853193528378    -0.994578199377     1.007825032070
           H         -2.462592733571    -0.852728528378     0.771408800623     1.007825032070
           C         -0.023426733571    -0.356463528378    -0.111597199377    12.000000000000
           C          1.202912266429     0.496243471622     0.163438800623    12.000000000000
           H          0.074143266429    -0.860814528378    -1.073891199377     1.007825032070
           H         -0.123587733571    -1.132072528378     0.648866800623     1.007825032070
           C          2.492400266429    -0.323363528378     0.182052800623    12.000000000000
           H          1.261447266429     1.270047471622    -0.595812199377     1.007825032070
           H          1.065186266429     1.000668471622     1.114903800623     1.007825032070
           H          2.661808266429    -0.817565528378    -0.770570199377     1.007825032070
           H          3.350703266429     0.309638471622     0.380722800623     1.007825032070
           H          2.463903266429    -1.089442528378     0.951932800623     1.007825032070

  Charge       = 0
  Multiplicity = 1
  Basis Set: 6-31G*
  Basis Set:

    Orbital Energies (a.u.)
    -----------------------

    Doubly Occupied:

       1A    -20.553296     2A    -11.266192     3A    -11.264093
       4A    -11.214175     5A    -11.212876     6A     -1.378359
       7A     -1.057213     8A     -0.955344     9A     -0.877385
      10A     -0.809087    11A     -0.674759    12A     -0.653952
      13A     -0.630560    14A     -0.607283    15A     -0.565702
      16A     -0.541006    17A     -0.502800    18A     -0.489194
      19A     -0.478285    20A     -0.461760    21A     -0.413203

  @DF-RHF Final Energy:  -232.13912787713770

   => Energetics <=

    Nuclear Repulsion Energy =            189.7698557636829833
    One-Electron Energy =                -690.6049307616235637
    Two-Electron Energy =                 268.6959471208032255
    DFT Exchange-Correlation Energy =       0.0000000000000000
    Empirical Dispersion Energy =           0.0000000000000000
    PCM Polarization Energy =               0.0000000000000000
    EFP Energy =                            0.0000000000000000
    Total Energy =                       -232.1391278771373550

  Mulliken Charges: (a.u.)
   Center  Symbol    Alpha    Beta     Spin     Total
       1     H     0.41226  0.41226  0.00000  0.17548
       2     C     3.07949  3.07949  0.00000 -0.15897
       3     O     4.30578  4.30578  0.00000 -0.61155
       4     H     0.43060  0.43060  0.00000  0.13881
       5     H     0.43010  0.43010  0.00000  0.13980
       6     C     2.98162  2.98162  0.00000  0.03675
       7     C     3.15963  3.15963  0.00000 -0.31926
       8     H     0.43233  0.43233  0.00000  0.13534
       9     H     0.43412  0.43412  0.00000  0.13176
      10     C     3.24798  3.24798  0.00000 -0.49596
      11     H     0.41401  0.41401  0.00000  0.17198
      12     H     0.41491  0.41491  0.00000  0.17018
      13     H     0.42070  0.42070  0.00000  0.15860
      14     H     0.41543  0.41543  0.00000  0.16913
      15     H     0.42105  0.42105  0.00000  0.15791

   Total alpha = 21.00000, Total beta = 21.00000, Total charge =  0.00000
