  ==> Input File <==

--------------------------------------------------------------------------
set {
	reference rhf
	basis cc-pvtz
}

set_num_threads( 4 )
memory 2 gb

molecule MOL {
0 1

H	 2.321806	 -0.083504	 0.275399
O	 1.564952	 -0.649559	 0.290245
C	 0.489979	 0.078084	 0.002623
C	 -0.763662	 -0.754014	 0.000816
O	 0.554721	 1.236277	 -0.226088
C	 -2.038001	 0.074705	 -0.000833
H	 -0.712945	 -1.405886	 -0.864342
H	 -0.715137	 -1.405770	 0.866182
H	 -2.087267	 0.710831	 -0.874232
H	 -2.903419	 -0.576199	 -0.001922
H	 -2.089467	 0.710909	 0.872389

	symmetry c1
}
set optking {
	frozen_dihedral = ("
		2 3 4 7
	")
}

ee = optimize('scf')
oeprop('DIPOLE', 'QUADRUPOLE', 'MULLIKEN_CHARGES')
f=open( 'psi4out.xyz', 'w' )
f.write( "11  " )
f.write( str(ee) + "\n" )
f.write( MOL.save_string_xyz() )
f.close()
--------------------------------------------------------------------------

    Molecular point group: c1
  Charge       = 0
  Multiplicity = 1
  Basis Set: CC-PVTZ
  Basis Set:
  @DF-RHF Final Energy:  -266.95306612135892
    Total Energy =                       -266.9530661213589156
    Molecular point group: c1
  Basis Set: CC-PVTZ
  Basis Set:
  Basis Set: CC-PVTZ
  Basis Set:
  @DF-RHF Final Energy:  -266.95312752550092
    Total Energy =                       -266.9531275255007472
  Basis Set: CC-PVTZ
  Basis Set:
  Basis Set: CC-PVTZ
  Basis Set:
  @DF-RHF Final Energy:  -266.95304717147440
    Total Energy =                       -266.9530471714745090
  Basis Set: CC-PVTZ
  Basis Set:
  Basis Set: CC-PVTZ
  Basis Set:
  @DF-RHF Final Energy:  -266.95313973595876
    Total Energy =                       -266.9531397359588709
  Basis Set: CC-PVTZ
  Basis Set:
  Charge       = 0
  Multiplicity = 1
  Basis Set: CC-PVTZ
  Basis Set:

    Orbital Energies (a.u.)
    -----------------------

    Doubly Occupied:

       1A    -20.605385     2A    -20.541403     3A    -11.374453
       4A    -11.242839     5A    -11.219050     6A     -1.478796
       7A     -1.370273     8A     -1.066443     9A     -0.918607
      10A     -0.804251    11A     -0.705994    12A     -0.693530
      13A     -0.664739    14A     -0.598864    15A     -0.596616
      16A     -0.533908    17A     -0.526932    18A     -0.506403
      19A     -0.484974    20A     -0.448751

  @DF-RHF Final Energy:  -266.95313988069336

   => Energetics <=

    Nuclear Repulsion Energy =            180.1589828777924822
    One-Electron Energy =                -721.4598177618229329
    Two-Electron Energy =                 274.3476950033370940
    DFT Exchange-Correlation Energy =       0.0000000000000000
    Empirical Dispersion Energy =           0.0000000000000000
    PCM Polarization Energy =               0.0000000000000000
    EFP Energy =                            0.0000000000000000
    Total Energy =                       -266.9531398806933566
    Molecular point group: c1
  Basis Set: CC-PVTZ
  Basis Set:

  -Total Gradient:
     Atom            X                  Y                   Z
    ------   -----------------  -----------------  -----------------
       1        0.000001756806     0.000001392381    -0.000000060975
       2       -0.000066699889     0.000115189188     0.000627125030
       3        0.000014004110    -0.000031483532    -0.000921272622
       4        0.000393775960    -0.000595083713     0.000705153853
       5        0.000004773096    -0.000015978560     0.000004269955
       6        0.000008171821    -0.000006989717     0.000006005291
       7       -0.000351892720     0.000526646931    -0.000414358270
       8       -0.000000418818     0.000003244903    -0.000003529774
       9       -0.000000965114     0.000000940587    -0.000002314629
      10       -0.000001717480     0.000001082667    -0.000000799668
      11       -0.000000787769     0.000001038864    -0.000000218192

  **** Optimization is complete! (in 5 steps) ****
    Final optimized geometry and variables:
    Molecular point group: c1

    Geometry (in Angstrom), charge = 0, multiplicity = 1:

    H            2.328100637424    -0.085064626425     0.222672900915
    O            1.570607445107    -0.649443739025     0.262135112603
    C            0.490639177929     0.076182639438    -0.011143357084
    C           -0.762724541863    -0.757348854243    -0.004762156980
    O            0.550687860046     1.235036250526    -0.237658776065
    C           -2.036503566433     0.073278278254    -0.025972774115
    H           -0.707885198411    -1.400283664433    -0.877883412401
    H           -0.723778522879    -1.412528212284     0.856458571237
    H           -2.069047611859     0.711580647808    -0.897884628976
    H           -2.902735800576    -0.576416937620    -0.042114960575
    H           -2.103176487598     0.706952200823     0.848931909832

  Mulliken Charges: (a.u.)
   Center  Symbol    Alpha    Beta     Spin     Total
       1     H     0.38153  0.38153  0.00000  0.23694
       2     O     4.16031  4.16031  0.00000 -0.32062
       3     C     2.80360  2.80360  0.00000  0.39280
       4     C     3.09995  3.09995  0.00000 -0.19989
       5     O     4.19114  4.19114  0.00000 -0.38228
       6     C     3.13938  3.13938  0.00000 -0.27876
       7     H     0.44133  0.44133  0.00000  0.11734
       8     H     0.43779  0.43779  0.00000  0.12442
       9     H     0.44541  0.44541  0.00000  0.10917
      10     H     0.44961  0.44961  0.00000  0.10078
      11     H     0.44995  0.44995  0.00000  0.10011

   Total alpha = 20.00000, Total beta = 20.00000, Total charge = -0.00000
