  ==> Input File <==

--------------------------------------------------------------------------
set {
	reference rhf
	basis 6-31G*
}

set_num_threads( 1 )
memory 2 gb

molecule MOL {
0 1

H	 -2.480252	 -0.367224	 -0.644784
N	 -1.852125	 0.165761	 -0.074816
C	 -0.563778	 -0.502042	 0.037919
H	 -2.282358	 0.253572	 0.826264
C	 0.575259	 0.508231	 -0.048326
H	 -0.482092	 -1.204004	 -0.786564
H	 -0.460411	 -1.085169	 0.956626
C	 1.954651	 -0.143624	 0.035137
H	 0.475158	 1.060484	 -0.977307
H	 0.469181	 1.234488	 0.755973
H	 2.103292	 -0.853109	 -0.774172
H	 2.742821	 0.599562	 -0.030094
H	 2.083613	 -0.679371	 0.971560

	symmetry c1
}
set optking {
	frozen_dihedral = ("
		6 3 5 9
	")
}

ee = energy('scf')
oeprop('DIPOLE', 'QUADRUPOLE', 'MULLIKEN_CHARGES')
f=open( 'psi4out.xyz', 'w' )
f.write( "13  " )
f.write( str(ee) + "\n" )
f.write( MOL.save_string_xyz() )
f.close()
--------------------------------------------------------------------------

    Molecular point group: c1

    Geometry (in Angstrom), charge = 0, multiplicity = 1:

       Center              X                  Y                   Z               Mass
    ------------   -----------------  -----------------  -----------------  -----------------
           H         -2.477612316825    -0.360842601897    -0.637148359189     1.007825032070
           N         -1.849485316825     0.172142398103    -0.067180359189    14.003074004780
           C         -0.561138316825    -0.495660601897     0.045554640811    12.000000000000
           H         -2.279718316825     0.259953398103     0.833899640811     1.007825032070
           C          0.577898683175     0.514612398103    -0.040690359189    12.000000000000
           H         -0.479452316825    -1.197622601897    -0.778928359189     1.007825032070
           H         -0.457771316825    -1.078787601897     0.964261640811     1.007825032070
           C          1.957290683175    -0.137242601897     0.042772640811    12.000000000000
           H          0.477797683175     1.066865398103    -0.969671359189     1.007825032070
           H          0.471820683175     1.240869398103     0.763608640811     1.007825032070
           H          2.105931683175    -0.846727601897    -0.766536359189     1.007825032070
           H          2.745460683175     0.605943398103    -0.022458359189     1.007825032070
           H          2.086252683175    -0.672989601897     0.979195640811     1.007825032070

  Charge       = 0
  Multiplicity = 1
  Basis Set: 6-31G*
  Basis Set:

    Orbital Energies (a.u.)
    -----------------------

    Doubly Occupied:

       1A    -15.532634     2A    -11.240381     3A    -11.205779
       4A    -11.205162     5A     -1.176671     6A     -1.032133
       7A     -0.897309     8A     -0.793811     9A     -0.674021
      10A     -0.615439    11A     -0.600555    12A     -0.572398
      13A     -0.517873    14A     -0.488228    15A     -0.483822
      16A     -0.463234    17A     -0.380240

  @DF-RHF Final Energy:  -173.27978432554752

   => Energetics <=

    Nuclear Repulsion Energy =            131.6422836682890818
    One-Electron Energy =                -494.0848715254063563
    Two-Electron Energy =                 189.1628035315698924
    DFT Exchange-Correlation Energy =       0.0000000000000000
    Empirical Dispersion Energy =           0.0000000000000000
    PCM Polarization Energy =               0.0000000000000000
    EFP Energy =                            0.0000000000000000
    Total Energy =                       -173.2797843255473538

  Mulliken Charges: (a.u.)
   Center  Symbol    Alpha    Beta     Spin     Total
       1     H     0.33143  0.33143  0.00000  0.33713
       2     N     3.92275  3.92275  0.00000 -0.84551
       3     C     3.06728  3.06728  0.00000 -0.13457
       4     H     0.33309  0.33309  0.00000  0.33381
       5     C     3.13972  3.13972  0.00000 -0.27944
       6     H     0.42457  0.42457  0.00000  0.15085
       7     H     0.42987  0.42987  0.00000  0.14025
       8     C     3.24570  3.24570  0.00000 -0.49139
       9     H     0.41676  0.41676  0.00000  0.16648
      10     H     0.42394  0.42394  0.00000  0.15213
      11     H     0.42313  0.42313  0.00000  0.15374
      12     H     0.41814  0.41814  0.00000  0.16372
      13     H     0.42360  0.42360  0.00000  0.15280

   Total alpha = 17.00000, Total beta = 17.00000, Total charge =  0.00000
