  ==> Input File <==

--------------------------------------------------------------------------
set {
	reference rhf
	basis 6-31G*
}

set_num_threads( 4 )
memory 2 gb

molecule MOL {
0 1

H	 1.136379	 0.211822	 1.465562
C	 1.135357	 0.094285	 0.374742
C	 0.065331	 0.871482	 -0.349150
O	 1.941633	 -0.601957	 -0.151457
C	 0.351010	 1.001133	 -1.852167
H	 -0.029226	 1.843225	 0.121687
H	 -0.872935	 0.337050	 -0.207023
C	 1.578895	 1.858173	 -2.162336
H	 -0.521749	 1.431929	 -2.332496
H	 0.475951	 0.010006	 -2.283094
H	 1.459759	 2.863570	 -1.770532
H	 1.736285	 1.933887	 -3.233229
H	 2.481607	 1.441688	 -1.725254

	symmetry c1
}
set optking {
	frozen_dihedral = ("
		6 3 2 4
	")
}

ee = optimize('scf')
oeprop('DIPOLE', 'QUADRUPOLE', 'MULLIKEN_CHARGES')
f=open( 'psi4out.xyz', 'w' )
f.write( "13  " )
f.write( str(ee) + "\n" )
f.write( MOL.save_string_xyz() )
f.close()
--------------------------------------------------------------------------

    Molecular point group: c1
  Charge       = 0
  Multiplicity = 1
  Basis Set: 6-31G*
  Basis Set:
  @DF-RHF Final Energy:  -230.98512783048346
    Total Energy =                       -230.9851278304836342
    Molecular point group: c1
  Basis Set: 6-31G*
  Basis Set:
  Basis Set: 6-31G*
  Basis Set:
  @DF-RHF Final Energy:  -230.98479640278961
    Total Energy =                       -230.9847964027895841
  Basis Set: 6-31G*
  Basis Set:
  Basis Set: 6-31G*
  Basis Set:
  @DF-RHF Final Energy:  -230.98529440337742
    Total Energy =                       -230.9852944033772815
  Basis Set: 6-31G*
  Basis Set:
  Basis Set: 6-31G*
  Basis Set:
  @DF-RHF Final Energy:  -230.98589094710744
    Total Energy =                       -230.9858909471073503
  Basis Set: 6-31G*
  Basis Set:
  Basis Set: 6-31G*
  Basis Set:
  @DF-RHF Final Energy:  -230.98590204293544
    Total Energy =                       -230.9859020429353791
  Basis Set: 6-31G*
  Basis Set:
  Basis Set: 6-31G*
  Basis Set:
  @DF-RHF Final Energy:  -230.98590311260219
    Total Energy =                       -230.9859031126021023
  Basis Set: 6-31G*
  Basis Set:
  Basis Set: 6-31G*
  Basis Set:
  @DF-RHF Final Energy:  -230.98590525675408
    Total Energy =                       -230.9859052567542790
  Basis Set: 6-31G*
  Basis Set:
  Charge       = 0
  Multiplicity = 1
  Basis Set: 6-31G*
  Basis Set:

    Orbital Energies (a.u.)
    -----------------------

    Doubly Occupied:

       1A    -20.564786     2A    -11.329637     3A    -11.238054
       4A    -11.225237     5A    -11.210691     6A     -1.405110
       7A     -1.077834     8A     -0.972424     9A     -0.850732
      10A     -0.765184    11A     -0.686417    12A     -0.637358
      13A     -0.626312    14A     -0.583824    15A     -0.563754
      16A     -0.520997    17A     -0.496092    18A     -0.483921
      19A     -0.480850    20A     -0.412292

  @DF-RHF Final Energy:  -230.98590555960411

   => Energetics <=

    Nuclear Repulsion Energy =            176.2877941741388383
    One-Electron Energy =                -662.2843872167461541
    Two-Electron Energy =                 255.0106874830030961
    DFT Exchange-Correlation Energy =       0.0000000000000000
    Empirical Dispersion Energy =           0.0000000000000000
    PCM Polarization Energy =               0.0000000000000000
    EFP Energy =                            0.0000000000000000
    Total Energy =                       -230.9859055596041912
    Molecular point group: c1
  Basis Set: 6-31G*
  Basis Set:

  -Total Gradient:
     Atom            X                  Y                   Z
    ------   -----------------  -----------------  -----------------
       1       -0.000001835101     0.000003697913    -0.000000314159
       2        0.000795962798     0.001072008378     0.000046257673
       3        0.000583506564     0.000063501089    -0.000711016421
       4       -0.000665578343    -0.000787062491     0.000046807925
       5       -0.000009887742     0.000000674089     0.000021104350
       6       -0.000701823971    -0.000341665367     0.000581363239
       7       -0.000001355042    -0.000002342709     0.000003074175
       8        0.000003585918     0.000000212678     0.000004988858
       9       -0.000004401377    -0.000006060561    -0.000003470257
      10        0.000001096869     0.000002454735     0.000002950278
      11        0.000000482084    -0.000002040618     0.000003250264
      12       -0.000001946541    -0.000003960048     0.000003663488
      13        0.000002193885     0.000000582910     0.000001340584

  **** Optimization is complete! (in 8 steps) ****
    Final optimized geometry and variables:
    Molecular point group: c1

    Geometry (in Angstrom), charge = 0, multiplicity = 1:

    H            0.021251320903    -0.488914485354     2.321315121622
    C            0.086167215653    -0.568792722142     1.230210533426
    C           -0.934966724510     0.241662964115     0.469627128603
    O            0.893718324481    -1.285407442942     0.733070673545
    C           -0.668524117958     0.365074147199    -1.029990278218
    H           -1.020329562757     1.217256852266     0.944697460351
    H           -1.892896588097    -0.248449066771     0.648262312644
    C            0.532496501776     1.250630479508    -1.362500485754
    H           -1.557810684330     0.771925132490    -1.502967197003
    H           -0.517325736237    -0.625698299033    -1.443298488759
    H            0.395554518130     2.257289599070    -0.975966267315
    H            0.667233665189     1.326667890990    -2.436625557591
    H            1.446532563166     0.847431085550    -0.942479127328

  Mulliken Charges: (a.u.)
   Center  Symbol    Alpha    Beta     Spin     Total
       1     H     0.42735  0.42735  0.00000  0.14529
       2     C     2.83591  2.83591  0.00000  0.32817
       3     C     3.21276  3.21276  0.00000 -0.42552
       4     O     4.23833  4.23833  0.00000 -0.47667
       5     C     3.15153  3.15153  0.00000 -0.30306
       6     H     0.41065  0.41065  0.00000  0.17870
       7     H     0.40344  0.40344  0.00000  0.19312
       8     C     3.24536  3.24536  0.00000 -0.49072
       9     H     0.41863  0.41863  0.00000  0.16273
      10     H     0.40644  0.40644  0.00000  0.18712
      11     H     0.42482  0.42482  0.00000  0.15035
      12     H     0.41697  0.41697  0.00000  0.16607
      13     H     0.40780  0.40780  0.00000  0.18441

   Total alpha = 20.00000, Total beta = 20.00000, Total charge = -0.00000
