                              Psi4 1.0.54 Driver

  ==> Input File <==

--------------------------------------------------------------------------
set {
	reference rhf
	basis cc-pvtz
}

set_num_threads( 4 )
memory 2 gb

molecule MOL {
0 1

O	 -2.071633	 -1.227563	 -0.223463
C	 -1.652164	 -0.152425	 0.058082
C	 -0.327811	 0.006324	 0.778296
C	 -2.402515	 1.108629	 -0.298924
C	 0.843231	 -0.001575	 -0.211665
H	 -0.319484	 0.928173	 1.350354
H	 -0.227804	 -0.823091	 1.466705
C	 2.197693	 0.138030	 0.476937
H	 0.722944	 0.805202	 -0.930230
H	 0.813976	 -0.926978	 -0.776588
C	 2.079593	 0.549768	 1.940387
H	 2.735456	 -0.803611	 0.408767
H	 2.795191	 0.870800	 -0.057464
H	 1.516106	 -0.182226	 2.509334
H	 1.573713	 1.504170	 2.038217
H	 3.056537	 0.644365	 2.399769
H	 -3.240910	 0.874416	 -0.936711
H	 -1.747554	 1.818823	 -0.790984
H	 -2.760419	 1.579708	 0.610998

	symmetry c1
}
set optking {
	frozen_dihedral = ("
		11 8 5 9
	")
}

ee,wfn = optimize('scf', return_wfn=True)
oeprop( wfn, 'DIPOLE', 'QUADRUPOLE', 'MULLIKEN_CHARGES')
f=open( 'psi4out.xyz', 'w' )
f.write( "19  " )
f.write( str(ee) + "\n" )
f.write( MOL.save_string_xyz() )
f.close()
--------------------------------------------------------------------------

    Molecular point group: c1
  Charge       = 0
  Multiplicity = 1
  Basis Set: CC-PVTZ
  Basis Set:
  @DF-RHF Final Energy:  -309.16406922185087
    Total Energy =                       -309.1640692218510367
    Molecular point group: c1
  Basis Set: CC-PVTZ
  Basis Set:
  Basis Set: CC-PVTZ
  Basis Set:
  @DF-RHF Final Energy:  -309.11981170109641
    Total Energy =                       -309.1198117010964097
  Basis Set: CC-PVTZ
  Basis Set:
  Basis Set: CC-PVTZ
  Basis Set:
  @DF-RHF Final Energy:  -309.16486815432791
    Total Energy =                       -309.1648681543274506
  Basis Set: CC-PVTZ
  Basis Set:
  Basis Set: CC-PVTZ
  Basis Set:
  @DF-RHF Final Energy:  -309.16799786334673
    Total Energy =                       -309.1679978633468409
  Basis Set: CC-PVTZ
  Basis Set:
  @DF-RHF Final Energy:  -309.16827026298245
    Total Energy =                       -309.1682702629825030
  @DF-RHF Final Energy:  -309.16823035471225
    Total Energy =                       -309.1682303547116817
  @DF-RHF Final Energy:  -309.16827750584406
    Total Energy =                       -309.1682775058441734
  Basis Set: CC-PVTZ
  Basis Set:
  @DF-RHF Final Energy:  -309.16831230035103
    Total Energy =                       -309.1683123003510900
  Basis Set: CC-PVTZ
  Basis Set:
  Basis Set: CC-PVTZ
  Basis Set:
  @DF-RHF Final Energy:  -309.16831025003944
    Total Energy =                       -309.1683102500397240
  Basis Set: CC-PVTZ
  Basis Set:
  Basis Set: CC-PVTZ
  Basis Set:
  @DF-RHF Final Energy:  -309.16831678606491
    Total Energy =                       -309.1683167860649064
  Basis Set: CC-PVTZ
  Basis Set:
  Charge       = 0
  Multiplicity = 1
  Basis Set: CC-PVTZ
  Basis Set:

    Orbital Energies (a.u.)
    -----------------------

    Doubly Occupied:

       1A    -20.536766     2A    -11.319315     3A    -11.228885
       4A    -11.227717     5A    -11.226860     6A    -11.223510
       7A    -11.214531     8A     -1.396962     9A     -1.089207
      10A     -1.027950    11A     -0.982398    12A     -0.904225
      13A     -0.795802    14A     -0.734910    15A     -0.662089
      16A     -0.654513    17A     -0.622660    18A     -0.606462
      19A     -0.589841    20A     -0.569570    21A     -0.554078
      22A     -0.544654    23A     -0.524242    24A     -0.504210
      25A     -0.481196    26A     -0.469123    27A     -0.458406
      28A     -0.399756

  @DF-RHF Final Energy:  -309.16831694448052

   => Energetics <=

    Nuclear Repulsion Energy =            305.3652749609815942
    One-Electron Energy =               -1023.9675068190584852
    Two-Electron Energy =                 409.4339149135964817
    DFT Exchange-Correlation Energy =       0.0000000000000000
    Empirical Dispersion Energy =           0.0000000000000000
    PCM Polarization Energy =               0.0000000000000000
    EFP Energy =                            0.0000000000000000
    Total Energy =                       -309.1683169444804662
    Molecular point group: c1
  Basis Set: CC-PVTZ
  Basis Set:

  -Total Gradient:
     Atom            X                  Y                   Z
    ------   -----------------  -----------------  -----------------
       1       -0.000001726441    -0.000027780932    -0.000014577726
       2        0.000001749318     0.000031381202    -0.000028398298
       3        0.000006455485     0.000009778674     0.000018359676
       4       -0.000028633905    -0.000022232594     0.000044983909
       5       -0.000996786221     0.001109137035     0.004824665661
       6        0.000005119415     0.000004048002     0.000006373620
       7       -0.000002431520    -0.000007592642     0.000011627455
       8        0.000733729585     0.004202547233    -0.001487860539
       9        0.000673223137    -0.002081940230    -0.003775470089
      10        0.000001000645    -0.000001973204    -0.000005200388
      11       -0.000414601995    -0.003235990743     0.000428863360
      12       -0.000007101472    -0.000009171472    -0.000009548453
      13        0.000001908088     0.000005225048    -0.000007033441
      14        0.000000240383    -0.000006289865     0.000005631368
      15       -0.000006176613     0.000009936545     0.000009326979
      16        0.000009235502     0.000003171619    -0.000001100330
      17        0.000001927214    -0.000001578112    -0.000005061624
      18        0.000016005976     0.000003787141    -0.000015101179
      19        0.000006863414     0.000015537297    -0.000000479959

  **** Optimization is complete! (in 11 steps) ****
    Final optimized geometry and variables:
    Molecular point group: c1

    Geometry (in Angstrom), charge = 0, multiplicity = 1:

    O           -2.132672498448    -0.966435906507    -0.457714328460
    C           -1.549042515696    -0.016701719599    -0.047222799553
    C           -0.124701073201    -0.131543356751     0.459947693452
    C           -2.185524774612     1.352655180903    -0.019515012086
    C            0.861491331348    -0.037283892061    -0.711601531613
    H            0.071053154065     0.643642285720     1.190555647358
    H           -0.032581722686    -1.093006496496     0.947310984902
    C            2.364688894006    -0.181057788481    -0.365711236461
    H            0.706276660125     0.890688496478    -1.253315421471
    H            0.597083899505    -0.815879041510    -1.416966994210
    C            2.756322342013    -0.039397166052     1.104112329828
    H            2.698951848691    -1.157339095912    -0.699603480606
    H            2.925852642419     0.538743327337    -0.950182239582
    H            2.280342529838    -0.789667690217     1.722948929769
    H            2.498156127409     0.935367048105     1.503872246807
    H            3.827907470869    -0.159747175234     1.212352758052
    H           -3.127195906304     1.335480133159    -0.546306478478
    H           -1.526099769720     2.092257210686    -0.459334626749
    H           -2.353672662233     1.645647671111     1.011946731879

  Mulliken Charges: (a.u.)
   Center  Symbol    Alpha    Beta     Spin     Total
       1     O     4.17779  4.17779  0.00000 -0.35558
       2     C     2.85652  2.85652  0.00000  0.28695
       3     C     3.10142  3.10142  0.00000 -0.20284
       4     C     3.15616  3.15616  0.00000 -0.31231
       5     C     3.10834  3.10834  0.00000 -0.21668
       6     H     0.44659  0.44659  0.00000  0.10681
       7     H     0.43778  0.43778  0.00000  0.12445
       8     C     3.08767  3.08767  0.00000 -0.17535
       9     H     0.44931  0.44931  0.00000  0.10139
      10     H     0.43904  0.43904  0.00000  0.12192
      11     C     3.15852  3.15852  0.00000 -0.31704
      12     H     0.44934  0.44934  0.00000  0.10131
      13     H     0.44886  0.44886  0.00000  0.10228
      14     H     0.45110  0.45110  0.00000  0.09780
      15     H     0.45421  0.45421  0.00000  0.09158
      16     H     0.44244  0.44244  0.00000  0.11512
      17     H     0.43590  0.43590  0.00000  0.12819
      18     H     0.45061  0.45061  0.00000  0.09877
      19     H     0.44839  0.44839  0.00000  0.10321

   Total alpha = 28.00000, Total beta = 28.00000, Total charge = -0.00000

*** Psi4 exiting successfully. Buy a developer a beer!
