  ==> Input File <==

--------------------------------------------------------------------------
set {
	reference rhf
	basis 6-31G*
}

set_num_threads( 1 )
memory 2 gb

molecule MOL {
0 1

O	 -0.682937	 1.318834	 -0.186099
C	 -0.860635	 0.152188	 -0.042321
C	 -2.173363	 -0.477127	 0.338347
O	 0.083258	 -0.765189	 -0.202595
H	 -2.477673	 -1.180929	 -0.427595
H	 -2.923125	 0.290956	 0.455536
H	 -2.058825	 -1.029004	 1.264191
C	 0.723623	 -1.289369	 0.958424
C	 -0.082776	 -2.415621	 1.578041
H	 0.887803	 -0.489740	 1.664666
H	 1.678989	 -1.647376	 0.602606
H	 0.464853	 -2.843551	 2.412133
H	 -1.033732	 -2.051906	 1.946499
H	 -0.263802	 -3.199909	 0.851036

	symmetry c1
}
set optking {
	frozen_dihedral = ("
		10 8 4 2
	")
}

ee = energy('scf')
oeprop('DIPOLE', 'QUADRUPOLE', 'MULLIKEN_CHARGES')
f=open( 'psi4out.xyz', 'w' )
f.write( "14  " )
f.write( str(ee) + "\n" )
f.write( MOL.save_string_xyz() )
f.close()
--------------------------------------------------------------------------

    Molecular point group: c1

    Geometry (in Angstrom), charge = 0, multiplicity = 1:

       Center              X                  Y                   Z               Mass
    ------------   -----------------  -----------------  -----------------  -----------------
           O         -0.182326841125     1.906554161138    -0.601879179334    15.994914619560
           C         -0.360024841125     0.739908161138    -0.458101179334    12.000000000000
           C         -1.672752841125     0.110593161138    -0.077433179334    12.000000000000
           O          0.583868158875    -0.177468838862    -0.618375179334    15.994914619560
           H         -1.977062841125    -0.593208838862    -0.843375179334     1.007825032070
           H         -2.422514841125     0.878676161138     0.039755820666     1.007825032070
           H         -1.558214841125    -0.441283838862     0.848410820666     1.007825032070
           C          1.224233158875    -0.701648838862     0.542643820666    12.000000000000
           C          0.417834158875    -1.827900838862     1.162260820666    12.000000000000
           H          1.388413158875     0.097980161138     1.248885820666     1.007825032070
           H          2.179599158875    -1.059655838862     0.186825820666     1.007825032070
           H          0.965463158875    -2.255830838862     1.996352820666     1.007825032070
           H         -0.533121841125    -1.464185838862     1.530718820666     1.007825032070
           H          0.236808158875    -2.612188838862     0.435255820666     1.007825032070

  Charge       = 0
  Multiplicity = 1
  Basis Set: 6-31G*
  Basis Set:

    Orbital Energies (a.u.)
    -----------------------

    Doubly Occupied:

       1A    -20.585468     2A    -20.554018     3A    -11.376159
       4A    -11.302452     5A    -11.232868     6A    -11.231800
       7A     -1.462068     8A     -1.367519     9A     -1.052894
      10A     -1.017478    11A     -0.890036    12A     -0.774390
      13A     -0.699509    14A     -0.690826    15A     -0.667670
      16A     -0.607984    17A     -0.600072    18A     -0.587665
      19A     -0.570113    20A     -0.549485    21A     -0.503704
      22A     -0.484228    23A     -0.455011    24A     -0.438499

  @DF-RHF Final Energy:  -305.84202757372884

   => Energetics <=

    Nuclear Repulsion Energy =            250.6037577100651390
    One-Electron Energy =                -913.4876707728649308
    Two-Electron Energy =                 357.0418854890712623
    DFT Exchange-Correlation Energy =       0.0000000000000000
    Empirical Dispersion Energy =           0.0000000000000000
    PCM Polarization Energy =               0.0000000000000000
    EFP Energy =                            0.0000000000000000
    Total Energy =                       -305.8420275737285579

  Mulliken Charges: (a.u.)
   Center  Symbol    Alpha    Beta     Spin     Total
       1     O     4.25508  4.25508  0.00000 -0.51016
       2     C     2.62905  2.62905  0.00000  0.74190
       3     C     3.28765  3.28765  0.00000 -0.57530
       4     O     4.30993  4.30993  0.00000 -0.61986
       5     H     0.39886  0.39886  0.00000  0.20228
       6     H     0.39815  0.39815  0.00000  0.20370
       7     H     0.41096  0.41096  0.00000  0.17807
       8     C     3.00821  3.00821  0.00000 -0.01642
       9     C     3.25346  3.25346  0.00000 -0.50692
      10     H     0.41062  0.41062  0.00000  0.17875
      11     H     0.40038  0.40038  0.00000  0.19924
      12     H     0.41364  0.41364  0.00000  0.17272
      13     H     0.41672  0.41672  0.00000  0.16656
      14     H     0.40729  0.40729  0.00000  0.18543

   Total alpha = 24.00000, Total beta = 24.00000, Total charge = -0.00000
