                              Psi4 1.0.54 Driver

  ==> Input File <==

--------------------------------------------------------------------------
set {
	reference rhf
	basis cc-pvtz
}

set_num_threads( 4 )
memory 2 gb

molecule MOL {
0 1

O	 0.623971	 1.347241	 -0.000777
C	 0.485107	 0.171416	 -0.000134
C	 1.606966	 -0.836201	 0.000174
O	 -0.695554	 -0.422406	 0.000602
C	 2.988788	 -0.202529	 -0.000115
H	 1.465110	 -1.474645	 -0.864821
H	 1.465209	 -1.474077	 0.865596
H	 3.131767	 0.419673	 -0.873407
H	 3.750876	 -0.972315	 0.000098
H	 3.131883	 0.420264	 0.872742
C	 -1.190120	 -0.915991	 -1.236356
C	 -2.538751	 -1.545311	 -0.976282
H	 -0.487732	 -1.633701	 -1.636219
H	 -1.262702	 -0.098068	 -1.939248
H	 -2.453764	 -2.362067	 -0.270549
H	 -2.945732	 -1.933521	 -1.902507
H	 -3.233174	 -0.817701	 -0.575370

	symmetry c1
}
set optking {
	frozen_dihedral = ("
		11 4 2 3
	")
}

ee,wfn = optimize('scf', return_wfn=True)
oeprop( wfn, 'DIPOLE', 'QUADRUPOLE', 'MULLIKEN_CHARGES')
f=open( 'psi4out.xyz', 'w' )
f.write( "17  " )
f.write( str(ee) + "\n" )
f.write( MOL.save_string_xyz() )
f.close()
--------------------------------------------------------------------------

    Molecular point group: c1
  Charge       = 0
  Multiplicity = 1
  Basis Set: CC-PVTZ
  Basis Set:
  @DF-RHF Final Energy:  -345.01908632152487
    Total Energy =                       -345.0190863215249237
    Molecular point group: c1
  Basis Set: CC-PVTZ
  Basis Set:
  Basis Set: CC-PVTZ
  Basis Set:
  @DF-RHF Final Energy:  -345.02016834521544
    Total Energy =                       -345.0201683452157226
  Basis Set: CC-PVTZ
  Basis Set:
  Basis Set: CC-PVTZ
  Basis Set:
  @DF-RHF Final Energy:  -345.02010455787297
    Total Energy =                       -345.0201045578728554
  Basis Set: CC-PVTZ
  Basis Set:
  Basis Set: CC-PVTZ
  Basis Set:
  @DF-RHF Final Energy:  -345.02101634282241
    Total Energy =                       -345.0210163428228043
  Basis Set: CC-PVTZ
  Basis Set:
  Basis Set: CC-PVTZ
  Basis Set:
  @DF-RHF Final Energy:  -345.02106131783518
    Total Energy =                       -345.0210613178350059
  Basis Set: CC-PVTZ
  Basis Set:
  Basis Set: CC-PVTZ
  Basis Set:
  @DF-RHF Final Energy:  -345.02106602496889
    Total Energy =                       -345.0210660249684906
  Basis Set: CC-PVTZ
  Basis Set:
  Charge       = 0
  Multiplicity = 1
  Basis Set: CC-PVTZ
  Basis Set:

    Orbital Energies (a.u.)
    -----------------------

    Doubly Occupied:

       1A    -20.575720     2A    -20.543492     3A    -11.366455
       4A    -11.294213     5A    -11.241065     6A    -11.222845
       7A    -11.217293     8A     -1.459881     9A     -1.368870
      10A     -1.065474    11A     -1.039022    12A     -0.904305
      13A     -0.867702    14A     -0.770981    15A     -0.703651
      16A     -0.686899    17A     -0.658226    18A     -0.640211
      19A     -0.604144    20A     -0.564400    21A     -0.557454
      22A     -0.533014    23A     -0.527870    24A     -0.521127
      25A     -0.507870    26A     -0.489074    27A     -0.453846
      28A     -0.437085

  @DF-RHF Final Energy:  -345.02106630106442

   => Energetics <=

    Nuclear Repulsion Energy =            314.8738318224173440
    One-Electron Energy =               -1094.1454113448958196
    Two-Electron Energy =                 434.2505132214141099
    DFT Exchange-Correlation Energy =       0.0000000000000000
    Empirical Dispersion Energy =           0.0000000000000000
    PCM Polarization Energy =               0.0000000000000000
    EFP Energy =                            0.0000000000000000
    Total Energy =                       -345.0210663010644225
    Molecular point group: c1
  Basis Set: CC-PVTZ
  Basis Set:

  -Total Gradient:
     Atom            X                  Y                   Z
    ------   -----------------  -----------------  -----------------
       1       -0.000021219742    -0.000013556158    -0.000003143233
       2        0.000183493345    -0.000307999227     0.000976470995
       3        0.000016630459     0.000020150185    -0.000616611260
       4       -0.000464553979     0.000931645826    -0.000442189599
       5       -0.000006082110    -0.000008818095     0.000000150407
       6        0.000002525959    -0.000004300210    -0.000009229554
       7        0.000007063153    -0.000011205450    -0.000001241435
       8       -0.000004413093     0.000000305457    -0.000002587890
       9       -0.000004578556    -0.000002209689     0.000000723915
      10        0.000000406551     0.000001055918     0.000002231831
      11        0.000302566726    -0.000598098132     0.000110012201
      12       -0.000011337041     0.000005408106    -0.000011381169
      13        0.000004103514    -0.000000744503     0.000013995153
      14       -0.000016040413    -0.000008039313    -0.000010838191
      15        0.000008343052     0.000003592575    -0.000001975160
      16       -0.000002479012    -0.000006294906    -0.000003777584
      17        0.000005571185    -0.000000892377    -0.000000609427

  **** Optimization is complete! (in 7 steps) ****
    Final optimized geometry and variables:
    Molecular point group: c1

    Geometry (in Angstrom), charge = 0, multiplicity = 1:

    O            0.422263577322     1.643905747078     0.381611165031
    C            0.332151471006     0.473054281528     0.315120738483
    C            1.507815401510    -0.473206210963     0.297562069886
    O           -0.872357557711    -0.132731555266     0.311486615279
    C            2.856830513501     0.227274861162     0.328334878819
    H            1.420633570532    -1.105194776892    -0.579548495870
    H            1.386406878594    -1.134606961602     1.149263741206
    H            2.979143513155     0.874294147078    -0.530178327438
    H            3.656839387390    -0.503026030527     0.323066068089
    H            2.956168761239     0.837911461652     1.215313771508
    C           -1.384146120042    -0.612710229092    -0.918437852345
    C           -2.784651397481    -1.124802794541    -0.676166185575
    H           -0.751640116697    -1.406258790514    -1.300939916977
    H           -1.391635821896     0.196526074970    -1.640082327320
    H           -2.775731874456    -1.927144279475     0.050535328948
    H           -3.205331866417    -1.501039523675    -1.601399100478
    H           -3.418338316679    -0.330936307301    -0.303854775710

  Mulliken Charges: (a.u.)
   Center  Symbol    Alpha    Beta     Spin     Total
       1     O     4.16881  4.16881  0.00000 -0.33761
       2     C     2.79824  2.79824  0.00000  0.40353
       3     C     3.11009  3.11009  0.00000 -0.22019
       4     O     4.16707  4.16707  0.00000 -0.33413
       5     C     3.13880  3.13880  0.00000 -0.27761
       6     H     0.44611  0.44611  0.00000  0.10779
       7     H     0.43939  0.43939  0.00000  0.12122
       8     H     0.44897  0.44897  0.00000  0.10206
       9     H     0.45086  0.45086  0.00000  0.09828
      10     H     0.44539  0.44539  0.00000  0.10922
      11     C     2.97865  2.97865  0.00000  0.04270
      12     C     3.13370  3.13370  0.00000 -0.26740
      13     H     0.46345  0.46345  0.00000  0.07310
      14     H     0.45813  0.45813  0.00000  0.08373
      15     H     0.45009  0.45009  0.00000  0.09981
      16     H     0.45700  0.45700  0.00000  0.08601
      17     H     0.44527  0.44527  0.00000  0.10947

   Total alpha = 28.00000, Total beta = 28.00000, Total charge = -0.00000

*** Psi4 exiting successfully. Buy a developer a beer!
