  ==> Input File <==

--------------------------------------------------------------------------
set {
	reference rhf
	basis cc-pvtz
}

set_num_threads( 4 )
memory 2 gb

molecule MOL {
0 1

H	 2.828711	 -0.346904	 0.001083
C	 1.876752	 0.015931	 -0.363450
C	 0.776285	 -0.474665	 0.563092
H	 1.728113	 -0.357244	 -1.367440
H	 1.906171	 1.096574	 -0.386153
N	 -0.540022	 0.017605	 0.071630
H	 0.707111	 -1.548969	 0.573035
H	 0.886169	 -0.084184	 1.560432
O	 -1.507516	 -0.554394	 0.447088
O	 -0.529107	 0.930233	 -0.684272

	symmetry c1
}
set optking {
	frozen_dihedral = ("
		9 6 3 2
	")
}

ee = optimize('scf')
oeprop('DIPOLE', 'QUADRUPOLE', 'MULLIKEN_CHARGES')
f=open( 'psi4out.xyz', 'w' )
f.write( "10  " )
f.write( str(ee) + "\n" )
f.write( MOL.save_string_xyz() )
f.close()
--------------------------------------------------------------------------

    Molecular point group: c1
  Charge       = 0
  Multiplicity = 1
  Basis Set: CC-PVTZ
  Basis Set:
  @DF-RHF Final Energy:  -282.81121981520005
    Total Energy =                       -282.8112198151999337
    Molecular point group: c1
  Basis Set: CC-PVTZ
  Basis Set:
  Basis Set: CC-PVTZ
  Basis Set:
  @DF-RHF Final Energy:  -282.80888300974135
    Total Energy =                       -282.8088830097413506
  Basis Set: CC-PVTZ
  Basis Set:
  Basis Set: CC-PVTZ
  Basis Set:
  @DF-RHF Final Energy:  -282.80983440043121
    Total Energy =                       -282.8098344004312708
  Basis Set: CC-PVTZ
  Basis Set:
  Basis Set: CC-PVTZ
  Basis Set:
  @DF-RHF Final Energy:  -282.81282163110444
    Total Energy =                       -282.8128216311046117
  Basis Set: CC-PVTZ
  Basis Set:
  Basis Set: CC-PVTZ
  Basis Set:
  @DF-RHF Final Energy:  -282.81290942584644
    Total Energy =                       -282.8129094258463283
  Basis Set: CC-PVTZ
  Basis Set:
  Basis Set: CC-PVTZ
  Basis Set:
  @DF-RHF Final Energy:  -282.81292178079269
    Total Energy =                       -282.8129217807925215
  Basis Set: CC-PVTZ
  Basis Set:
  Charge       = 0
  Multiplicity = 1
  Basis Set: CC-PVTZ
  Basis Set:

    Orbital Energies (a.u.)
    -----------------------

    Doubly Occupied:

       1A    -20.593993     2A    -20.590041     3A    -15.839552
       4A    -11.303153     5A    -11.244113     6A     -1.638565
       7A     -1.422862     8A     -1.124085     9A     -0.966955
      10A     -0.835362    11A     -0.763706    12A     -0.751165
      13A     -0.732150    14A     -0.641229    15A     -0.594038
      16A     -0.564163    17A     -0.538909    18A     -0.490152
      19A     -0.479820    20A     -0.455588

  @DF-RHF Final Energy:  -282.81292261633564

   => Energetics <=

    Nuclear Repulsion Energy =            186.5710436564586132
    One-Electron Energy =                -755.6287291529635013
    Two-Electron Energy =                 286.2447628801692758
    DFT Exchange-Correlation Energy =       0.0000000000000000
    Empirical Dispersion Energy =           0.0000000000000000
    PCM Polarization Energy =               0.0000000000000000
    EFP Energy =                            0.0000000000000000
    Total Energy =                       -282.8129226163355838
    Molecular point group: c1
  Basis Set: CC-PVTZ
  Basis Set:

  -Total Gradient:
     Atom            X                  Y                   Z
    ------   -----------------  -----------------  -----------------
       1       -0.000013472150     0.000001456125     0.000003139876
       2       -0.000002352057     0.000104786052     0.000043293232
       3       -0.000003682493    -0.000131793805    -0.000049927415
       4        0.000011519964     0.000006884182     0.000000350640
       5        0.000013696156     0.000014368626    -0.000019675146
       6       -0.000048242917    -0.000053033656    -0.000134719677
       7       -0.000033236239    -0.000004592401     0.000018254514
       8       -0.000028475753     0.000006418543    -0.000002275138
       9        0.000026716845     0.000013265180     0.000158868577
      10        0.000077528644     0.000042241156    -0.000017309463

  **** Optimization is complete! (in 7 steps) ****
    Final optimized geometry and variables:
    Molecular point group: c1

    Geometry (in Angstrom), charge = 0, multiplicity = 1:

    H            2.853274954445    -0.381272990243     0.016789161401
    C            1.925862596892     0.017011696154    -0.376144609692
    C            0.796919933931    -0.446510383995     0.516088441528
    H            1.799840962138    -0.344644571845    -1.387431973506
    H            1.992971956956     1.093564490933    -0.402336859997
    N           -0.547514552422     0.020092574316     0.059506061849
    H            0.712954702223    -1.518695547942     0.573817833767
    H            0.883779287844    -0.058512006218     1.521266264803
    O           -1.479080726886    -0.585355033268     0.471950371792
    O           -0.603695366331     0.966204326301    -0.649332917510

  Mulliken Charges: (a.u.)
   Center  Symbol    Alpha    Beta     Spin     Total
       1     H     0.44935  0.44935  0.00000  0.10129
       2     C     3.13915  3.13915  0.00000 -0.27830
       3     C     3.04282  3.04282  0.00000 -0.08564
       4     H     0.44418  0.44418  0.00000  0.11164
       5     H     0.43856  0.43856  0.00000  0.12289
       6     N     3.27643  3.27643  0.00000  0.44714
       7     H     0.43155  0.43155  0.00000  0.13690
       8     H     0.43529  0.43529  0.00000  0.12941
       9     O     4.17248  4.17248  0.00000 -0.34495
      10     O     4.17019  4.17019  0.00000 -0.34038

   Total alpha = 20.00000, Total beta = 20.00000, Total charge =  0.00000
