  ==> Input File <==

--------------------------------------------------------------------------
set {
	reference rhf
	basis cc-pvtz
}

set_num_threads( 4 )
memory 2 gb

molecule MOL {
0 1

H	 2.614283	 2.028610	 0.296620
O	 3.358864	 1.662087	 -0.142800
C	 3.565468	 0.338079	 0.273842
C	 2.533667	 -0.637565	 -0.272227
H	 4.548038	 0.064914	 -0.086598
H	 3.593945	 0.282242	 1.360360
C	 1.114816	 -0.402372	 0.240993
H	 2.544552	 -0.580764	 -1.356576
H	 2.850574	 -1.642962	 -0.005497
C	 0.113298	 -1.420414	 -0.302504
H	 0.796373	 0.598427	 -0.031033
H	 1.113377	 -0.446476	 1.328807
C	 0.000118	 -2.712324	 0.508923
H	 -0.866471	 -0.954327	 -0.373512
H	 0.399557	 -1.677348	 -1.318628
C	 -0.596732	 -2.548459	 1.905584
H	 -0.614900	 -3.412722	 -0.049399
H	 0.982506	 -3.172311	 0.589423
C	 -0.780776	 -3.876218	 2.636058
H	 -1.559200	 -2.047526	 1.826901
H	 0.034275	 -1.902119	 2.508144
C	 -1.373002	 -3.715926	 4.032290
H	 -1.422173	 -4.524620	 2.045496
H	 0.178491	 -4.381877	 2.708031
H	 -2.348109	 -3.241838	 3.991728
H	 -1.492713	 -4.676049	 4.521105
H	 -0.735129	 -3.102798	 4.660418

	symmetry c1
}
set optking {
	frozen_dihedral = ("
		14 10 7 4
	")
}

ee = optimize('scf')
oeprop('DIPOLE', 'QUADRUPOLE', 'MULLIKEN_CHARGES')
f=open( 'psi4out.xyz', 'w' )
f.write( "27  " )
f.write( str(ee) + "\n" )
f.write( MOL.save_string_xyz() )
f.close()
--------------------------------------------------------------------------

    Molecular point group: c1
  Charge       = 0
  Multiplicity = 1
  Basis Set: CC-PVTZ
  Basis Set:
  @DF-RHF Final Energy:  -388.42432115813517
    Total Energy =                       -388.4243211581351716
    Molecular point group: c1
  Basis Set: CC-PVTZ
  Basis Set:
  Basis Set: CC-PVTZ
  Basis Set:
  @DF-RHF Final Energy:  -388.42457393031930
    Total Energy =                       -388.4245739303194114
  Basis Set: CC-PVTZ
  Basis Set:
  Basis Set: CC-PVTZ
  Basis Set:
  @DF-RHF Final Energy:  -388.42482144662432
    Total Energy =                       -388.4248214466242644
  Basis Set: CC-PVTZ
  Basis Set:
  Basis Set: CC-PVTZ
  Basis Set:
  @DF-RHF Final Energy:  -388.42484090231005
    Total Energy =                       -388.4248409023105069
  Basis Set: CC-PVTZ
  Basis Set:
  Basis Set: CC-PVTZ
  Basis Set:
  @DF-RHF Final Energy:  -388.42484501021920
    Total Energy =                       -388.4248450102190873
  Basis Set: CC-PVTZ
  Basis Set:
  Charge       = 0
  Multiplicity = 1
  Basis Set: CC-PVTZ
  Basis Set:

    Orbital Energies (a.u.)
    -----------------------

    Doubly Occupied:

       1A    -20.545245     2A    -11.264990     3A    -11.217031
       4A    -11.214779     5A    -11.214292     6A    -11.213587
       7A    -11.213324     8A    -11.212201     9A    -11.207739
      10A     -1.363182    11A     -1.095996    12A     -1.062038
      13A     -1.011312    14A     -0.950403    15A     -0.888142
      16A     -0.827451    17A     -0.802164    18A     -0.772272
      19A     -0.696160    20A     -0.656873    21A     -0.630781
      22A     -0.618372    23A     -0.604520    24A     -0.584077
      25A     -0.579913    26A     -0.554037    27A     -0.543868
      28A     -0.528074    29A     -0.510843    30A     -0.503870
      31A     -0.481932    32A     -0.476487    33A     -0.464386
      34A     -0.457544    35A     -0.449725    36A     -0.443189
      37A     -0.428077

  @DF-RHF Final Energy:  -388.42484560078736

   => Energetics <=

    Nuclear Repulsion Energy =            462.1733716600166986
    One-Electron Energy =               -1442.6186867116559824
    Two-Electron Energy =                 592.0204694508516923
    DFT Exchange-Correlation Energy =       0.0000000000000000
    Empirical Dispersion Energy =           0.0000000000000000
    PCM Polarization Energy =               0.0000000000000000
    EFP Energy =                            0.0000000000000000
    Total Energy =                       -388.4248456007875347
    Molecular point group: c1
  Basis Set: CC-PVTZ
  Basis Set:

  -Total Gradient:
     Atom            X                  Y                   Z
    ------   -----------------  -----------------  -----------------
       1       -0.000005635947     0.000007655905     0.000001921323
       2       -0.000024389406     0.000010324485     0.000008679967
       3        0.000037364633    -0.000019420986    -0.000036409344
       4       -0.000406593209     0.001163648895    -0.001429346636
       5        0.000011304428    -0.000004018005     0.000005520852
       6       -0.000010725642    -0.000001362732    -0.000009646607
       7        0.000663086556    -0.001423924744     0.001441221792
       8        0.000003406476     0.000000836450     0.000005858026
       9        0.000000294609     0.000002122085     0.000002460252
      10       -0.000710844381    -0.000512325550     0.002496618684
      11        0.000019352384     0.000016165472     0.000012656297
      12        0.000006941186    -0.000002299009     0.000005425174
      13       -0.000008684821     0.000008978729    -0.000022438449
      14        0.000423964130     0.000760750687    -0.002482220825
      15       -0.000001248432    -0.000002693390    -0.000012503383
      16       -0.000010623750    -0.000008400453    -0.000011740414
      17        0.000002020097     0.000001686134     0.000011298334
      18        0.000000983443    -0.000006030999    -0.000005249963
      19        0.000012361990     0.000002746264     0.000026291583
      20       -0.000000197111     0.000000107774     0.000003945413
      21        0.000001304405    -0.000001534170    -0.000001600275
      22       -0.000004756362    -0.000002186705    -0.000006672363
      23       -0.000000807630     0.000009559564    -0.000001824368
      24        0.000002119280    -0.000000214659    -0.000001186505
      25       -0.000000768309     0.000002225310     0.000001912045
      26       -0.000001768073    -0.000000901165    -0.000002290567
      27        0.000002539459    -0.000001495191    -0.000000680045

  **** Optimization is complete! (in 6 steps) ****
    Final optimized geometry and variables:
    Molecular point group: c1

    Geometry (in Angstrom), charge = 0, multiplicity = 1:

    H            1.750929818587     3.435757985086    -0.633892618346
    O            2.477890808663     3.087622470004    -1.115622131134
    C            2.687686705412     1.742870744722    -0.774152659977
    C            1.620351451061     0.805297484027    -1.318397487220
    H            3.649631140354     1.478675163210    -1.192333654894
    H            2.764986508747     1.633539123490     0.305896469531
    C            0.223739436331     1.047608976108    -0.746361564961
    H            1.588351453850     0.906186737778    -2.398709491452
    H            1.935082653995    -0.213294508251    -1.105817902554
    C           -0.822647689550     0.040416699983    -1.246188770677
    H           -0.096881627331     2.045228400762    -1.029814044985
    H            0.266644699126     1.038148131555     0.339003606644
    C           -0.909659165103    -1.263861212619    -0.449305732119
    H           -1.799782013236     0.513140409964    -1.273040057446
    H           -0.593640533371    -0.198569578458    -2.280787942537
    C           -1.583244116556    -1.129055772709     0.915213979626
    H           -1.464565315734    -1.990670610773    -1.035634052236
    H            0.085814847243    -1.681436935362    -0.320921847507
    C           -1.664793984588    -2.449129718586     1.677314791883
    H           -2.587005639686    -0.733738727433     0.777224869324
    H           -1.053481468152    -0.403438712079     1.525452520376
    C           -2.350719183078    -2.318066909149     3.033076284324
    H           -2.197197475602    -3.179325236686     1.074009307326
    H           -0.662486351409    -2.844645779218     1.818103881102
    H           -3.367914657985    -1.956777842921     2.923747973964
    H           -2.392542530643    -3.271910429637     3.546334058720
    H           -1.821243462649    -1.620968561484     3.674194074924

  Mulliken Charges: (a.u.)
   Center  Symbol    Alpha    Beta     Spin     Total
       1     H     0.39226  0.39226  0.00000  0.21547
       2     O     4.20563  4.20563  0.00000 -0.41126
       3     C     2.97935  2.97935  0.00000  0.04129
       4     C     3.08632  3.08632  0.00000 -0.17264
       5     H     0.44861  0.44861  0.00000  0.10278
       6     H     0.46977  0.46977  0.00000  0.06047
       7     C     3.11313  3.11313  0.00000 -0.22626
       8     H     0.45021  0.45021  0.00000  0.09959
       9     H     0.45654  0.45654  0.00000  0.08692
      10     C     3.11116  3.11116  0.00000 -0.22231
      11     H     0.44896  0.44896  0.00000  0.10208
      12     H     0.45110  0.45110  0.00000  0.09780
      13     C     3.09784  3.09784  0.00000 -0.19568
      14     H     0.44508  0.44508  0.00000  0.10984
      15     H     0.44709  0.44709  0.00000  0.10582
      16     C     3.08633  3.08633  0.00000 -0.17267
      17     H     0.44701  0.44701  0.00000  0.10599
      18     H     0.45322  0.45322  0.00000  0.09357
      19     C     3.08424  3.08424  0.00000 -0.16848
      20     H     0.45454  0.45454  0.00000  0.09092
      21     H     0.45460  0.45460  0.00000  0.09079
      22     C     3.14977  3.14977  0.00000 -0.29954
      23     H     0.45386  0.45386  0.00000  0.09229
      24     H     0.45458  0.45458  0.00000  0.09084
      25     H     0.45501  0.45501  0.00000  0.08998
      26     H     0.44814  0.44814  0.00000  0.10373
      27     H     0.45566  0.45566  0.00000  0.08868

   Total alpha = 37.00000, Total beta = 37.00000, Total charge = -0.00000
