                              Psi4 1.0.54 Driver

  ==> Input File <==

--------------------------------------------------------------------------
set {
	reference rhf
	basis cc-pvtz
}

set_num_threads( 4 )
memory 2 gb

molecule MOL {
0 1

O	 -2.081319	 -0.951530	 -0.502732
N	 -1.613558	 0.006676	 0.014756
C	 -0.329345	 -0.171618	 0.743966
O	 -2.068523	 1.100482	 -0.024385
C	 0.835904	 0.041968	 -0.213982
H	 -0.346048	 -1.174374	 1.137184
H	 -0.333613	 0.555559	 1.538590
C	 2.177039	 -0.130175	 0.494460
H	 0.754456	 -0.665923	 -1.030569
H	 0.765464	 1.037260	 -0.637266
C	 2.055226	 -0.005608	 2.009097
H	 2.878014	 0.612911	 0.125821
H	 2.595563	 -1.100521	 0.244112
H	 1.670366	 0.967987	 2.291396
H	 1.384014	 -0.756785	 2.410251
H	 3.019015	 -0.132712	 2.486712

	symmetry c1
}
set optking {
	frozen_dihedral = ("
		11 8 5 9
	")
}

ee,wfn = optimize('scf', return_wfn=True)
oeprop( wfn, 'DIPOLE', 'QUADRUPOLE', 'MULLIKEN_CHARGES')
f=open( 'psi4out.xyz', 'w' )
f.write( "16  " )
f.write( str(ee) + "\n" )
f.write( MOL.save_string_xyz() )
f.close()
--------------------------------------------------------------------------

    Molecular point group: c1
  Charge       = 0
  Multiplicity = 1
  Basis Set: CC-PVTZ
  Basis Set:
  @DF-RHF Final Energy:  -360.89819703151642
    Total Energy =                       -360.8981970315166450
    Molecular point group: c1
  Basis Set: CC-PVTZ
  Basis Set:
  Basis Set: CC-PVTZ
  Basis Set:
  @DF-RHF Final Energy:  -360.89803143825253
    Total Energy =                       -360.8980314382523602
  Basis Set: CC-PVTZ
  Basis Set:
  Basis Set: CC-PVTZ
  Basis Set:
  @DF-RHF Final Energy:  -360.90113302146375
    Total Energy =                       -360.9011330214638633
  Basis Set: CC-PVTZ
  Basis Set:
  Basis Set: CC-PVTZ
  Basis Set:
  @DF-RHF Final Energy:  -360.83868362069160
    Total Energy =                       -360.8386836206914268
  Basis Set: CC-PVTZ
  Basis Set:
  @DF-RHF Final Energy:  -360.89044309073245
    Total Energy =                       -360.8904430907322762
  @DF-RHF Final Energy:  -360.90100545095635
    Total Energy =                       -360.9010054509564611
  @DF-RHF Final Energy:  -360.90155479410822
    Total Energy =                       -360.9015547941081650
  Basis Set: CC-PVTZ
  Basis Set:
  @DF-RHF Final Energy:  -360.90170233433008
    Total Energy =                       -360.9017023343300821
  Basis Set: CC-PVTZ
  Basis Set:
  Basis Set: CC-PVTZ
  Basis Set:
  @DF-RHF Final Energy:  -360.90172892737559
    Total Energy =                       -360.9017289273757569
  Basis Set: CC-PVTZ
  Basis Set:
  Basis Set: CC-PVTZ
  Basis Set:
  @DF-RHF Final Energy:  -360.90173424195831
    Total Energy =                       -360.9017342419583088
  Basis Set: CC-PVTZ
  Basis Set:
  Charge       = 0
  Multiplicity = 1
  Basis Set: CC-PVTZ
  Basis Set:

    Orbital Energies (a.u.)
    -----------------------

    Doubly Occupied:

       1A    -20.589252     2A    -20.589155     3A    -15.835546
       4A    -11.295309     5A    -11.251145     6A    -11.242122
       7A    -11.230319     8A     -1.634683     9A     -1.418962
      10A     -1.134935    11A     -1.055992    12A     -0.952823
      13A     -0.857250    14A     -0.815307    15A     -0.760944
      16A     -0.737489    17A     -0.720711    18A     -0.676176
      19A     -0.618112    20A     -0.606894    21A     -0.575232
      22A     -0.558180    23A     -0.510189    24A     -0.500806
      25A     -0.491040    26A     -0.482790    27A     -0.471810
      28A     -0.451216

  @DF-RHF Final Energy:  -360.90173450413374

   => Energetics <=

    Nuclear Repulsion Energy =            317.0137910914278336
    One-Electron Energy =               -1119.7022749999937332
    Two-Electron Energy =                 441.7867494044324985
    DFT Exchange-Correlation Energy =       0.0000000000000000
    Empirical Dispersion Energy =           0.0000000000000000
    PCM Polarization Energy =               0.0000000000000000
    EFP Energy =                            0.0000000000000000
    Total Energy =                       -360.9017345041334011
    Molecular point group: c1
  Basis Set: CC-PVTZ
  Basis Set:

  -Total Gradient:
     Atom            X                  Y                   Z
    ------   -----------------  -----------------  -----------------
       1        0.000023173159     0.000064094785     0.000007374780
       2       -0.000005226138    -0.000070635180    -0.000002439325
       3        0.000011194707     0.000010571712    -0.000007064537
       4       -0.000009801042     0.000001969552    -0.000003968793
       5        0.001794982281     0.001299621097    -0.004994717719
       6        0.000001428469     0.000007198337    -0.000006745858
       7       -0.000001454393    -0.000001705885    -0.000005279629
       8        0.000405144739     0.004885279707    -0.001186432144
       9       -0.001660850926    -0.002416786599     0.004630364098
      10       -0.000006803177    -0.000003481324     0.000008462683
      11       -0.000551551972    -0.003775226612     0.001557200776
      12       -0.000005940773    -0.000002656684     0.000003227591
      13       -0.000003567031     0.000000199490     0.000002320350
      14       -0.000015594287    -0.000000423992    -0.000002247558
      15        0.000013142150    -0.000000457552    -0.000000866970
      16        0.000011724229     0.000002439151     0.000000812252

  **** Optimization is complete! (in 11 steps) ****
    Final optimized geometry and variables:
    Molecular point group: c1

    Geometry (in Angstrom), charge = 0, multiplicity = 1:

    O           -1.954828933945    -1.171316883636    -0.334322761866
    N           -1.488095971657    -0.093901489266    -0.171535111744
    C           -0.142630401670    -0.020654813018     0.460082853948
    O           -1.992381701286     0.929281114175    -0.493934799654
    C            0.916817556472    -0.069081974505    -0.640442396290
    H           -0.081989492333    -0.868574907372     1.120902606182
    H           -0.127863017145     0.902320157484     1.012091745822
    C            2.370461062423    -0.061103876719    -0.115039434305
    H            0.742069587175    -0.987261373176    -1.185771547775
    H            0.746663978764     0.763869179452    -1.309296110956
    C            2.593531773008     0.489654280760     1.292844794835
    H            2.981521990139     0.493021042788    -0.816518850700
    H            2.744463334124    -1.078720350203    -0.132708000069
    H            2.267901366336     1.520196375897     1.385071529445
    H            2.075998223731    -0.094278702437     2.044320595240
    H            3.648931793694     0.461216374957     1.533909033294

  Mulliken Charges: (a.u.)
   Center  Symbol    Alpha    Beta     Spin     Total
       1     O     4.17429  4.17429  0.00000 -0.34858
       2     N     3.27395  3.27395  0.00000  0.45210
       3     C     3.04495  3.04495  0.00000 -0.08989
       4     O     4.17441  4.17441  0.00000 -0.34882
       5     C     3.11034  3.11034  0.00000 -0.22069
       6     H     0.43275  0.43275  0.00000  0.13450
       7     H     0.43266  0.43266  0.00000  0.13467
       8     C     3.09259  3.09259  0.00000 -0.18517
       9     H     0.43476  0.43476  0.00000  0.13047
      10     H     0.43514  0.43514  0.00000  0.12972
      11     C     3.16004  3.16004  0.00000 -0.32008
      12     H     0.44426  0.44426  0.00000  0.11148
      13     H     0.44737  0.44737  0.00000  0.10527
      14     H     0.44973  0.44973  0.00000  0.10054
      15     H     0.45324  0.45324  0.00000  0.09351
      16     H     0.43951  0.43951  0.00000  0.12098

   Total alpha = 28.00000, Total beta = 28.00000, Total charge =  0.00000

*** Psi4 exiting successfully. Buy a developer a beer!
