                              Psi4 1.0.54 Driver

  ==> Input File <==

--------------------------------------------------------------------------
set {
	reference rhf
	basis cc-pvtz
}

set_num_threads( 4 )
memory 2 gb

molecule MOL {
0 1

H	 -0.000105	 1.988529	 0.748933
O	 -0.000098	 1.879786	 -0.188206
C	 -0.000014	 0.545691	 -0.532416
C	 -1.286000	 -0.125171	 -0.046657
C	 1.286016	 -0.125031	 -0.046584
H	 0.000021	 0.481103	 -1.610604
F	 -2.319415	 0.503129	 -0.550794
F	 -1.361230	 -1.380077	 -0.411709
F	 -1.387619	 -0.072823	 1.264185
F	 2.317750	 0.468717	 -0.594166
F	 1.336617	 -1.393765	 -0.365123
F	 1.414467	 -0.024806	 1.259108

	symmetry c1
}
set optking {
	frozen_dihedral = ("
		7 4 3 6
	")
}

ee,wfn = optimize('scf', return_wfn=True)
oeprop( wfn, 'DIPOLE', 'QUADRUPOLE', 'MULLIKEN_CHARGES')
f=open( 'psi4out.xyz', 'w' )
f.write( "12  " )
f.write( str(ee) + "\n" )
f.write( MOL.save_string_xyz() )
f.close()
--------------------------------------------------------------------------

    Molecular point group: c1
  Charge       = 0
  Multiplicity = 1
  Basis Set: CC-PVTZ
  Basis Set:
  @DF-RHF Final Energy:  -786.58947738094162
    Total Energy =                       -786.5894773809413891
    Molecular point group: c1
  Basis Set: CC-PVTZ
  Basis Set:
  Basis Set: CC-PVTZ
  Basis Set:
  @DF-RHF Final Energy:  -786.58949219700037
    Total Energy =                       -786.5894921970004816
  Basis Set: CC-PVTZ
  Basis Set:
  Basis Set: CC-PVTZ
  Basis Set:
  @DF-RHF Final Energy:  -786.58949821710178
    Total Energy =                       -786.5894982171014362
  Basis Set: CC-PVTZ
  Basis Set:
  Charge       = 0
  Multiplicity = 1
  Basis Set: CC-PVTZ
  Basis Set:

    Orbital Energies (a.u.)
    -----------------------

    Doubly Occupied:

       1A    -26.358516     2A    -26.358107     3A    -26.357505
       4A    -26.357113     5A    -26.353901     6A    -26.353572
       7A    -20.610085     8A    -11.519909     9A    -11.519502
      10A    -11.351629    11A     -1.771967    12A     -1.766440
      13A     -1.667719    14A     -1.663335    15A     -1.662979
      16A     -1.660955    17A     -1.439994    18A     -1.103231
      19A     -1.001831    20A     -0.945355    21A     -0.870790
      22A     -0.869034    23A     -0.859444    24A     -0.852208
      25A     -0.839821    26A     -0.822108    27A     -0.749696
      28A     -0.733991    29A     -0.731482    30A     -0.725474
      31A     -0.696281    32A     -0.691793    33A     -0.690281
      34A     -0.681591    35A     -0.677532    36A     -0.669269
      37A     -0.663406    38A     -0.658104    39A     -0.625384
      40A     -0.554018    41A     -0.510341

  @DF-RHF Final Energy:  -786.58949882395029

   => Energetics <=

    Nuclear Repulsion Energy =            670.9015435513302918
    One-Electron Energy =               -2428.9906930393244693
    Two-Electron Energy =                 971.4996506640438838
    DFT Exchange-Correlation Energy =       0.0000000000000000
    Empirical Dispersion Energy =           0.0000000000000000
    PCM Polarization Energy =               0.0000000000000000
    EFP Energy =                            0.0000000000000000
    Total Energy =                       -786.5894988239504073
    Molecular point group: c1
  Basis Set: CC-PVTZ
  Basis Set:

  -Total Gradient:
     Atom            X                  Y                   Z
    ------   -----------------  -----------------  -----------------
       1        0.000002698945     0.000002820655     0.000006053633
       2        0.000006570832     0.000024441098    -0.000004829322
       3       -0.000269089872     0.000464061134     0.000005985779
       4        0.000082968835    -0.000382188836    -0.000400660243
       5        0.000043383672     0.000003544954     0.000060630445
       6        0.000181082319    -0.000332091186     0.000016954747
       7        0.000047328096     0.000159854463     0.000321424676
       8        0.000009152265     0.000049429623    -0.000023508041
       9       -0.000016175233     0.000044784347     0.000040019587
      10       -0.000050771331    -0.000004126338     0.000004538966
      11       -0.000012532193    -0.000060425858    -0.000045153008
      12       -0.000024616335     0.000029895943     0.000018542777

  **** Optimization is complete! (in 4 steps) ****
    Final optimized geometry and variables:
    Molecular point group: c1

    Geometry (in Angstrom), charge = 0, multiplicity = 1:

    H            0.026937295689     1.983477585328     0.766317622313
    O            0.010721105838     1.882992506343    -0.171618818360
    C           -0.000758547360     0.552133515867    -0.527483468481
    C           -1.286578435737    -0.118379691285    -0.041416957413
    C            1.283796649040    -0.130753224429    -0.054143110371
    H           -0.006018404862     0.495031800127    -1.606124959859
    F           -2.320536317117     0.515823278845    -0.536125391378
    F           -1.364388481121    -1.369981117778    -0.417060602627
    F           -1.384236964428    -0.076306688540     1.270319515694
    F            2.314448314567     0.441214517722    -0.626390286458
    F            1.311364728186    -1.404365508433    -0.355881609252
    F            1.435449016770    -0.014556181486     1.247709946396

  Mulliken Charges: (a.u.)
   Center  Symbol    Alpha    Beta     Spin     Total
       1     H     0.38130  0.38130  0.00000  0.23741
       2     O     4.18979  4.18979  0.00000 -0.37958
       3     C     3.00476  3.00476  0.00000 -0.00953
       4     C     2.68573  2.68573  0.00000  0.62854
       5     C     2.68532  2.68532  0.00000  0.62935
       6     H     0.42426  0.42426  0.00000  0.15148
       7     F     4.60173  4.60173  0.00000 -0.20347
       8     F     4.60257  4.60257  0.00000 -0.20513
       9     F     4.61004  4.61004  0.00000 -0.22008
      10     F     4.60207  4.60207  0.00000 -0.20414
      11     F     4.60226  4.60226  0.00000 -0.20451
      12     F     4.61016  4.61016  0.00000 -0.22033

   Total alpha = 41.00000, Total beta = 41.00000, Total charge = -0.00000

*** Psi4 exiting successfully. Buy a developer a beer!
