                              Psi4 1.0.54 Driver

  ==> Input File <==

--------------------------------------------------------------------------
set {
	reference rhf
	basis cc-pvtz
}

set_num_threads( 4 )
memory 2 gb

molecule MOL {
0 1

H	 -2.561553	 -1.285425	 -0.150816
C	 -2.879063	 -0.470854	 -0.816057
C	 -2.653809	 0.914422	 -0.273689
O	 -3.365438	 -0.719017	 -1.864466
C	 -1.216901	 1.136108	 0.207794
H	 -2.935203	 1.631817	 -1.033620
H	 -3.334478	 1.033101	 0.566496
C	 -0.247837	 0.040196	 -0.230469
H	 -0.872882	 2.093195	 -0.169002
H	 -1.209325	 1.218376	 1.291938
C	 1.181757	 0.280428	 0.247371
H	 -0.259600	 -0.030819	 -1.314870
H	 -0.591284	 -0.923375	 0.136958
C	 2.151032	 -0.811012	 -0.202643
H	 1.515939	 1.247397	 -0.115449
H	 1.191514	 0.341223	 1.333422
C	 3.580021	 -0.656538	 0.320835
H	 2.170545	 -0.847575	 -1.289412
H	 1.766632	 -1.772905	 0.124928
C	 4.327657	 0.562694	 -0.213579
H	 4.138806	 -1.549270	 0.057813
H	 3.561991	 -0.620783	 1.406976
H	 4.355973	 0.557257	 -1.298551
H	 3.867136	 1.491650	 0.100501
H	 5.351524	 0.571613	 0.142204

	symmetry c1
}
set optking {
	frozen_dihedral = ("
		6 3 5 8
	")
}

ee,wfn = optimize('scf', return_wfn=True)
oeprop( wfn, 'DIPOLE', 'QUADRUPOLE', 'MULLIKEN_CHARGES')
f=open( 'psi4out.xyz', 'w' )
f.write( "25  " )
f.write( str(ee) + "\n" )
f.write( MOL.save_string_xyz() )
f.close()
--------------------------------------------------------------------------

    Molecular point group: c1
  Charge       = 0
  Multiplicity = 1
  Basis Set: CC-PVTZ
  Basis Set:
  @DF-RHF Final Energy:  -387.24991278939399
    Total Energy =                       -387.2499127893941022
    Molecular point group: c1
  Basis Set: CC-PVTZ
  Basis Set:
  Basis Set: CC-PVTZ
  Basis Set:
  @DF-RHF Final Energy:  -387.14068724709927
    Total Energy =                       -387.1406872470990947
  Basis Set: CC-PVTZ
  Basis Set:
  Basis Set: CC-PVTZ
  Basis Set:
  @DF-RHF Final Energy:  -387.23217736462226
    Total Energy =                       -387.2321773646223164
  Basis Set: CC-PVTZ
  Basis Set:
  Basis Set: CC-PVTZ
  Basis Set:
  @DF-RHF Final Energy:  -387.25150909003139
    Total Energy =                       -387.2515090900312771
  Basis Set: CC-PVTZ
  Basis Set:
  @DF-RHF Final Energy:  -387.24330284021909
    Total Energy =                       -387.2433028402191439
  @DF-RHF Final Energy:  -387.25219805867437
    Total Energy =                       -387.2521980586744803
  @DF-RHF Final Energy:  -387.25173067698739
    Total Energy =                       -387.2517306769873358
  @DF-RHF Final Energy:  -387.25265556207393
    Total Energy =                       -387.2526555620739828
  Basis Set: CC-PVTZ
  Basis Set:
  @DF-RHF Final Energy:  -387.25268861335690
    Total Energy =                       -387.2526886133571224
  Basis Set: CC-PVTZ
  Basis Set:
  Basis Set: CC-PVTZ
  Basis Set:
  @DF-RHF Final Energy:  -387.25268971785221
    Total Energy =                       -387.2526897178521494
  Basis Set: CC-PVTZ
  Basis Set:
  Basis Set: CC-PVTZ
  Basis Set:
  @DF-RHF Final Energy:  -387.25269081481758
    Total Energy =                       -387.2526908148174698
  Basis Set: CC-PVTZ
  Basis Set:
  Charge       = 0
  Multiplicity = 1
  Basis Set: CC-PVTZ
  Basis Set:

    Orbital Energies (a.u.)
    -----------------------

    Doubly Occupied:

       1A    -20.550123     2A    -11.320252     3A    -11.233408
       4A    -11.232854     5A    -11.223542     6A    -11.218419
       7A    -11.216709     8A    -11.215693     9A    -11.208863
      10A     -1.405036    11A     -1.103644    12A     -1.068407
      13A     -1.013784    14A     -0.944106    15A     -0.878014
      16A     -0.830531    17A     -0.783150    18A     -0.775335
      19A     -0.676545    20A     -0.655426    21A     -0.632889
      22A     -0.626901    23A     -0.609134    24A     -0.591390
      25A     -0.576511    26A     -0.552736    27A     -0.539517
      28A     -0.525033    29A     -0.505153    30A     -0.498814
      31A     -0.494386    32A     -0.472804    33A     -0.465388
      34A     -0.460389    35A     -0.443930    36A     -0.410204

  @DF-RHF Final Energy:  -387.25269114372628

   => Energetics <=

    Nuclear Repulsion Energy =            440.9824718589296140
    One-Electron Energy =               -1398.5522804979027569
    Two-Electron Energy =                 570.3171174952469755
    DFT Exchange-Correlation Energy =       0.0000000000000000
    Empirical Dispersion Energy =           0.0000000000000000
    PCM Polarization Energy =               0.0000000000000000
    EFP Energy =                            0.0000000000000000
    Total Energy =                       -387.2526911437262243
    Molecular point group: c1
  Basis Set: CC-PVTZ
  Basis Set:

  -Total Gradient:
     Atom            X                  Y                   Z
    ------   -----------------  -----------------  -----------------
       1        0.000023725079    -0.000033595130     0.000031613715
       2       -0.000026951668     0.000044633948    -0.000047096902
       3        0.001686227009    -0.001966311789    -0.003231790111
       4        0.000006461411     0.000001363829     0.000031040641
       5        0.000229957313     0.003244507895    -0.001204126377
       6       -0.001456409014     0.000838504288     0.003061145453
       7       -0.000015042172    -0.000004057049    -0.000006151855
       8       -0.000438794668    -0.002122035581     0.001358425225
       9        0.000002356444     0.000002498725     0.000001799559
      10        0.000001412087    -0.000004836565     0.000004569491
      11       -0.000015197953    -0.000002506956    -0.000000336522
      12       -0.000006510718    -0.000000764343    -0.000007934307
      13       -0.000003703922     0.000003233603     0.000002635197
      14       -0.000003324001     0.000000564325     0.000003936346
      15        0.000001628411     0.000001754232     0.000003477816
      16        0.000006068713     0.000001264416     0.000003540616
      17       -0.000000493048    -0.000004450853    -0.000008011071
      18       -0.000000817563    -0.000003390842    -0.000001617561
      19        0.000000677653     0.000001396064    -0.000000227290
      20       -0.000000156177    -0.000000360044     0.000001396671
      21        0.000006775450     0.000000829953     0.000004296455
      22        0.000002150295     0.000001878725    -0.000004297340
      23       -0.000002168998    -0.000002023802     0.000004295869
      24       -0.000001909137     0.000001501825    -0.000001448650
      25        0.000004039178     0.000000401126     0.000000864932

  **** Optimization is complete! (in 12 steps) ****
    Final optimized geometry and variables:
    Molecular point group: c1

    Geometry (in Angstrom), charge = 0, multiplicity = 1:

    H           -2.824783358448    -1.633358789555    -0.565226797594
    C           -3.011349177809    -0.602173237443    -0.886619025548
    C           -2.861325921986     0.449793459743     0.178084197273
    O           -3.333489824237    -0.383094268145    -2.003357595102
    C           -1.450203255000     0.567005614244     0.813979988194
    H           -3.182106128140     1.396948775682    -0.232396657071
    H           -3.576883505932     0.193468868030     0.955432598100
    C           -0.316457486752    -0.146258779381     0.074280513593
    H           -1.208884719587     1.619775038683     0.896179907753
    H           -1.483647084864     0.188012775433     1.829301445398
    C            1.047658899032     0.117052582023     0.706840233278
    H           -0.296909941942     0.173196535479    -0.964373419644
    H           -0.497142621148    -1.216829498268     0.062003593178
    C            2.186386354873    -0.602872366404    -0.013083614941
    H            1.229766207478     1.186883808666     0.714610302910
    H            1.027181886771    -0.197665824892     1.747947560063
    C            3.563010333536    -0.431095649651     0.631391948860
    H            2.229942671601    -0.263126326817    -1.045173057939
    H            1.955872369724    -1.663922273166    -0.053792902569
    C            4.114683131963     0.991906366598     0.589043211987
    H            4.261933667388    -1.089657575523     0.125222105425
    H            3.520872252246    -0.770914596579     1.662939192660
    H            4.160939641806     1.361212410065    -0.430430997901
    H            3.506721092324     1.680827982880     1.162985349530
    H            5.118089684647     1.026827969124     0.997594225704

  Mulliken Charges: (a.u.)
   Center  Symbol    Alpha    Beta     Spin     Total
       1     H     0.46183  0.46183  0.00000  0.07633
       2     C     2.90331  2.90331  0.00000  0.19338
       3     C     3.08638  3.08638  0.00000 -0.17276
       4     O     4.16932  4.16932  0.00000 -0.33864
       5     C     3.10565  3.10565  0.00000 -0.21129
       6     H     0.44155  0.44155  0.00000  0.11690
       7     H     0.44704  0.44704  0.00000  0.10592
       8     C     3.10032  3.10032  0.00000 -0.20065
       9     H     0.44506  0.44506  0.00000  0.10988
      10     H     0.44823  0.44823  0.00000  0.10353
      11     C     3.09416  3.09416  0.00000 -0.18833
      12     H     0.44271  0.44271  0.00000  0.11457
      13     H     0.45235  0.45235  0.00000  0.09530
      14     C     3.09523  3.09523  0.00000 -0.19045
      15     H     0.45082  0.45082  0.00000  0.09836
      16     H     0.45424  0.45424  0.00000  0.09152
      17     C     3.09097  3.09097  0.00000 -0.18195
      18     H     0.45191  0.45191  0.00000  0.09618
      19     H     0.44937  0.44937  0.00000  0.10127
      20     C     3.15270  3.15270  0.00000 -0.30540
      21     H     0.44774  0.44774  0.00000  0.10452
      22     H     0.45488  0.45488  0.00000  0.09024
      23     H     0.45404  0.45404  0.00000  0.09193
      24     H     0.45424  0.45424  0.00000  0.09152
      25     H     0.44595  0.44595  0.00000  0.10809

   Total alpha = 36.00000, Total beta = 36.00000, Total charge = -0.00000

*** Psi4 exiting successfully. Buy a developer a beer!
