  ==> Input File <==

--------------------------------------------------------------------------
set {
	reference rhf
	basis 6-31G*
}

set_num_threads( 4 )
memory 2 gb

molecule MOL {
0 1

H	 0.985436	 2.697947	 -2.396742
O	 1.665008	 2.390388	 -1.812542
C	 1.184713	 1.481717	 -0.940297
C	 2.079555	 0.944537	 -0.020167
C	 -0.137143	 1.080703	 -0.936207
H	 3.101708	 1.272424	 -0.043638
C	 1.648489	 0.010012	 0.898478
H	 -0.848063	 1.477977	 -1.633554
C	 -0.536158	 0.140425	 0.000000
H	 2.346075	 -0.399521	 1.605240
C	 0.325062	 -0.409263	 0.922870
N	 -1.935604	 -0.280333	 0.000000
H	 -0.024229	 -1.133320	 1.629370
O	 -2.161694	 -1.452901	 0.000000
O	 -2.770341	 0.571417	 0.000000

	symmetry c1
}
set optking {
	frozen_dihedral = ("
		11 9 12 14
	")
}

ee = optimize('scf')
oeprop('DIPOLE', 'QUADRUPOLE', 'MULLIKEN_CHARGES')
f=open( 'psi4out.xyz', 'w' )
f.write( "15  " )
f.write( str(ee) + "\n" )
f.write( MOL.save_string_xyz() )
f.close()
--------------------------------------------------------------------------

    Molecular point group: c1
  Charge       = 0
  Multiplicity = 1
  Basis Set: 6-31G*
  Basis Set:
  @DF-RHF Final Energy:  -509.02219477323888
    Total Energy =                       -509.0221947732391072
    Molecular point group: c1
  Basis Set: 6-31G*
  Basis Set:
  Basis Set: 6-31G*
  Basis Set:
  @DF-RHF Final Energy:  -509.01655771101645
    Total Energy =                       -509.0165577110165032
  Basis Set: 6-31G*
  Basis Set:
  Basis Set: 6-31G*
  Basis Set:
  @DF-RHF Final Energy:  -509.02253822431715
    Total Energy =                       -509.0225382243169179
  Basis Set: 6-31G*
  Basis Set:
  Basis Set: 6-31G*
  Basis Set:
  @DF-RHF Final Energy:  -509.02276530185037
    Total Energy =                       -509.0227653018498586
  Basis Set: 6-31G*
  Basis Set:
  Basis Set: 6-31G*
  Basis Set:
  @DF-RHF Final Energy:  -509.02276775866108
    Total Energy =                       -509.0227677586607342
  Basis Set: 6-31G*
  Basis Set:
  Basis Set: 6-31G*
  Basis Set:
  @DF-RHF Final Energy:  -509.02276766203363
    Total Energy =                       -509.0227676620338571
  Basis Set: 6-31G*
  Basis Set:
  Charge       = 0
  Multiplicity = 1
  Basis Set: 6-31G*
  Basis Set:

    Orbital Energies (a.u.)
    -----------------------

    Doubly Occupied:

       1A    -20.617148     2A    -20.608320     3A    -20.607620
       4A    -15.858939     5A    -11.332495     6A    -11.314179
       7A    -11.268413     8A    -11.268221     9A    -11.264116
      10A    -11.257637    11A     -1.639760    12A     -1.438073
      13A     -1.423680    14A     -1.202205    15A     -1.095906
      16A     -1.048105    17A     -0.966071    18A     -0.882343
      19A     -0.829639    20A     -0.789652    21A     -0.759886
      22A     -0.734622    23A     -0.720209    24A     -0.710630
      25A     -0.670550    26A     -0.635625    27A     -0.617297
      28A     -0.593636    29A     -0.562255    30A     -0.547683
      31A     -0.526468    32A     -0.490691    33A     -0.488724
      34A     -0.454124    35A     -0.375119    36A     -0.343320

  @DF-RHF Final Energy:  -509.02276831393579

   => Energetics <=

    Nuclear Repulsion Energy =            503.1905439747022228
    One-Electron Energy =               -1692.5399008589206460
    Two-Electron Energy =                 680.3265885702826381
    DFT Exchange-Correlation Energy =       0.0000000000000000
    Empirical Dispersion Energy =           0.0000000000000000
    PCM Polarization Energy =               0.0000000000000000
    EFP Energy =                            0.0000000000000000
    Total Energy =                       -509.0227683139357850
    Molecular point group: c1
  Basis Set: 6-31G*
  Basis Set:

  -Total Gradient:
     Atom            X                  Y                   Z
    ------   -----------------  -----------------  -----------------
       1        0.000004233021     0.000002263412    -0.000009344236
       2       -0.000028375848    -0.000005890112     0.000017508326
       3        0.000054720329    -0.000013520112     0.000032226376
       4        0.000008511817    -0.000027850086    -0.000042667574
       5       -0.000136720078    -0.000003400793     0.000164394791
       6       -0.000000303411    -0.000001292957    -0.000000617614
       7       -0.000033296672     0.000068177937     0.000032798994
       8       -0.000034845242     0.000014958056    -0.000039688460
       9        0.001642242196    -0.006129568198    -0.007201811801
      10       -0.000000312135    -0.000005593720    -0.000005179946
      11       -0.001122991648     0.004109257424     0.003247507574
      12       -0.000419229586     0.002179602317     0.009895597344
      13       -0.000005453607    -0.000044015358     0.000013570180
      14        0.000017019608    -0.000223342042    -0.006033223601
      15        0.000054801261     0.000080214237    -0.000071070351

  **** Optimization is complete! (in 7 steps) ****
    Final optimized geometry and variables:
    Molecular point group: c1

    Geometry (in Angstrom), charge = 0, multiplicity = 1:

    H            1.112103361683     2.249649810365    -2.167977179228
    O            1.793958815597     1.932447042715    -1.591732973348
    C            1.316302119632     1.022523826226    -0.721159184631
    C            2.210874154969     0.491055087550     0.202941218753
    C           -0.007264293860     0.622455392449    -0.713492510021
    H            3.230383792345     0.827148123218     0.184345815556
    C            1.781437244455    -0.441959860458     1.123539306761
    H           -0.727716856555     1.041072597888    -1.390933009999
    C           -0.390089758415    -0.341300229881     0.200949171250
    H            2.476308674757    -0.836930601461     1.841258024997
    C            0.462544354078    -0.878466128476     1.135224817379
    N           -1.795451431251    -0.730116236752     0.232997954322
    H            0.115137275758    -1.614125602044     1.833514881429
    O           -2.038041738554    -1.896889669431     0.279455108977
    O           -2.606734837576     0.142769145532     0.168084254047

  Mulliken Charges: (a.u.)
   Center  Symbol    Alpha    Beta     Spin     Total
       1     H     0.26734  0.26734  0.00000  0.46532
       2     O     4.37466  4.37466  0.00000 -0.74933
       3     C     2.79301  2.79301  0.00000  0.41397
       4     C     3.11243  3.11243  0.00000 -0.22486
       5     C     3.13405  3.13405  0.00000 -0.26809
       6     H     0.38161  0.38161  0.00000  0.23679
       7     C     3.09803  3.09803  0.00000 -0.19605
       8     H     0.37606  0.37606  0.00000  0.24788
       9     C     2.89584  2.89584  0.00000  0.20832
      10     H     0.38659  0.38659  0.00000  0.22682
      11     C     3.09999  3.09999  0.00000 -0.19998
      12     N     3.25654  3.25654  0.00000  0.48692
      13     H     0.37299  0.37299  0.00000  0.25402
      14     O     4.22334  4.22334  0.00000 -0.44667
      15     O     4.22753  4.22753  0.00000 -0.45505

   Total alpha = 36.00000, Total beta = 36.00000, Total charge =  0.00000
