                              Psi4 1.0.54 Driver

  ==> Input File <==

--------------------------------------------------------------------------
set {
	reference rhf
	basis cc-pvtz
}

set_num_threads( 4 )
memory 2 gb

molecule MOL {
0 1

H	 3.889983	 0.345191	 0.121744
N	 3.089100	 -0.249476	 0.145701
C	 1.859322	 0.526803	 0.123426
H	 3.151591	 -0.794136	 0.980440
C	 0.642427	 -0.385161	 0.076355
H	 1.875543	 1.147747	 -0.765996
H	 1.768624	 1.202423	 0.975052
C	 -0.678115	 0.376691	 0.025731
H	 0.731409	 -1.035158	 -0.787932
H	 0.650817	 -1.033133	 0.950737
C	 -1.900706	 -0.535531	 -0.022488
H	 -0.684631	 1.027281	 -0.845845
H	 -0.754671	 1.029590	 0.892181
C	 -3.220513	 0.226854	 0.028039
H	 -1.865036	 -1.134397	 -0.928236
H	 -1.857948	 -1.236381	 0.806820
H	 -3.309098	 0.911849	 -0.808725
H	 -4.066838	 -0.449485	 -0.008086
H	 -3.301685	 0.809374	 0.939860

	symmetry c1
}
set optking {
	frozen_dihedral = ("
		12 8 11 15
	")
}

ee,wfn = optimize('scf', return_wfn=True)
oeprop( wfn, 'DIPOLE', 'QUADRUPOLE', 'MULLIKEN_CHARGES')
f=open( 'psi4out.xyz', 'w' )
f.write( "19  " )
f.write( str(ee) + "\n" )
f.write( MOL.save_string_xyz() )
f.close()
--------------------------------------------------------------------------

    Molecular point group: c1
  Charge       = 0
  Multiplicity = 1
  Basis Set: CC-PVTZ
  Basis Set:
  @DF-RHF Final Energy:  -251.44807382143213
    Total Energy =                       -251.4480738214320468
    Molecular point group: c1
  Basis Set: CC-PVTZ
  Basis Set:
  Basis Set: CC-PVTZ
  Basis Set:
  @DF-RHF Final Energy:  -251.44808266094356
    Total Energy =                       -251.4480826609436122
  Basis Set: CC-PVTZ
  Basis Set:
  Basis Set: CC-PVTZ
  Basis Set:
  @DF-RHF Final Energy:  -251.44808648409310
    Total Energy =                       -251.4480864840930963
  Basis Set: CC-PVTZ
  Basis Set:
  Charge       = 0
  Multiplicity = 1
  Basis Set: CC-PVTZ
  Basis Set:

    Orbital Energies (a.u.)
    -----------------------

    Doubly Occupied:

       1A    -15.526385     2A    -11.237894     3A    -11.211899
       4A    -11.210485     5A    -11.207623     6A    -11.205407
       7A     -1.178141     8A     -1.074273     9A     -0.999574
      10A     -0.900904    11A     -0.813292    12A     -0.789530
      13A     -0.665773    14A     -0.643899    15A     -0.617817
      16A     -0.589653    17A     -0.565211    18A     -0.550198
      19A     -0.530015    20A     -0.499026    21A     -0.480800
      22A     -0.464919    23A     -0.461751    24A     -0.450944
      25A     -0.383761

  @DF-RHF Final Energy:  -251.44808652161808

   => Energetics <=

    Nuclear Repulsion Energy =            246.0649122878837431
    One-Electron Energy =                -826.5076537469618643
    Two-Electron Energy =                 328.9946549374599272
    DFT Exchange-Correlation Energy =       0.0000000000000000
    Empirical Dispersion Energy =           0.0000000000000000
    PCM Polarization Energy =               0.0000000000000000
    EFP Energy =                            0.0000000000000000
    Total Energy =                       -251.4480865216181655
    Molecular point group: c1
  Basis Set: CC-PVTZ
  Basis Set:

  -Total Gradient:
     Atom            X                  Y                   Z
    ------   -----------------  -----------------  -----------------
       1        0.000001886232    -0.000000492295    -0.000001691863
       2        0.000000171451     0.000002228749    -0.000007820382
       3        0.000002971296     0.000001180119     0.000009044972
       4       -0.000003287027     0.000002099124     0.000000032265
       5       -0.000004135806     0.000003214502     0.000015498354
       6        0.000003775987     0.000001016083     0.000000298605
       7        0.000001813544    -0.000001059976    -0.000001151834
       8       -0.000631934612     0.000815284799     0.000418490452
       9       -0.000004416122    -0.000001939656     0.000004105752
      10        0.000006338042    -0.000003867162    -0.000000144072
      11        0.000617473238    -0.000850522297     0.000388120097
      12        0.000428163287    -0.000551007018    -0.000423778470
      13        0.000003870565    -0.000007084942    -0.000003136503
      14       -0.000002481873    -0.000000234834     0.000004423933
      15       -0.000417335034     0.000582995955    -0.000399466124
      16        0.000001977698     0.000004685288    -0.000003168496
      17       -0.000001262530    -0.000002038910     0.000003651149
      18        0.000001340214     0.000005354625     0.000000499983
      19       -0.000004928558     0.000000187846    -0.000003807817

  **** Optimization is complete! (in 4 steps) ****
    Final optimized geometry and variables:
    Molecular point group: c1

    Geometry (in Angstrom), charge = 0, multiplicity = 1:

    H            3.891280535312     0.349793492825     0.018111414381
    N            3.090933811024    -0.245211228515     0.050954268898
    C            1.860580356853     0.530310828105     0.040418094852
    H            3.162362335180    -0.788620815044     0.885803471353
    C            0.643685222553    -0.382338664063     0.007433595243
    H            1.867024101186     1.150026584575    -0.850002044927
    H            1.778326572626     1.207192399834     0.891962683584
    C           -0.678002116905     0.378925844013    -0.030409723373
    H            0.723888798445    -1.033525018526    -0.856873759495
    H            0.661673661407    -1.029010739684     0.882571279802
    C           -1.898788231966    -0.535584734194    -0.084324506219
    H           -0.686327963973     1.033400753877    -0.898975672573
    H           -0.751064255647     1.024188947021     0.841788222975
    C           -3.219514103770     0.226286949889    -0.040877704423
    H           -1.860054598817    -1.129024178522    -0.993413050370
    H           -1.860727669071    -1.237837993528     0.743761270419
    H           -3.299443325878     0.918430164317    -0.872681075982
    H           -4.065293467590    -0.449837414611    -0.091897712890
    H           -3.310418866114     0.800945930460     0.874951277262

  Mulliken Charges: (a.u.)
   Center  Symbol    Alpha    Beta     Spin     Total
       1     H     0.43024  0.43024  0.00000  0.13952
       2     N     3.68911  3.68911  0.00000 -0.37823
       3     C     3.02697  3.02697  0.00000 -0.05393
       4     H     0.43100  0.43100  0.00000  0.13800
       5     C     3.08153  3.08153  0.00000 -0.16306
       6     H     0.45711  0.45711  0.00000  0.08578
       7     H     0.46863  0.46863  0.00000  0.06274
       8     C     3.09324  3.09324  0.00000 -0.18647
       9     H     0.44904  0.44904  0.00000  0.10191
      10     H     0.46029  0.46029  0.00000  0.07942
      11     C     3.08327  3.08327  0.00000 -0.16654
      12     H     0.45479  0.45479  0.00000  0.09042
      13     H     0.45682  0.45682  0.00000  0.08636
      14     C     3.14985  3.14985  0.00000 -0.29970
      15     H     0.45356  0.45356  0.00000  0.09287
      16     H     0.45502  0.45502  0.00000  0.08995
      17     H     0.45524  0.45524  0.00000  0.08952
      18     H     0.44859  0.44859  0.00000  0.10282
      19     H     0.45570  0.45570  0.00000  0.08861

   Total alpha = 25.00000, Total beta = 25.00000, Total charge =  0.00000

*** Psi4 exiting successfully. Buy a developer a beer!
