  ==> Input File <==

--------------------------------------------------------------------------
set {
	reference rhf
	basis cc-pvtz
}

set_num_threads( 4 )
memory 2 gb

molecule MOL {
0 1

H	 -2.808528	 -0.314406	 -0.806616
O	 -2.313989	 -0.142475	 -0.025864
C	 -0.943808	 -0.065018	 -0.330000
H	 -0.812293	 -0.225641	 -1.398673
C	 -0.231030	 -1.182113	 0.407592
C	 -0.353797	 1.300461	 0.050970
H	 -0.312800	 -0.992012	 1.473041
H	 -0.738841	 -2.119564	 0.220514
C	 1.246176	 -1.268044	 -0.015480
H	 -0.539537	 2.008579	 -0.751815
H	 -0.889989	 1.662858	 0.920677
C	 1.153605	 1.231851	 0.356834
H	 1.823096	 -1.684665	 0.802361
H	 1.352335	 -1.958223	 -0.845114
C	 1.826409	 0.100723	 -0.416008
H	 1.622968	 2.181508	 0.128734
H	 1.301983	 1.066493	 1.419367
H	 2.897299	 0.112407	 -0.249665
H	 1.683458	 0.265621	 -1.480024

	symmetry c1
}
set optking {
	frozen_dihedral = ("
		1 2 3 4
	")
}

ee = optimize('scf')
oeprop('DIPOLE', 'QUADRUPOLE', 'MULLIKEN_CHARGES')
f=open( 'psi4out.xyz', 'w' )
f.write( "19  " )
f.write( str(ee) + "\n" )
f.write( MOL.save_string_xyz() )
f.close()
--------------------------------------------------------------------------

    Molecular point group: c1
  Charge       = 0
  Multiplicity = 1
  Basis Set: CC-PVTZ
  Basis Set:
  @DF-RHF Final Energy:  -309.16135218270563
    Total Energy =                       -309.1613521827054569
    Molecular point group: c1
  Basis Set: CC-PVTZ
  Basis Set:
  Basis Set: CC-PVTZ
  Basis Set:
  @DF-RHF Final Energy:  -309.16183770142067
    Total Energy =                       -309.1618377014207795
  Basis Set: CC-PVTZ
  Basis Set:
  Basis Set: CC-PVTZ
  Basis Set:
  @DF-RHF Final Energy:  -309.16196035665968
    Total Energy =                       -309.1619603566598471
  Basis Set: CC-PVTZ
  Basis Set:
  Basis Set: CC-PVTZ
  Basis Set:
  @DF-RHF Final Energy:  -309.16196228190807
    Total Energy =                       -309.1619622819081314
  Basis Set: CC-PVTZ
  Basis Set:
  Charge       = 0
  Multiplicity = 1
  Basis Set: CC-PVTZ
  Basis Set:

    Orbital Energies (a.u.)
    -----------------------

    Doubly Occupied:

       1A    -20.542287     2A    -11.268482     3A    -11.213354
       4A    -11.212590     5A    -11.211547     6A    -11.206502
       7A    -11.206403     8A     -1.361637     9A     -1.108851
      10A     -1.000735    11A     -0.989385    12A     -0.842569
      13A     -0.832874    14A     -0.731287    15A     -0.715144
      16A     -0.655327    17A     -0.625029    18A     -0.594914
      19A     -0.562397    20A     -0.545411    21A     -0.540844
      22A     -0.517109    23A     -0.497586    24A     -0.487960
      25A     -0.463945    26A     -0.449891    27A     -0.430393
      28A     -0.407668

  @DF-RHF Final Energy:  -309.16196250562064

   => Energetics <=

    Nuclear Repulsion Energy =            331.6166502793918198
    One-Electron Energy =               -1077.1129898655253783
    Two-Electron Energy =                 436.3343770805130362
    DFT Exchange-Correlation Energy =       0.0000000000000000
    Empirical Dispersion Energy =           0.0000000000000000
    PCM Polarization Energy =               0.0000000000000000
    EFP Energy =                            0.0000000000000000
    Total Energy =                       -309.1619625056205223
    Molecular point group: c1
  Basis Set: CC-PVTZ
  Basis Set:

  -Total Gradient:
     Atom            X                  Y                   Z
    ------   -----------------  -----------------  -----------------
       1       -0.000027526817     0.000392657285    -0.000065534896
       2        0.000045750004    -0.000579179812     0.000080080772
       3       -0.000047749866     0.000531446315    -0.000051749715
       4        0.000018456051    -0.000329830951     0.000055724960
       5        0.000019974477    -0.000001121051    -0.000013090689
       6        0.000014086066     0.000005680277    -0.000005313677
       7        0.000000848471    -0.000001362180    -0.000001345155
       8       -0.000001485105    -0.000005438660     0.000000035351
       9       -0.000005065219    -0.000004539028     0.000017078967
      10        0.000005293833     0.000006399444    -0.000002901042
      11       -0.000000577743    -0.000012532780    -0.000002364141
      12        0.000000712148     0.000002199726    -0.000011859053
      13        0.000005898059    -0.000008967471     0.000003278154
      14       -0.000003043744     0.000003704259     0.000002843185
      15       -0.000013063895     0.000001110240    -0.000003898412
      16       -0.000005036375     0.000002901296     0.000000730969
      17       -0.000005890206    -0.000000924456     0.000000386360
      18       -0.000000988040    -0.000005039038     0.000000335364
      19       -0.000000592100     0.000002836585    -0.000002437300

  **** Optimization is complete! (in 5 steps) ****
    Final optimized geometry and variables:
    Molecular point group: c1

    Geometry (in Angstrom), charge = 0, multiplicity = 1:

    H           -2.833878775155    -0.240059027332    -0.785027256782
    O           -2.320784602562    -0.090419000861    -0.014828289889
    C           -0.945370571530    -0.071496443954    -0.327834401125
    H           -0.824001169583    -0.236987548964    -1.395409118614
    C           -0.220809945096    -1.187194369756     0.407835391752
    C           -0.358291028539     1.295009497924     0.044178429311
    H           -0.306677217754    -1.000155287828     1.473558891783
    H           -0.720045072543    -2.130053252284     0.220352193430
    C            1.258698003379    -1.263813126018    -0.010749863711
    H           -0.545947351809     1.994564982325    -0.763838504880
    H           -0.906398820013     1.660494679629     0.903885843499
    C            1.146103778367     1.233371834405     0.361505948131
    H            1.836610461834    -1.675732224048     0.808846461666
    H            1.372106131348    -1.954614645579    -0.839310093856
    C            1.830058909807     0.108749345242    -0.410537335510
    H            1.611331734831     2.186589036593     0.139442399229
    H            1.289750548744     1.065624336530     1.424537958098
    H            2.900810289260     0.127266115869    -0.243632578833
    H            1.686735803214     0.273237064145    -1.474848437605

  Mulliken Charges: (a.u.)
   Center  Symbol    Alpha    Beta     Spin     Total
       1     H     0.39157  0.39157  0.00000  0.21685
       2     O     4.20704  4.20704  0.00000 -0.41408
       3     C     2.92620  2.92620  0.00000  0.14759
       4     H     0.46815  0.46815  0.00000  0.06370
       5     C     3.09456  3.09456  0.00000 -0.18912
       6     C     3.10910  3.10910  0.00000 -0.21819
       7     H     0.45319  0.45319  0.00000  0.09363
       8     H     0.44621  0.44621  0.00000  0.10757
       9     C     3.11430  3.11430  0.00000 -0.22860
      10     H     0.45204  0.45204  0.00000  0.09592
      11     H     0.44459  0.44459  0.00000  0.11081
      12     C     3.10096  3.10096  0.00000 -0.20192
      13     H     0.44729  0.44729  0.00000  0.10541
      14     H     0.44820  0.44820  0.00000  0.10360
      15     C     3.10263  3.10263  0.00000 -0.20525
      16     H     0.44253  0.44253  0.00000  0.11495
      17     H     0.45326  0.45326  0.00000  0.09349
      18     H     0.44312  0.44312  0.00000  0.11376
      19     H     0.45506  0.45506  0.00000  0.08987

   Total alpha = 28.00000, Total beta = 28.00000, Total charge = -0.00000
