                              Psi4 1.0.54 Driver

  ==> Input File <==

--------------------------------------------------------------------------
set {
	reference rhf
	basis cc-pvtz
}

set_num_threads( 4 )
memory 2 gb

molecule MOL {
0 1

H	 4.613580	 3.330071	 -0.783486
C	 4.403928	 2.268682	 -0.717409
C	 3.044915	 2.014205	 -0.074254
H	 4.440709	 1.861122	 -1.721778
H	 5.202569	 1.808773	 -0.144298
C	 2.719761	 0.526958	 0.045511
H	 2.275399	 2.506607	 -0.657626
H	 3.025818	 2.465679	 0.915003
C	 1.367739	 0.241481	 0.691596
H	 2.744826	 0.070382	 -0.936191
H	 3.489931	 0.042903	 0.639070
C	 0.166485	 0.574257	 -0.177158
H	 1.287148	 -0.817077	 0.925534
H	 1.273167	 0.760258	 1.641040
C	 -1.180025	 0.697761	 0.509157
O	 0.266408	 0.713379	 -1.353566
C	 -2.285431	 -0.137488	 -0.145671
H	 -1.447360	 1.745713	 0.496200
H	 -1.065514	 0.394096	 1.546399
C	 -3.646545	 0.082747	 0.508954
H	 -2.348635	 0.118247	 -1.199806
H	 -2.034895	 -1.192387	 -0.096473
C	 -4.757412	 -0.737227	 -0.138149
H	 -3.900211	 1.137405	 0.459735
H	 -3.580878	 -0.166775	 1.564416
H	 -4.867876	 -0.486707	 -1.187777
H	 -4.549650	 -1.800049	 -0.072540
H	 -5.709585	 -0.556397	 0.346597

	symmetry c1
}
set optking {
	frozen_dihedral = ("
		16 12 15 17
	")
}

ee,wfn = optimize('scf', return_wfn=True)
oeprop( wfn, 'DIPOLE', 'QUADRUPOLE', 'MULLIKEN_CHARGES')
f=open( 'psi4out.xyz', 'w' )
f.write( "28  " )
f.write( str(ee) + "\n" )
f.write( MOL.save_string_xyz() )
f.close()
--------------------------------------------------------------------------

    Molecular point group: c1
  Charge       = 0
  Multiplicity = 1
  Basis Set: CC-PVTZ
  Basis Set:
  @DF-RHF Final Energy:  -426.32003773762096
    Total Energy =                       -426.3200377376215329
    Molecular point group: c1
  Basis Set: CC-PVTZ
  Basis Set:
  Basis Set: CC-PVTZ
  Basis Set:
  @DF-RHF Final Energy:  -426.32025475460966
    Total Energy =                       -426.3202547546095502
  Basis Set: CC-PVTZ
  Basis Set:
  Basis Set: CC-PVTZ
  Basis Set:
  @DF-RHF Final Energy:  -426.31985282008145
    Total Energy =                       -426.3198528200812234
  Basis Set: CC-PVTZ
  Basis Set:
  Basis Set: CC-PVTZ
  Basis Set:
  @DF-RHF Final Energy:  -426.32071035785123
    Total Energy =                       -426.3207103578511123
  Basis Set: CC-PVTZ
  Basis Set:
  Basis Set: CC-PVTZ
  Basis Set:
  @DF-RHF Final Energy:  -426.32071341562573
    Total Energy =                       -426.3207134156259599
  Basis Set: CC-PVTZ
  Basis Set:
  Basis Set: CC-PVTZ
  Basis Set:
  @DF-RHF Final Energy:  -426.32073866101462
    Total Energy =                       -426.3207386610142748
  Basis Set: CC-PVTZ
  Basis Set:
  Basis Set: CC-PVTZ
  Basis Set:
  @DF-RHF Final Energy:  -426.32074376630987
    Total Energy =                       -426.3207437663099881
  Basis Set: CC-PVTZ
  Basis Set:
  Charge       = 0
  Multiplicity = 1
  Basis Set: CC-PVTZ
  Basis Set:

    Orbital Energies (a.u.)
    -----------------------

    Doubly Occupied:

       1A    -20.536548     2A    -11.317900     3A    -11.229904
       4A    -11.227521     5A    -11.220316     6A    -11.218899
       7A    -11.214789     8A    -11.209963     9A    -11.209640
      10A    -11.203540    11A     -1.397581    12A     -1.090655
      13A     -1.079038    14A     -1.022961    15A     -0.991876
      16A     -0.910584    17A     -0.867738    18A     -0.806803
      19A     -0.794282    20A     -0.725769    21A     -0.671985
      22A     -0.651823    23A     -0.629804    24A     -0.618719
      25A     -0.609132    26A     -0.588473    27A     -0.577821
      28A     -0.571650    29A     -0.541246    30A     -0.530477
      31A     -0.522816    32A     -0.510435    33A     -0.495376
      34A     -0.479119    35A     -0.476601    36A     -0.473248
      37A     -0.469188    38A     -0.466092    39A     -0.456987
      40A     -0.394343

  @DF-RHF Final Energy:  -426.32074391493711

   => Energetics <=

    Nuclear Repulsion Energy =            529.6600933349420757
    One-Electron Energy =               -1627.9383954592453847
    Two-Electron Energy =                 671.9575582093661978
    DFT Exchange-Correlation Energy =       0.0000000000000000
    Empirical Dispersion Energy =           0.0000000000000000
    PCM Polarization Energy =               0.0000000000000000
    EFP Energy =                            0.0000000000000000
    Total Energy =                       -426.3207439149371112
    Molecular point group: c1
  Basis Set: CC-PVTZ
  Basis Set:

  -Total Gradient:
     Atom            X                  Y                   Z
    ------   -----------------  -----------------  -----------------
       1        0.000001136267     0.000002013923    -0.000001502588
       2        0.000007071873     0.000002149531     0.000002620312
       3        0.000009206990    -0.000000434379     0.000008546315
       4       -0.000001220077    -0.000001619772     0.000001049865
       5        0.000003839370     0.000000451046    -0.000002025754
       6        0.000006630924    -0.000010996995     0.000009310086
       7       -0.000014338579     0.000006043906    -0.000001426651
       8        0.000002561673     0.000002651621    -0.000004698307
       9        0.000000110893     0.000030113005    -0.000003576989
      10       -0.000006064454     0.000000440533     0.000010810732
      11        0.000006855300     0.000000312422    -0.000000276359
      12       -0.000036120070    -0.001521152090    -0.000036227990
      13       -0.000007315541    -0.000010779082     0.000002765936
      14        0.000017015052    -0.000009904072     0.000000052260
      15       -0.000223127538     0.001088568573    -0.000518314745
      16        0.000052370964     0.000935432786     0.000133303431
      17        0.000208556164    -0.000523785656     0.000400904114
      18        0.000002069647     0.000009485689     0.000000590344
      19        0.000001145686     0.000004442807    -0.000007545974
      20       -0.000008703820     0.000000023909    -0.000016061604
      21       -0.000000720529    -0.000005886281     0.000022166260
      22        0.000001533697     0.000006477204    -0.000008629014
      23       -0.000016445537     0.000003208424     0.000015149918
      24       -0.000002650258    -0.000008607606     0.000004294964
      25       -0.000003560880     0.000000261545    -0.000015600041
      26        0.000004477252    -0.000001370585     0.000016251983
      27       -0.000002672010     0.000011180231    -0.000001089133
      28       -0.000001642461    -0.000008720628    -0.000010841370

  **** Optimization is complete! (in 8 steps) ****
    Final optimized geometry and variables:
    Molecular point group: c1

    Geometry (in Angstrom), charge = 0, multiplicity = 1:

    H            4.695337791899     2.571059273291    -0.958044680182
    C            4.432898362450     1.536299128355    -0.770279631719
    C            3.071522844329     1.427677214133    -0.092046623673
    H            4.435107780990     1.016779841899    -1.722319407779
    H            5.215065817843     1.103054417378    -0.155104479780
    C            2.674466854664    -0.017635413810     0.201422664038
    H            2.319103257947     1.887696114316    -0.721186211895
    H            3.089015399939     1.988953991016     0.839328900212
    C            1.316080130560    -0.159514623754     0.878029239586
    H            2.670984846221    -0.586410165865    -0.720816566662
    H            3.425411619902    -0.466192473914     0.845404598065
    C            0.116558113826     0.074222252165    -0.017111001859
    H            1.193523687607    -1.161901493462     1.284436603205
    H            1.232743373306     0.507106497732     1.732998261545
    C           -1.244957528789     0.096792573700     0.657276921777
    O            0.217762149784     0.232912177926    -1.190547948031
    C           -2.261030747981    -0.810840163217    -0.035317918623
    H           -1.587982956642     1.127371901701     0.625012211165
    H           -1.149319530522    -0.172035790380     1.703203155675
    C           -3.648218954629    -0.734773473384     0.595258911397
    H           -2.315110750645    -0.539880730271    -1.082216706157
    H           -1.905644245301    -1.837650904632    -0.000523162235
    C           -4.661152128707    -1.646455803864    -0.088945326750
    H           -4.003013404479     0.291481482752     0.555987540534
    H           -3.583723627154    -0.994879630625     1.648486118042
    H           -4.772295442879    -1.389271911883    -1.136711121830
    H           -4.351651811600    -2.684874021678    -0.035686920935
    H           -5.636589892244    -1.567975325099     0.376923223566

  Mulliken Charges: (a.u.)
   Center  Symbol    Alpha    Beta     Spin     Total
       1     H     0.44872  0.44872  0.00000  0.10255
       2     C     3.15161  3.15161  0.00000 -0.30322
       3     C     3.08416  3.08416  0.00000 -0.16833
       4     H     0.45202  0.45202  0.00000  0.09596
       5     H     0.45718  0.45718  0.00000  0.08564
       6     C     3.08725  3.08725  0.00000 -0.17450
       7     H     0.44446  0.44446  0.00000  0.11108
       8     H     0.45867  0.45867  0.00000  0.08266
       9     C     3.12343  3.12343  0.00000 -0.24687
      10     H     0.44580  0.44580  0.00000  0.10840
      11     H     0.44784  0.44784  0.00000  0.10433
      12     C     2.87171  2.87171  0.00000  0.25658
      13     H     0.43516  0.43516  0.00000  0.12968
      14     H     0.44242  0.44242  0.00000  0.11516
      15     C     3.09646  3.09646  0.00000 -0.19293
      16     O     4.18125  4.18125  0.00000 -0.36251
      17     C     3.08732  3.08732  0.00000 -0.17464
      18     H     0.44339  0.44339  0.00000  0.11322
      19     H     0.44637  0.44637  0.00000  0.10725
      20     C     3.08729  3.08729  0.00000 -0.17457
      21     H     0.43836  0.43836  0.00000  0.12329
      22     H     0.45453  0.45453  0.00000  0.09093
      23     C     3.14962  3.14962  0.00000 -0.29924
      24     H     0.45354  0.45354  0.00000  0.09292
      25     H     0.45527  0.45527  0.00000  0.08946
      26     H     0.45293  0.45293  0.00000  0.09414
      27     H     0.45499  0.45499  0.00000  0.09002
      28     H     0.44824  0.44824  0.00000  0.10352

   Total alpha = 40.00000, Total beta = 40.00000, Total charge = -0.00000

*** Psi4 exiting successfully. Buy a developer a beer!
