  ==> Input File <==

--------------------------------------------------------------------------
set {
	reference rhf
	basis 6-31G*
}

set_num_threads( 4 )
memory 2 gb

molecule MOL {
0 1

H	 2.507921	 1.451468	 -1.281643
N	 1.700893	 0.859056	 -1.317218
C	 1.267428	 0.496480	 0.024474
H	 1.964531	 0.041520	 -1.833981
C	 -0.016086	 -0.325158	 -0.029487
H	 1.081513	 1.416278	 0.570771
H	 2.026241	 -0.053559	 0.586648
C	 -1.282277	 0.529072	 0.046735
H	 -0.012495	 -0.908639	 -0.945788
H	 -0.015903	 -1.041248	 0.791956
C	 -2.563920	 -0.301775	 -0.006060
H	 -1.284084	 1.244622	 -0.773004
H	 -1.271387	 1.115393	 0.963286
H	 -2.621848	 -0.873522	 -0.927727
H	 -3.445135	 0.329952	 0.047812
H	 -2.609542	 -1.004582	 0.821105

	symmetry c1
}
set optking {
	frozen_dihedral = ("
		6 3 5 9
	")
}

ee = optimize('scf')
oeprop('DIPOLE', 'QUADRUPOLE', 'MULLIKEN_CHARGES')
f=open( 'psi4out.xyz', 'w' )
f.write( "16  " )
f.write( str(ee) + "\n" )
f.write( MOL.save_string_xyz() )
f.close()
--------------------------------------------------------------------------

    Molecular point group: c1
  Charge       = 0
  Multiplicity = 1
  Basis Set: 6-31G*
  Basis Set:
  @DF-RHF Final Energy:  -212.31377310991249
    Total Energy =                       -212.3137731099125176
    Molecular point group: c1
  Basis Set: 6-31G*
  Basis Set:
  Basis Set: 6-31G*
  Basis Set:
  @DF-RHF Final Energy:  -212.31430491922785
    Total Energy =                       -212.3143049192278795
  Basis Set: 6-31G*
  Basis Set:
  Basis Set: 6-31G*
  Basis Set:
  @DF-RHF Final Energy:  -212.31441450894164
    Total Energy =                       -212.3144145089415815
  Basis Set: 6-31G*
  Basis Set:
  Basis Set: 6-31G*
  Basis Set:
  @DF-RHF Final Energy:  -212.31441720473714
    Total Energy =                       -212.3144172047372535
  Basis Set: 6-31G*
  Basis Set:
  Charge       = 0
  Multiplicity = 1
  Basis Set: 6-31G*
  Basis Set:

    Orbital Energies (a.u.)
    -----------------------

    Doubly Occupied:

       1A    -15.533226     2A    -11.240385     3A    -11.209702
       4A    -11.207367     5A    -11.203473     6A     -1.176563
       7A     -1.053638     8A     -0.955863     9A     -0.844127
      10A     -0.787068    11A     -0.661696    12A     -0.637714
      13A     -0.599719    14A     -0.573896    15A     -0.564641
      16A     -0.514900    17A     -0.502376    18A     -0.467144
      19A     -0.461483    20A     -0.460452    21A     -0.379682

  @DF-RHF Final Energy:  -212.31441790380691

   => Energetics <=

    Nuclear Repulsion Energy =            188.1572358312199356
    One-Electron Energy =                -658.8730789839819408
    Two-Electron Energy =                 258.4014252489552064
    DFT Exchange-Correlation Energy =       0.0000000000000000
    Empirical Dispersion Energy =           0.0000000000000000
    PCM Polarization Energy =               0.0000000000000000
    EFP Energy =                            0.0000000000000000
    Total Energy =                       -212.3144179038067705
    Molecular point group: c1
  Basis Set: 6-31G*
  Basis Set:

  -Total Gradient:
     Atom            X                  Y                   Z
    ------   -----------------  -----------------  -----------------
       1        0.000002843722     0.000003749989    -0.000031368430
       2        0.000053383904     0.000024781459     0.000021082386
       3        0.001040642413    -0.001691058889     0.004145016426
       4       -0.000003802698     0.000011593268     0.000030979402
       5        0.002278641460    -0.003559603724     0.001651465476
       6       -0.001252059185     0.001921825040    -0.003773588859
       7       -0.000012783530     0.000009022151    -0.000010685344
       8        0.000008024831     0.000027017218    -0.000001484995
       9       -0.002068863237     0.003258478685    -0.002045721397
      10        0.000003131865    -0.000002937799     0.000003224178
      11       -0.000024273273     0.000002274636     0.000018628577
      12        0.000008999086    -0.000005451136     0.000000553075
      13       -0.000015774890     0.000002639079    -0.000001647620
      14       -0.000005884991     0.000005976778    -0.000001761733
      15       -0.000016501512    -0.000007636466     0.000008196751
      16        0.000004276037    -0.000000670289    -0.000012887892

  **** Optimization is complete! (in 5 steps) ****
    Final optimized geometry and variables:
    Molecular point group: c1

    Geometry (in Angstrom), charge = 0, multiplicity = 1:

    H            2.557435898435     1.251726007418    -1.069663538944
    N            1.789517138301     0.608337707782    -1.062716137148
    C            1.439776767139     0.231420910360     0.302999318211
    H            2.079578614224    -0.195727639324    -1.586140263040
    C            0.148715489020    -0.595518115488     0.307854096854
    H            1.276033606354     1.160481933002     0.839586386118
    H            2.238492077233    -0.308361823708     0.813236121326
    C           -1.111222205527     0.273959308698     0.334943802371
    H            0.118389590280    -1.195586718862    -0.599128813418
    H            0.141493192185    -1.279280784768     1.153069961084
    C           -2.400133232857    -0.538343314030     0.218888543828
    H           -1.055460574464     0.992473345317    -0.477444945725
    H           -1.130474988323     0.848762756636     1.258908694540
    H           -2.432927994584    -1.089644187551    -0.716741125312
    H           -3.274793167970     0.104038725087     0.253773408471
    H           -2.486741691166    -1.258120702736     1.028580530531

  Mulliken Charges: (a.u.)
   Center  Symbol    Alpha    Beta     Spin     Total
       1     H     0.33256  0.33256  0.00000  0.33487
       2     N     3.92188  3.92188  0.00000 -0.84377
       3     C     3.06799  3.06799  0.00000 -0.13597
       4     H     0.33517  0.33517  0.00000  0.32967
       5     C     3.14894  3.14894  0.00000 -0.29788
       6     H     0.41948  0.41948  0.00000  0.16104
       7     H     0.43055  0.43055  0.00000  0.13890
       8     C     3.15457  3.15457  0.00000 -0.30915
       9     H     0.42331  0.42331  0.00000  0.15337
      10     H     0.42389  0.42389  0.00000  0.15221
      11     C     3.23976  3.23976  0.00000 -0.47951
      12     H     0.41017  0.41017  0.00000  0.17966
      13     H     0.42604  0.42604  0.00000  0.14791
      14     H     0.42186  0.42186  0.00000  0.15627
      15     H     0.41993  0.41993  0.00000  0.16013
      16     H     0.42387  0.42387  0.00000  0.15225

   Total alpha = 21.00000, Total beta = 21.00000, Total charge = -0.00000
