  ==> Input File <==

--------------------------------------------------------------------------
set {
	reference rhf
	basis cc-pvtz
}

set_num_threads( 4 )
memory 2 gb

molecule MOL {
0 1

H	 -2.724412	 -0.735410	 1.286548
C	 -2.701681	 -0.731798	 0.199187
O	 -1.406932	 -0.590795	 -0.281734
H	 -3.086818	 -1.675093	 -0.159635
H	 -3.349504	 0.067795	 -0.155583
C	 -0.780978	 0.591799	 0.094152
C	 0.646411	 0.590785	 -0.392579
H	 -1.300380	 1.447350	 -0.337384
H	 -0.789736	 0.704944	 1.176072
O	 1.401606	 -0.295166	 0.366636
H	 0.665617	 0.310429	 -1.443513
H	 1.049312	 1.599867	 -0.306586
C	 2.714315	 -0.441627	 -0.061017
H	 2.765292	 -0.641548	 -1.128869
H	 3.305661	 0.447341	 0.150952
H	 3.143725	 -1.278506	 0.470147

	symmetry c1
}
set optking {
	frozen_dihedral = ("
		7 10 13 14
	")
}

ee = optimize('scf')
oeprop('DIPOLE', 'QUADRUPOLE', 'MULLIKEN_CHARGES')
f=open( 'psi4out.xyz', 'w' )
f.write( "16  " )
f.write( str(ee) + "\n" )
f.write( MOL.save_string_xyz() )
f.close()
--------------------------------------------------------------------------

    Molecular point group: c1
  Charge       = 0
  Multiplicity = 1
  Basis Set: CC-PVTZ
  Basis Set:
  @DF-RHF Final Energy:  -307.09764721418480
    Total Energy =                       -307.0976472141850309
    Molecular point group: c1
  Basis Set: CC-PVTZ
  Basis Set:
  Basis Set: CC-PVTZ
  Basis Set:
  @DF-RHF Final Energy:  -307.09765994530534
    Total Energy =                       -307.0976599453055087
  Basis Set: CC-PVTZ
  Basis Set:
  Charge       = 0
  Multiplicity = 1
  Basis Set: CC-PVTZ
  Basis Set:

    Orbital Energies (a.u.)
    -----------------------

    Doubly Occupied:

       1A    -20.547812     2A    -20.547602     3A    -11.267632
       4A    -11.266943     5A    -11.261635     6A    -11.261615
       7A     -1.391665     8A     -1.374418     9A     -1.032116
      10A     -0.937250    11A     -0.892260    12A     -0.824492
      13A     -0.686346    14A     -0.682683    15A     -0.659675
      16A     -0.638324    17A     -0.631863    18A     -0.598840
      19A     -0.551109    20A     -0.535547    21A     -0.510295
      22A     -0.479903    23A     -0.464805    24A     -0.423189
      25A     -0.413343

  @DF-RHF Final Energy:  -307.09766249887559

   => Energetics <=

    Nuclear Repulsion Energy =            258.8949047203828968
    One-Electron Energy =                -932.2224179694173927
    Two-Electron Energy =                 366.2298507501583344
    DFT Exchange-Correlation Energy =       0.0000000000000000
    Empirical Dispersion Energy =           0.0000000000000000
    PCM Polarization Energy =               0.0000000000000000
    EFP Energy =                            0.0000000000000000
    Total Energy =                       -307.0976624988761614
    Molecular point group: c1
  Basis Set: CC-PVTZ
  Basis Set:

  -Total Gradient:
     Atom            X                  Y                   Z
    ------   -----------------  -----------------  -----------------
       1        0.000000722754    -0.000000179932    -0.000001237447
       2       -0.000003324279    -0.000001871489     0.000001402888
       3       -0.000000163031    -0.000002798771    -0.000009632989
       4       -0.000000737562     0.000000558622    -0.000000190144
       5       -0.000001464538    -0.000000375191     0.000000061031
       6        0.000038736875    -0.000018472136     0.000046220093
       7       -0.000354112451    -0.000876934195    -0.000831408457
       8        0.000020023403    -0.000005900653    -0.000001234551
       9       -0.000017202011     0.000002917591     0.000008389320
      10        0.000457419195     0.001720088777     0.001027601293
      11        0.000006858542    -0.000004181181     0.000014088208
      12       -0.000002068865    -0.000006191045     0.000006962828
      13       -0.000228100327    -0.002282254028    -0.000018111056
      14        0.000101105218     0.001524953284    -0.000250686749
      15       -0.000011897678    -0.000031087564    -0.000017982682
      16       -0.000005795246    -0.000018272089     0.000025758415

  **** Optimization is complete! (in 3 steps) ****
    Final optimized geometry and variables:
    Molecular point group: c1

    Geometry (in Angstrom), charge = 0, multiplicity = 1:

    H           -2.703035540773    -0.580526189637     1.299764028082
    C           -2.681350175878    -0.576337960779     0.212394501907
    O           -1.386951095212    -0.435980979745    -0.269673269000
    H           -3.067507657944    -1.519141403629    -0.146603294520
    H           -3.328936717785     0.223929117170    -0.141317940915
    C           -0.759675556521     0.745774936708     0.106554247380
    C            0.666984141514     0.744225966245    -0.382431859975
    H           -1.278930096325     1.602100344684    -0.323654794707
    H           -0.767140519870     0.858010710443     1.188536147622
    O            1.421336069714    -0.145501695417     0.373012035457
    H            0.684824320947     0.465825653206    -1.433585344061
    H            1.070014381224     1.753377975397    -0.294875342866
    C            2.736965625195    -0.289830944191    -0.047700864007
    H            2.795878389772    -0.483393049861    -1.116020081417
    H            3.321868813153     0.603560184448     0.164499387716
    H            3.168707301429    -1.123052043200     0.487044559361

  Mulliken Charges: (a.u.)
   Center  Symbol    Alpha    Beta     Spin     Total
       1     H     0.47020  0.47020  0.00000  0.05960
       2     C     3.03201  3.03201  0.00000 -0.06402
       3     O     4.17039  4.17039  0.00000 -0.34077
       4     H     0.44635  0.44635  0.00000  0.10730
       5     H     0.47370  0.47370  0.00000  0.05261
       6     C     2.96078  2.96078  0.00000  0.07845
       7     C     2.96054  2.96054  0.00000  0.07891
       8     H     0.47616  0.47616  0.00000  0.04768
       9     H     0.47066  0.47066  0.00000  0.05868
      10     O     4.17073  4.17073  0.00000 -0.34145
      11     H     0.46967  0.46967  0.00000  0.06066
      12     H     0.47699  0.47699  0.00000  0.04602
      13     C     3.03155  3.03155  0.00000 -0.06310
      14     H     0.47244  0.47244  0.00000  0.05511
      15     H     0.47153  0.47153  0.00000  0.05694
      16     H     0.44631  0.44631  0.00000  0.10737

   Total alpha = 25.00000, Total beta = 25.00000, Total charge = -0.00000
