  ==> Input File <==

--------------------------------------------------------------------------
set {
	reference rhf
	basis 6-31G*
}

set_num_threads( 4 )
memory 2 gb

molecule MOL {
0 1

H	 -1.363192	 -0.583923	 -1.141191
O	 -1.422729	 -0.573567	 -0.196946
C	 -0.731407	 0.539437	 0.309156
C	 0.680193	 0.672443	 -0.251532
H	 -1.319765	 1.404033	 0.030086
H	 -0.700012	 0.506517	 1.397677
C	 1.599139	 -0.492137	 0.118598
H	 0.616402	 0.758534	 -1.332349
H	 1.107032	 1.602637	 0.117369
H	 1.239738	 -1.428634	 -0.297334
H	 2.601428	 -0.335055	 -0.265730
H	 1.674954	 -0.608418	 1.197020

	symmetry c1
}
set optking {
	frozen_dihedral = ("
		1 2 3 4
	")
}

ee = optimize('scf')
oeprop('DIPOLE', 'QUADRUPOLE', 'MULLIKEN_CHARGES')
f=open( 'psi4out.xyz', 'w' )
f.write( "12  " )
f.write( str(ee) + "\n" )
f.write( MOL.save_string_xyz() )
f.close()
--------------------------------------------------------------------------

    Molecular point group: c1
  Charge       = 0
  Multiplicity = 1
  Basis Set: 6-31G*
  Basis Set:
  @DF-RHF Final Energy:  -193.10826145756701
    Total Energy =                       -193.1082614575668686
    Molecular point group: c1
  Basis Set: 6-31G*
  Basis Set:
  Basis Set: 6-31G*
  Basis Set:
  @DF-RHF Final Energy:  -193.10963720719522
    Total Energy =                       -193.1096372071953908
  Basis Set: 6-31G*
  Basis Set:
  Basis Set: 6-31G*
  Basis Set:
  @DF-RHF Final Energy:  -193.11010093815298
    Total Energy =                       -193.1101009381530105
  Basis Set: 6-31G*
  Basis Set:
  Basis Set: 6-31G*
  Basis Set:
  @DF-RHF Final Energy:  -193.11010385080064
    Total Energy =                       -193.1101038508005274
  Basis Set: 6-31G*
  Basis Set:
  Basis Set: 6-31G*
  Basis Set:
  @DF-RHF Final Energy:  -193.11010874837558
    Total Energy =                       -193.1101087483754952
  Basis Set: 6-31G*
  Basis Set:
  Charge       = 0
  Multiplicity = 1
  Basis Set: 6-31G*
  Basis Set:

    Orbital Energies (a.u.)
    -----------------------

    Doubly Occupied:

       1A    -20.553596     2A    -11.268072     3A    -11.223055
       4A    -11.210881     5A     -1.360546     6A     -1.050726
       7A     -0.922849     8A     -0.816959     9A     -0.672123
      10A     -0.639026    11A     -0.632655    12A     -0.567968
      13A     -0.535485    14A     -0.516196    15A     -0.487588
      16A     -0.467649    17A     -0.430605

  @DF-RHF Final Energy:  -193.11010960346925

   => Energetics <=

    Nuclear Repulsion Energy =            133.1626379370675295
    One-Electron Energy =                -525.8335366072146826
    Two-Electron Energy =                 199.5607890666779838
    DFT Exchange-Correlation Energy =       0.0000000000000000
    Empirical Dispersion Energy =           0.0000000000000000
    PCM Polarization Energy =               0.0000000000000000
    EFP Energy =                            0.0000000000000000
    Total Energy =                       -193.1101096034691693
    Molecular point group: c1
  Basis Set: 6-31G*
  Basis Set:

  -Total Gradient:
     Atom            X                  Y                   Z
    ------   -----------------  -----------------  -----------------
       1        0.001384257837    -0.000866213825     0.000159185829
       2       -0.001848420502     0.001291018361    -0.000535396461
       3        0.000817350135    -0.000988716478     0.001150618797
       4       -0.000373475278     0.000556000910    -0.000794122582
       5        0.000012010675    -0.000000072347     0.000001101487
       6        0.000017449541     0.000002669018     0.000003133047
       7        0.000001069730     0.000011830600    -0.000002778619
       8       -0.000007695961    -0.000007874327     0.000011824243
       9        0.000006977614     0.000009001438     0.000005801709
      10       -0.000001572088    -0.000007047777    -0.000004819391
      11       -0.000013176630    -0.000002504944    -0.000000762783
      12        0.000005224931     0.000001909373     0.000006214723

  **** Optimization is complete! (in 6 steps) ****
    Final optimized geometry and variables:
    Molecular point group: c1

    Geometry (in Angstrom), charge = 0, multiplicity = 1:

    H           -1.324889699283    -0.635266178163    -1.110903735361
    O           -1.401937590929    -0.602222469456    -0.167256297762
    C           -0.732769495002     0.534495462535     0.315331722908
    C            0.685400960102     0.670911262817    -0.227277955434
    H           -1.301799746522     1.433177557690     0.083041324207
    H           -0.714682724526     0.431804701852     1.393335065479
    C            1.590806002569    -0.503475036622     0.141533043521
    H            0.641183380961     0.777122030062    -1.311118749362
    H            1.108743230346     1.598987750801     0.149745437489
    H            1.186366325026    -1.439916193525    -0.224898011627
    H            2.583901609953    -0.377097372923    -0.277826023588
    H            1.693499041585    -0.588885048805     1.219452686583

  Mulliken Charges: (a.u.)
   Center  Symbol    Alpha    Beta     Spin     Total
       1     H     0.28341  0.28341  0.00000  0.43319
       2     O     4.36921  4.36921  0.00000 -0.73841
       3     C     2.99029  2.99029  0.00000  0.01941
       4     C     3.17379  3.17379  0.00000 -0.34758
       5     H     0.42833  0.42833  0.00000  0.14334
       6     H     0.41714  0.41714  0.00000  0.16572
       7     C     3.23879  3.23879  0.00000 -0.47757
       8     H     0.42698  0.42698  0.00000  0.14604
       9     H     0.41950  0.41950  0.00000  0.16101
      10     H     0.41315  0.41315  0.00000  0.17370
      11     H     0.41948  0.41948  0.00000  0.16104
      12     H     0.41994  0.41994  0.00000  0.16012

   Total alpha = 17.00000, Total beta = 17.00000, Total charge =  0.00000
