  ==> Input File <==

--------------------------------------------------------------------------
set {
	reference rhf
	basis cc-pvtz
}

set_num_threads( 4 )
memory 2 gb

molecule MOL {
0 1

H	 -0.939693	 0.000281	 1.681345
O	 -0.046262	 -0.000157	 1.387678
C	 -0.000837	 0.000006	 -0.025491
C	 -0.703034	 1.246945	 -0.559542
C	 1.453525	 -0.043249	 -0.490363
C	 -0.740889	 -1.259910	 -0.453419
H	 -0.715936	 1.256934	 -1.643298
H	 -0.195390	 2.147068	 -0.226155
H	 -1.724501	 1.284301	 -0.202228
H	 1.519559	 -0.080550	 -1.571583
H	 1.990852	 0.839143	 -0.156092
H	 1.951425	 -0.914830	 -0.084276
H	 -0.759637	 -1.349216	 -1.533216
H	 -1.760835	 -1.236626	 -0.090955
H	 -0.256425	 -2.136702	 -0.042631

	symmetry c1
}
set optking {
	frozen_dihedral = ("
		4 3 2 1
	")
}

ee = optimize('scf')
oeprop('DIPOLE', 'QUADRUPOLE', 'MULLIKEN_CHARGES')
f=open( 'psi4out.xyz', 'w' )
f.write( "15  " )
f.write( str(ee) + "\n" )
f.write( MOL.save_string_xyz() )
f.close()
--------------------------------------------------------------------------

    Molecular point group: c1
  Charge       = 0
  Multiplicity = 1
  Basis Set: CC-PVTZ
  Basis Set:
  @DF-RHF Final Energy:  -232.24474176673561
    Total Energy =                       -232.2447417667356149
    Molecular point group: c1
  Basis Set: CC-PVTZ
  Basis Set:
  Basis Set: CC-PVTZ
  Basis Set:
  @DF-RHF Final Energy:  -232.24641306874511
    Total Energy =                       -232.2464130687449142
  Basis Set: CC-PVTZ
  Basis Set:
  Basis Set: CC-PVTZ
  Basis Set:
  @DF-RHF Final Energy:  -232.24679680282640
    Total Energy =                       -232.2467968028265659
  Basis Set: CC-PVTZ
  Basis Set:
  Basis Set: CC-PVTZ
  Basis Set:
  @DF-RHF Final Energy:  -232.24679815463736
    Total Energy =                       -232.2467981546373039
  Basis Set: CC-PVTZ
  Basis Set:
  Basis Set: CC-PVTZ
  Basis Set:
  @DF-RHF Final Energy:  -232.24680247189957
    Total Energy =                       -232.2468024718994002
  Basis Set: CC-PVTZ
  Basis Set:
  Charge       = 0
  Multiplicity = 1
  Basis Set: CC-PVTZ
  Basis Set:

    Orbital Energies (a.u.)
    -----------------------

    Doubly Occupied:

       1A    -20.542263     2A    -11.280773     3A    -11.209438
       4A    -11.209134     5A    -11.203883     6A     -1.365013
       7A     -1.065212     8A     -0.942071     9A     -0.940451
      10A     -0.778505    11A     -0.672679    12A     -0.624329
      13A     -0.622796    14A     -0.575958    15A     -0.557598
      16A     -0.532731    17A     -0.517032    18A     -0.511304
      19A     -0.504675    20A     -0.458819    21A     -0.428775

  @DF-RHF Final Energy:  -232.24680291489076

   => Energetics <=

    Nuclear Repulsion Energy =            200.6805590249542490
    One-Electron Energy =                -712.7678462210287762
    Two-Electron Energy =                 279.8404842811837625
    DFT Exchange-Correlation Energy =       0.0000000000000000
    Empirical Dispersion Energy =           0.0000000000000000
    PCM Polarization Energy =               0.0000000000000000
    EFP Energy =                            0.0000000000000000
    Total Energy =                       -232.2468029148907362
    Molecular point group: c1
  Basis Set: CC-PVTZ
  Basis Set:

  -Total Gradient:
     Atom            X                  Y                   Z
    ------   -----------------  -----------------  -----------------
       1        0.000008791500     0.000076169964    -0.000008386188
       2       -0.000028997422    -0.000123821558     0.000024051058
       3        0.000047244495     0.000062279864     0.000038903984
       4       -0.000034239473    -0.000034305907    -0.000015842913
       5       -0.000004830878    -0.000013966937    -0.000039222137
       6        0.000014599448     0.000013239059     0.000011692525
       7       -0.000008633611     0.000010231362    -0.000006413562
       8        0.000001374017    -0.000006692645    -0.000001123726
       9        0.000002795557    -0.000005112415     0.000003696425
      10        0.000010494849    -0.000007145818     0.000003134346
      11       -0.000022457028     0.000010897193    -0.000000565635
      12        0.000003827388    -0.000004443167     0.000007877729
      13        0.000001501151    -0.000003308497    -0.000020712878
      14        0.000018166805     0.000012867074     0.000001212402
      15       -0.000009636796     0.000013112430     0.000001698574

  **** Optimization is complete! (in 6 steps) ****
    Final optimized geometry and variables:
    Molecular point group: c1

    Geometry (in Angstrom), charge = 0, multiplicity = 1:

    H           -0.838656738334     0.080366430276     1.731950564590
    O            0.035547399996     0.043693979056     1.387290441654
    C           -0.002223536321    -0.000802580340    -0.025322866525
    C           -0.698506540540     1.249835951245    -0.558318075467
    C            1.454220369194    -0.036593685089    -0.467490941702
    C           -0.735334082272    -1.262251738551    -0.477370095102
    H           -0.711002887264     1.260984854577    -1.642034804541
    H           -0.189497295844     2.139917818274    -0.210266477295
    H           -1.727764962935     1.293073002361    -0.215005956794
    H            1.529408219698    -0.075313497632    -1.547803396059
    H            1.974041525509     0.845835705536    -0.116341048598
    H            1.949403499443    -0.906749948926    -0.055362832204
    H           -0.748923797448    -1.343032582952    -1.558171998841
    H           -1.764981780754    -1.253039642447    -0.132858861942
    H           -0.252371698874    -2.142393716331    -0.071800025013

  Mulliken Charges: (a.u.)
   Center  Symbol    Alpha    Beta     Spin     Total
       1     H     0.39576  0.39576  0.00000  0.20849
       2     O     4.21097  4.21097  0.00000 -0.42193
       3     C     2.87835  2.87835  0.00000  0.24329
       4     C     3.15038  3.15038  0.00000 -0.30075
       5     C     3.14316  3.14316  0.00000 -0.28632
       6     C     3.15010  3.15010  0.00000 -0.30020
       7     H     0.45544  0.45544  0.00000  0.08911
       8     H     0.44641  0.44641  0.00000  0.10717
       9     H     0.45599  0.45599  0.00000  0.08803
      10     H     0.45871  0.45871  0.00000  0.08258
      11     H     0.44844  0.44844  0.00000  0.10312
      12     H     0.44827  0.44827  0.00000  0.10346
      13     H     0.45561  0.45561  0.00000  0.08879
      14     H     0.45591  0.45591  0.00000  0.08818
      15     H     0.44650  0.44650  0.00000  0.10699

   Total alpha = 21.00000, Total beta = 21.00000, Total charge =  0.00000
