  ==> Input File <==

--------------------------------------------------------------------------
set {
	reference rhf
	basis 6-31G*
}

set_num_threads( 4 )
memory 2 gb

molecule MOL {
0 1

O	 -1.276010	 1.052711	 -0.768302
C	 -1.204840	 0.067374	 -0.106123
C	 -2.388195	 -0.672128	 0.458071
O	 -0.067104	 -0.527208	 0.221609
H	 -2.388023	 -1.694060	 0.097175
H	 -3.300579	 -0.174919	 0.164318
H	 -2.315377	 -0.706351	 1.539059
C	 -0.002179	 -1.960257	 0.212405
C	 1.101694	 -2.333850	 1.185791
C	 0.258942	 -2.453625	 -1.202179
H	 -0.952057	 -2.337626	 0.561450
H	 0.884717	 -1.950413	 2.176318
H	 1.195028	 -3.413041	 1.248784
H	 2.052988	 -1.925472	 0.861876
H	 0.332107	 -3.536475	 -1.212132
H	 -0.546550	 -2.163593	 -1.864781
H	 1.190364	 -2.044568	 -1.580507

	symmetry c1
}
set optking {
	frozen_dihedral = ("
		8 4 2 1
	")
}

ee = optimize('scf')
oeprop('DIPOLE', 'QUADRUPOLE', 'MULLIKEN_CHARGES')
f=open( 'psi4out.xyz', 'w' )
f.write( "17  " )
f.write( str(ee) + "\n" )
f.write( MOL.save_string_xyz() )
f.close()
--------------------------------------------------------------------------

    Molecular point group: c1
  Charge       = 0
  Multiplicity = 1
  Basis Set: 6-31G*
  Basis Set:
  @DF-RHF Final Energy:  -344.88612623738027
    Total Energy =                       -344.8861262373802674
    Molecular point group: c1
  Basis Set: 6-31G*
  Basis Set:
  Basis Set: 6-31G*
  Basis Set:
  @DF-RHF Final Energy:  -344.89338537434810
    Total Energy =                       -344.8933853743479858
  Basis Set: 6-31G*
  Basis Set:
  Basis Set: 6-31G*
  Basis Set:
  @DF-RHF Final Energy:  -344.89658507943716
    Total Energy =                       -344.8965850794372727
  Basis Set: 6-31G*
  Basis Set:
  Basis Set: 6-31G*
  Basis Set:
  @DF-RHF Final Energy:  -344.89642437220243
    Total Energy =                       -344.8964243722026595
  Basis Set: 6-31G*
  Basis Set:
  @DF-RHF Final Energy:  -344.89747008134123
    Total Energy =                       -344.8974700813411687
  @DF-RHF Final Energy:  -344.89757053153016
    Total Energy =                       -344.8975705315301639
  Basis Set: 6-31G*
  Basis Set:
  @DF-RHF Final Energy:  -344.89758439102678
    Total Energy =                       -344.8975843910265553
  Basis Set: 6-31G*
  Basis Set:
  Basis Set: 6-31G*
  Basis Set:
  @DF-RHF Final Energy:  -344.89758695040354
    Total Energy =                       -344.8975869504037064
  Basis Set: 6-31G*
  Basis Set:
  Basis Set: 6-31G*
  Basis Set:
  @DF-RHF Final Energy:  -344.89758795579968
    Total Energy =                       -344.8975879557999065
  Basis Set: 6-31G*
  Basis Set:
  Charge       = 0
  Multiplicity = 1
  Basis Set: 6-31G*
  Basis Set:

    Orbital Energies (a.u.)
    -----------------------

    Doubly Occupied:

       1A    -20.590831     2A    -20.543393     3A    -11.375255
       4A    -11.304406     5A    -11.240212     6A    -11.227913
       7A    -11.224845     8A     -1.458267     9A     -1.364497
      10A     -1.076703    11A     -1.015204    12A     -0.957141
      13A     -0.857906    14A     -0.770217    15A     -0.696405
      16A     -0.670372    17A     -0.660414    18A     -0.625570
      19A     -0.593689    20A     -0.584754    21A     -0.561668
      22A     -0.555647    23A     -0.544300    24A     -0.529700
      25A     -0.508295    26A     -0.485211    27A     -0.445064
      28A     -0.431987

  @DF-RHF Final Energy:  -344.89758804838891

   => Energetics <=

    Nuclear Repulsion Energy =            322.9375199240306529
    One-Electron Energy =               -1109.8704841691601359
    Two-Electron Energy =                 442.0353761967405717
    DFT Exchange-Correlation Energy =       0.0000000000000000
    Empirical Dispersion Energy =           0.0000000000000000
    PCM Polarization Energy =               0.0000000000000000
    EFP Energy =                            0.0000000000000000
    Total Energy =                       -344.8975880483889114
    Molecular point group: c1
  Basis Set: 6-31G*
  Basis Set:

  -Total Gradient:
     Atom            X                  Y                   Z
    ------   -----------------  -----------------  -----------------
       1        0.000063620333    -0.001578279332    -0.002557117724
       2        0.000439447255     0.002386725761     0.002409327915
       3        0.000004193897    -0.000019146662    -0.000040694401
       4       -0.001434900470    -0.000896486285     0.002520914135
       5       -0.000003697258     0.000001395027     0.000003299166
       6       -0.000001406819    -0.000001874970    -0.000001917579
       7       -0.000001191793    -0.000000535992     0.000005295856
       8        0.000948843379     0.000114669206    -0.002351506616
       9       -0.000015398228     0.000002827432    -0.000005302474
      10       -0.000003973517    -0.000000935708     0.000009804437
      11        0.000004909039    -0.000000273191     0.000005318672
      12       -0.000000807487    -0.000000360695    -0.000000238984
      13        0.000005396052    -0.000007460890     0.000002251013
      14       -0.000003108494    -0.000001453548     0.000000424305
      15        0.000000022080     0.000000747409    -0.000001480172
      16        0.000001841072    -0.000001997022    -0.000000985856
      17       -0.000003789040     0.000002439451     0.000002608308

  **** Optimization is complete! (in 10 steps) ****
    Final optimized geometry and variables:
    Molecular point group: c1

    Geometry (in Angstrom), charge = 0, multiplicity = 1:

    O           -0.651657418119     2.026074947223    -0.717618653454
    C           -0.719699954305     1.018541130181    -0.101100381551
    C           -2.038375352184     0.397480045148     0.302745337773
    O            0.397289696845     0.401181904303     0.303412270883
    H           -2.247191655987    -0.487903231779    -0.288101647643
    H           -2.820606671558     1.120630465648     0.127324314294
    H           -2.028577102497     0.109625426521     1.347513621527
    C            0.544807125722    -1.015851760650     0.269913956619
    C            1.753065668476    -1.328734242188     1.134806991805
    C            0.714372582068    -1.486203387602    -1.168079718739
    H           -0.331662095825    -1.480119403655     0.707875684095
    H            1.599570060592    -0.967160845322     2.144728983967
    H            1.923741417234    -2.399545974911     1.172313232076
    H            2.637932560323    -0.849670872054     0.731663842007
    H            0.853456330180    -2.561996897473    -1.199023213527
    H           -0.154352784177    -1.244156897551    -1.772053083060
    H            1.578330791084    -1.009797971870    -1.617084390182

  Mulliken Charges: (a.u.)
   Center  Symbol    Alpha    Beta     Spin     Total
       1     O     4.25890  4.25890  0.00000 -0.51780
       2     C     2.61691  2.61691  0.00000  0.76617
       3     C     3.30544  3.30544  0.00000 -0.61087
       4     O     4.31283  4.31283  0.00000 -0.62565
       5     H     0.40343  0.40343  0.00000  0.19314
       6     H     0.38939  0.38939  0.00000  0.22123
       7     H     0.40288  0.40288  0.00000  0.19425
       8     C     2.92958  2.92958  0.00000  0.14084
       9     C     3.24047  3.24047  0.00000 -0.48095
      10     C     3.24733  3.24733  0.00000 -0.49466
      11     H     0.41886  0.41886  0.00000  0.16228
      12     H     0.40984  0.40984  0.00000  0.18031
      13     H     0.41866  0.41866  0.00000  0.16269
      14     H     0.40811  0.40811  0.00000  0.18378
      15     H     0.41645  0.41645  0.00000  0.16709
      16     H     0.41579  0.41579  0.00000  0.16843
      17     H     0.40513  0.40513  0.00000  0.18974

   Total alpha = 28.00000, Total beta = 28.00000, Total charge =  0.00000
