  ==> Input File <==

--------------------------------------------------------------------------
set {
	reference rhf
	basis cc-pvtz
}

set_num_threads( 4 )
memory 2 gb

molecule MOL {
0 1

H	 3.297443	 -0.408278	 -0.000000
C	 2.238662	 -0.232359	 -0.000000
C	 1.361753	 -1.306772	 -0.000000
C	 1.757878	 1.061613	 -0.000000
H	 1.743025	 -2.309481	 0.000000
C	 0.002772	 -1.085475	 0.000000
H	 2.438508	 1.890599	 0.000000
C	 0.392784	 1.282269	 0.000000
H	 -0.690755	 -1.902590	 0.000000
C	 -0.486398	 0.214248	 0.000000
H	 0.011716	 2.286740	 0.000000
C	 -1.946525	 0.470130	 0.000000
O	 -2.779618	 -0.371226	 0.000000
H	 -2.227127	 1.528393	 0.000000

	symmetry c1
}
set optking {
	frozen_dihedral = ("
		8 10 12 14
	")
}

ee = optimize('scf')
oeprop('DIPOLE', 'QUADRUPOLE', 'MULLIKEN_CHARGES')
f=open( 'psi4out.xyz', 'w' )
f.write( "14  " )
f.write( str(ee) + "\n" )
f.write( MOL.save_string_xyz() )
f.close()
--------------------------------------------------------------------------

    Molecular point group: c1
  Charge       = 0
  Multiplicity = 1
  Basis Set: CC-PVTZ
  Basis Set:

    Orbital Energies (a.u.)
    -----------------------

    Doubly Occupied:

       1A    -20.552548     2A    -11.326873     3A    -11.252775
       4A    -11.250339     5A    -11.246653     6A    -11.245328
       7A    -11.243934     8A    -11.242345     9A     -1.408370
      10A     -1.177207    11A     -1.051894    12A     -1.036301
      13A     -0.892827    14A     -0.848567    15A     -0.794504
      16A     -0.725604    17A     -0.682412    18A     -0.656517
      19A     -0.623694    20A     -0.620754    21A     -0.606099
      22A     -0.562362    23A     -0.530253    24A     -0.510183
      25A     -0.508286    26A     -0.425542    27A     -0.355947
      28A     -0.352603

  @DF-RHF Final Energy:  -343.55011457508039

   => Energetics <=

    Nuclear Repulsion Energy =            323.9799350761136907
    One-Electron Energy =               -1107.5986636848012949
    Two-Electron Energy =                 440.0686140336075596
    DFT Exchange-Correlation Energy =       0.0000000000000000
    Empirical Dispersion Energy =           0.0000000000000000
    PCM Polarization Energy =               0.0000000000000000
    EFP Energy =                            0.0000000000000000
    Total Energy =                       -343.5501145750801015
    Molecular point group: c1
  Basis Set: CC-PVTZ
  Basis Set:

  -Total Gradient:
     Atom            X                  Y                   Z
    ------   -----------------  -----------------  -----------------
       1       -0.000036851446     0.000036750196     0.000000000000
       2       -0.000056854432    -0.000286064431    -0.000000000000
       3        0.000248000413     0.000142457768    -0.000000000000
       4       -0.000232589178     0.000183599187    -0.000000000000
       5       -0.000031520655     0.000027854273    -0.000000000000
       6       -0.000167618215     0.000123773391    -0.000000000000
       7        0.000002403673    -0.000045014914    -0.000000000000
       8        0.000327358922     0.000077410004    -0.000000000000
       9        0.000021840218     0.000038103412     0.000000000000
      10       -0.000190038528    -0.000226598414     0.000000000000
      11        0.000001504600    -0.000062323454    -0.000000000000
      12        0.000376579635     0.000231106375    -0.000000000000
      13       -0.000190466100    -0.000105580902     0.000000000000
      14       -0.000071748909    -0.000135472488    -0.000000000000

  **** Optimization is complete! (in 1 steps) ****
    Final optimized geometry and variables:
    Molecular point group: c1

    Geometry (in Angstrom), charge = 0, multiplicity = 1:

    H            3.297443454538    -0.408277962111     0.000000000000
    C            2.238662454538    -0.232358962111     0.000000000000
    C            1.361753454538    -1.306771962111     0.000000000000
    C            1.757878454538     1.061613037889     0.000000000000
    H            1.743025454538    -2.309480962111     0.000000000000
    C            0.002772454538    -1.085474962111     0.000000000000
    H            2.438508454538     1.890599037889     0.000000000000
    C            0.392784454538     1.282269037889     0.000000000000
    H           -0.690754545462    -1.902589962111     0.000000000000
    C           -0.486397545462     0.214248037889     0.000000000000
    H            0.011716454538     2.286740037889     0.000000000000
    C           -1.946524545462     0.470130037889     0.000000000000
    O           -2.779617545462    -0.371225962111     0.000000000000
    H           -2.227126545462     1.528393037889     0.000000000000

  Mulliken Charges: (a.u.)
   Center  Symbol    Alpha    Beta     Spin     Total
       1     H     0.41947  0.41947  0.00000  0.16106
       2     C     3.06945  3.06945  0.00000 -0.13891
       3     C     3.07270  3.07270  0.00000 -0.14540
       4     C     3.07382  3.07382  0.00000 -0.14764
       5     H     0.41948  0.41948  0.00000  0.16103
       6     C     3.07916  3.07916  0.00000 -0.15831
       7     H     0.42059  0.42059  0.00000  0.15881
       8     C     3.08680  3.08680  0.00000 -0.17361
       9     H     0.40861  0.40861  0.00000  0.18278
      10     C     2.98643  2.98643  0.00000  0.02713
      11     H     0.42286  0.42286  0.00000  0.15428
      12     C     2.90933  2.90933  0.00000  0.18134
      13     O     4.17295  4.17295  0.00000 -0.34589
      14     H     0.45833  0.45833  0.00000  0.08333

   Total alpha = 28.00000, Total beta = 28.00000, Total charge = -0.00000
