  ==> Input File <==

--------------------------------------------------------------------------
set {
	reference rhf
	basis 6-31G*
}

set_num_threads( 4 )
memory 2 gb

molecule MOL {
0 1

O	 2.862325	 1.357334	 0.000267
C	 2.843464	 0.164689	 -0.000222
C	 1.546494	 -0.624492	 -0.000609
C	 4.124123	 -0.644674	 -0.000428
C	 0.291004	 0.242674	 0.000989
H	 1.557904	 -1.283758	 -0.867573
H	 1.558622	 -1.285963	 0.864672
C	 -0.994322	 -0.586602	 0.000262
H	 0.309117	 0.896430	 -0.865270
H	 0.309661	 0.894078	 0.869017
C	 -2.259874	 0.272531	 0.000494
H	 -1.004862	 -1.240012	 -0.870939
H	 -1.005220	 -1.241071	 0.870675
C	 -3.400792	 -0.330048	 -0.821222
H	 -2.022588	 1.262114	 -0.386081
H	 -2.594447	 0.419316	 1.025926
C	 -4.661395	 0.533978	 -0.816352
H	 -3.067926	 -0.476133	 -1.846738
H	 -3.639908	 -1.318658	 -0.434786
H	 -4.462923	 1.519153	 -1.228891
H	 -5.451514	 0.081114	 -1.407391
H	 -5.039640	 0.669709	 0.192931
H	 4.165367	 -1.288615	 -0.874074
H	 4.976217	 0.020734	 -0.001915
H	 4.166763	 -1.286207	 0.874930

	symmetry c1
}
set optking {
	frozen_dihedral = ("
		15 11 8 12
	")
}

ee = optimize('scf')
oeprop('DIPOLE', 'QUADRUPOLE', 'MULLIKEN_CHARGES')
f=open( 'psi4out.xyz', 'w' )
f.write( "25  " )
f.write( str(ee) + "\n" )
f.write( MOL.save_string_xyz() )
f.close()
--------------------------------------------------------------------------

    Molecular point group: c1
  Charge       = 0
  Multiplicity = 1
  Basis Set: 6-31G*
  Basis Set:
  @DF-RHF Final Energy:  -387.13293795774666
    Total Energy =                       -387.1329379577465488
    Molecular point group: c1
  Basis Set: 6-31G*
  Basis Set:
  Basis Set: 6-31G*
  Basis Set:
  @DF-RHF Final Energy:  -387.13318833764157
    Total Energy =                       -387.1331883376410588
  Basis Set: 6-31G*
  Basis Set:
  Basis Set: 6-31G*
  Basis Set:
  @DF-RHF Final Energy:  -387.13324984051962
    Total Energy =                       -387.1332498405195111
  Basis Set: 6-31G*
  Basis Set:
  Basis Set: 6-31G*
  Basis Set:
  @DF-RHF Final Energy:  -387.13289711581808
    Total Energy =                       -387.1328971158172862
  Basis Set: 6-31G*
  Basis Set:
  Basis Set: 6-31G*
  Basis Set:
  @DF-RHF Final Energy:  -387.13327373137895
    Total Energy =                       -387.1332737313782673
  Basis Set: 6-31G*
  Basis Set:
  Basis Set: 6-31G*
  Basis Set:
  @DF-RHF Final Energy:  -387.13327493915278
    Total Energy =                       -387.1332749391530115
  Basis Set: 6-31G*
  Basis Set:
  Charge       = 0
  Multiplicity = 1
  Basis Set: 6-31G*
  Basis Set:

    Orbital Energies (a.u.)
    -----------------------

    Doubly Occupied:

       1A    -20.550526     2A    -11.326393     3A    -11.231854
       4A    -11.228388     5A    -11.217374     6A    -11.216434
       7A    -11.215753     8A    -11.213217     9A    -11.208199
      10A     -1.395838    11A     -1.092606    12A     -1.056169
      13A     -1.014441    14A     -0.968550    15A     -0.891042
      16A     -0.815650    17A     -0.791061    18A     -0.730221
      19A     -0.657125    20A     -0.652075    21A     -0.632506
      22A     -0.622595    23A     -0.598004    24A     -0.583469
      25A     -0.566319    26A     -0.561058    27A     -0.538764
      28A     -0.528868    29A     -0.511012    30A     -0.489815
      31A     -0.487268    32A     -0.476183    33A     -0.464913
      34A     -0.455816    35A     -0.450569    36A     -0.399501

  @DF-RHF Final Energy:  -387.13327582309955

   => Energetics <=

    Nuclear Repulsion Energy =            438.5085834392297102
    One-Electron Energy =               -1393.6045675399680022
    Two-Electron Energy =                 567.9627082776387397
    DFT Exchange-Correlation Energy =       0.0000000000000000
    Empirical Dispersion Energy =           0.0000000000000000
    PCM Polarization Energy =               0.0000000000000000
    EFP Energy =                            0.0000000000000000
    Total Energy =                       -387.1332758230995523
    Molecular point group: c1
  Basis Set: 6-31G*
  Basis Set:

  -Total Gradient:
     Atom            X                  Y                   Z
    ------   -----------------  -----------------  -----------------
       1       -0.000001520132     0.000000382175    -0.000010124984
       2        0.000008002436    -0.000010852617     0.000026468609
       3        0.000010347517     0.000003152258    -0.000016488857
       4        0.000006847035     0.000003334542    -0.000006019670
       5       -0.000024754442    -0.000021265695     0.000013404893
       6       -0.000001990550    -0.000000041361     0.000001535541
       7        0.000000251919     0.000006904868    -0.000003407824
       8        0.002567118242     0.003882534054    -0.001800612144
       9       -0.000015890371    -0.000004389794     0.000005933145
      10       -0.000001496567    -0.000006952623     0.000000700049
      11       -0.001568030064    -0.002283036289    -0.004198402430
      12       -0.001898403449    -0.002875510642     0.002181318516
      13        0.000018932554     0.000005201707     0.000021461238
      14        0.000024275714     0.000027500865     0.000014063181
      15        0.000911407506     0.001272657899     0.003759943651
      16       -0.000021518468    -0.000007599920     0.000006208648
      17       -0.000018977322    -0.000005515005     0.000002899912
      18        0.000004542825     0.000014596495     0.000010594515
      19        0.000007966268     0.000000867333    -0.000004470928
      20        0.000002200521    -0.000008524435    -0.000000941822
      21       -0.000014622459     0.000004519543     0.000001921352
      22        0.000002045910     0.000002590687    -0.000002494833
      23        0.000001939106    -0.000001048177    -0.000000950419
      24        0.000003545933    -0.000001517414    -0.000000495064
      25       -0.000002219669     0.000002011544    -0.000002044275

  **** Optimization is complete! (in 7 steps) ****
    Final optimized geometry and variables:
    Molecular point group: c1

    Geometry (in Angstrom), charge = 0, multiplicity = 1:

    O            2.849184576063     1.299956641930     0.188181513068
    C            2.823064015772     0.107592802390     0.206678648654
    C            1.521667399670    -0.674001428001     0.184679329591
    C            4.098255963720    -0.708969760047     0.253577983999
    C            0.272337968111     0.200318451757     0.139578713259
    H            1.551168581892    -1.346741743699    -0.671526389737
    H            1.506999684804    -1.321933066996     1.060036500151
    C           -1.017534705100    -0.618864890385     0.108011985710
    H            0.319028265557     0.845207920062    -0.732068301946
    H            0.267572950780     0.860786160056     1.001293096477
    C           -2.292114777187     0.242919180236     0.127195279289
    H           -1.028691565605    -1.274066690662    -0.761579038252
    H           -1.035744493083    -1.292828107594     0.963091735808
    C           -3.463791037885    -0.371062906615    -0.638569283799
    H           -2.072257395652     1.236627142938    -0.258259868608
    H           -2.591673662230     0.406136258058     1.160852565509
    C           -4.740075997833     0.464368808754    -0.551041467141
    H           -3.183250565083    -0.495106796615    -1.682354179555
    H           -3.658820328343    -1.370698874765    -0.254934781792
    H           -4.583611185087     1.461262275862    -0.953418231461
    H           -5.550175798129     0.005655993122    -1.109625114501
    H           -5.068138020957     0.572624248449     0.478909051311
    H            4.158433876919    -1.367576521649    -0.607951813390
    H            4.954206191432    -0.048612336171     0.263586446338
    H            4.113909532484    -1.336092892281     1.140208112473

  Mulliken Charges: (a.u.)
   Center  Symbol    Alpha    Beta     Spin     Total
       1     O     4.26117  4.26117  0.00000 -0.52235
       2     C     2.73567  2.73567  0.00000  0.52866
       3     C     3.21134  3.21134  0.00000 -0.42268
       4     C     3.28665  3.28665  0.00000 -0.57329
       5     C     3.14927  3.14927  0.00000 -0.29855
       6     H     0.40981  0.40981  0.00000  0.18039
       7     H     0.40993  0.40993  0.00000  0.18014
       8     C     3.15589  3.15589  0.00000 -0.31178
       9     H     0.41165  0.41165  0.00000  0.17671
      10     H     0.41188  0.41188  0.00000  0.17624
      11     C     3.15290  3.15290  0.00000 -0.30580
      12     H     0.42345  0.42345  0.00000  0.15310
      13     H     0.42378  0.42378  0.00000  0.15245
      14     C     3.15260  3.15260  0.00000 -0.30519
      15     H     0.41992  0.41992  0.00000  0.16016
      16     H     0.42219  0.42219  0.00000  0.15562
      17     C     3.23995  3.23995  0.00000 -0.47990
      18     H     0.42281  0.42281  0.00000  0.15438
      19     H     0.42334  0.42334  0.00000  0.15333
      20     H     0.42089  0.42089  0.00000  0.15822
      21     H     0.41946  0.41946  0.00000  0.16108
      22     H     0.42159  0.42159  0.00000  0.15682
      23     H     0.40872  0.40872  0.00000  0.18255
      24     H     0.39645  0.39645  0.00000  0.20709
      25     H     0.40869  0.40869  0.00000  0.18263

   Total alpha = 36.00000, Total beta = 36.00000, Total charge = -0.00000
