  ==> Input File <==

--------------------------------------------------------------------------
set {
	reference rhf
	basis 6-31G*
}

set_num_threads( 4 )
memory 2 gb

molecule MOL {
0 1

H	 -0.801333	 -1.875213	 0.472179
C	 -1.400170	 -0.990346	 0.283116
N	 -0.528168	 0.128977	 -0.000000
H	 -1.977663	 -0.785373	 1.177277
H	 -2.094843	 -1.225989	 -0.527544
C	 0.248044	 -0.037491	 -1.209632
H	 -1.065898	 0.970819	 -0.056366
H	 0.998722	 0.743888	 -1.266824
H	 -0.398417	 0.061950	 -2.074060
H	 0.763621	 -0.999315	 -1.275517

	symmetry c1
}
set optking {
	frozen_dihedral = ("
		2 3 6 8
	")
}

ee = optimize('scf')
oeprop('DIPOLE', 'QUADRUPOLE', 'MULLIKEN_CHARGES')
f=open( 'psi4out.xyz', 'w' )
f.write( "10  " )
f.write( str(ee) + "\n" )
f.write( MOL.save_string_xyz() )
f.close()
--------------------------------------------------------------------------

    Molecular point group: c1
  Charge       = 0
  Multiplicity = 1
  Basis Set: 6-31G*
  Basis Set:
  @DF-RHF Final Energy:  -134.23655684724355
    Total Energy =                       -134.2365568472435768
    Molecular point group: c1
  Basis Set: 6-31G*
  Basis Set:
  Basis Set: 6-31G*
  Basis Set:
  @DF-RHF Final Energy:  -134.23811184711479
    Total Energy =                       -134.2381118471148511
  Basis Set: 6-31G*
  Basis Set:
  Basis Set: 6-31G*
  Basis Set:
  @DF-RHF Final Energy:  -134.23830549684305
    Total Energy =                       -134.2383054968429974
  Basis Set: 6-31G*
  Basis Set:
  Basis Set: 6-31G*
  Basis Set:
  @DF-RHF Final Energy:  -134.23830928175477
    Total Energy =                       -134.2383092817547379
  Basis Set: 6-31G*
  Basis Set:
  Charge       = 0
  Multiplicity = 1
  Basis Set: 6-31G*
  Basis Set:

    Orbital Energies (a.u.)
    -----------------------

    Doubly Occupied:

       1A    -15.537392     2A    -11.236063     3A    -11.235813
       4A     -1.198704     5A     -0.947769     6A     -0.854528
       7A     -0.661843     8A     -0.611211     9A     -0.591219
      10A     -0.539885    11A     -0.511328    12A     -0.507117
      13A     -0.359843

  @DF-RHF Final Energy:  -134.23830965496413

   => Energetics <=

    Nuclear Repulsion Energy =             84.6265156600121315
    One-Electron Energy =                -348.1442212748313523
    Two-Electron Energy =                 129.2793959598550941
    DFT Exchange-Correlation Energy =       0.0000000000000000
    Empirical Dispersion Energy =           0.0000000000000000
    PCM Polarization Energy =               0.0000000000000000
    EFP Energy =                            0.0000000000000000
    Total Energy =                       -134.2383096549640982
    Molecular point group: c1
  Basis Set: 6-31G*
  Basis Set:

  -Total Gradient:
     Atom            X                  Y                   Z
    ------   -----------------  -----------------  -----------------
       1        0.000004202765     0.000011548824    -0.000002042764
       2        0.001262592154    -0.000831934900     0.000913514920
       3       -0.001433064232     0.000810356968    -0.000970623361
       4       -0.000000904987    -0.000004722561     0.000001878524
       5        0.000012199428     0.000012114301     0.000001085116
       6       -0.001339712964     0.001411960459    -0.001055576746
       7        0.000002418312    -0.000019352790    -0.000014323726
       8        0.001475782315    -0.001392003211     0.001096734366
       9        0.000006294091     0.000007009373     0.000027999805
      10        0.000010193119    -0.000004976464     0.000001353867

  **** Optimization is complete! (in 5 steps) ****
    Final optimized geometry and variables:
    Molecular point group: c1

    Geometry (in Angstrom), charge = 0, multiplicity = 1:

    H           -0.231362937186    -1.584363754328     0.771737203628
    C           -0.825776095638    -0.691639251196     0.608916306893
    N            0.051354790166     0.424466012574     0.330705255237
    H           -1.384352505951    -0.496814893740     1.517293049616
    H           -1.539552635892    -0.908010196362    -0.190653233071
    C            0.809815754733     0.281501872646    -0.892937318095
    H           -0.468842500472     1.278719050623     0.316421830313
    H            1.565993313268     1.056398203569    -0.950229651234
    H            0.203649664242     0.309888874408    -1.801431039942
    H            1.330963204353    -0.670061236705    -0.876283288212

  Mulliken Charges: (a.u.)
   Center  Symbol    Alpha    Beta     Spin     Total
       1     H     0.41801  0.41801  0.00000  0.16398
       2     C     3.14430  3.14430  0.00000 -0.28861
       3     N     3.83971  3.83971  0.00000 -0.67942
       4     H     0.41703  0.41703  0.00000  0.16594
       5     H     0.43497  0.43497  0.00000  0.13006
       6     C     3.14485  3.14485  0.00000 -0.28970
       7     H     0.33229  0.33229  0.00000  0.33543
       8     H     0.41588  0.41588  0.00000  0.16825
       9     H     0.43382  0.43382  0.00000  0.13236
      10     H     0.41914  0.41914  0.00000  0.16172

   Total alpha = 13.00000, Total beta = 13.00000, Total charge = -0.00000
