  ==> Input File <==

--------------------------------------------------------------------------
set {
	reference rhf
	basis 6-31G*
}

set_num_threads( 4 )
memory 2 gb

molecule MOL {
0 1

H	 0.000000	 0.069849	 -2.128177
C	 0.000000	 -0.484033	 -1.211606
C	 0.000000	 -1.867295	 -1.203612
C	 0.000000	 0.183220	 0.000000
H	 0.000000	 -2.404452	 -2.133896
C	 0.000000	 -2.555744	 0.000000
N	 0.000000	 1.642018	 0.000000
C	 -0.000000	 -0.484034	 1.211606
H	 0.000000	 -3.630640	 0.000000
C	 -0.000000	 -1.867295	 1.203612
O	 1.057097	 2.196749	 0.000000
O	 -1.057097	 2.196749	 0.000000
H	 -0.000000	 0.069849	 2.128177
H	 -0.000000	 -2.404452	 2.133896

	symmetry c1
}
set optking {
	frozen_dihedral = ("
		2 4 7 11
	")
}

ee = optimize('scf')
oeprop('DIPOLE', 'QUADRUPOLE', 'MULLIKEN_CHARGES')
f=open( 'psi4out.xyz', 'w' )
f.write( "14  " )
f.write( str(ee) + "\n" )
f.write( MOL.save_string_xyz() )
f.close()
--------------------------------------------------------------------------

    Molecular point group: c1
  Charge       = 0
  Multiplicity = 1
  Basis Set: 6-31G*
  Basis Set:
  @DF-RHF Final Energy:  -434.16203496052748
    Total Energy =                       -434.1620349605271940
    Molecular point group: c1
  Basis Set: 6-31G*
  Basis Set:
  Basis Set: 6-31G*
  Basis Set:
  @DF-RHF Final Energy:  -434.16222635652855
    Total Energy =                       -434.1622263565287767
  Basis Set: 6-31G*
  Basis Set:
  Basis Set: 6-31G*
  Basis Set:
  @DF-RHF Final Energy:  -434.16227182604109
    Total Energy =                       -434.1622718260409783
  Basis Set: 6-31G*
  Basis Set:
  Charge       = 0
  Multiplicity = 1
  Basis Set: 6-31G*
  Basis Set:

    Orbital Energies (a.u.)
    -----------------------

    Doubly Occupied:

       1A    -20.607388     2A    -20.607331     3A    -15.855915
       4A    -11.309935     5A    -11.270861     6A    -11.270827
       7A    -11.263932     8A    -11.263632     9A    -11.261154
      10A     -1.638914    11A     -1.422937    12A     -1.203160
      13A     -1.094686    14A     -1.054305    15A     -0.957152
      16A     -0.872388    17A     -0.827630    18A     -0.781019
      19A     -0.734117    20A     -0.731537    21A     -0.715937
      22A     -0.648782    23A     -0.646805    24A     -0.623927
      25A     -0.559536    26A     -0.547970    27A     -0.531956
      28A     -0.495538    29A     -0.482097    30A     -0.452693
      31A     -0.367597    32A     -0.366765

  @DF-RHF Final Energy:  -434.16227256290921

   => Energetics <=

    Nuclear Repulsion Energy =            416.0878497164113128
    One-Electron Energy =               -1415.5634032914099407
    Two-Electron Energy =                 565.3132810120891918
    DFT Exchange-Correlation Energy =       0.0000000000000000
    Empirical Dispersion Energy =           0.0000000000000000
    PCM Polarization Energy =               0.0000000000000000
    EFP Energy =                            0.0000000000000000
    Total Energy =                       -434.1622725629094930
    Molecular point group: c1
  Basis Set: 6-31G*
  Basis Set:

  -Total Gradient:
     Atom            X                  Y                   Z
    ------   -----------------  -----------------  -----------------
       1        0.000015279736     0.000001632515     0.000000179702
       2        0.000010221813     0.000026232463     0.000000171592
       3       -0.000002051591     0.000035658539    -0.000000309010
       4       -0.000057146854     0.000012571741     0.000001471109
       5        0.000000057664     0.000010189737    -0.000000046541
       6        0.000012129032     0.000000661086     0.000000107572
       7       -0.000017934711    -0.000036622070    -0.000000404879
       8        0.000008214293    -0.000028729289    -0.000001128309
       9       -0.000011087801     0.000000013518    -0.000000017241
      10       -0.000003520166    -0.000034981511     0.000000167489
      11        0.000015493914     0.000013205595     0.000028077799
      12        0.000015382357     0.000011870621    -0.000028149419
      13        0.000015169863    -0.000001455652    -0.000000195113
      14       -0.000000207542    -0.000010247293     0.000000075251

  **** Optimization is complete! (in 4 steps) ****
    Final optimized geometry and variables:
    Molecular point group: c1

    Geometry (in Angstrom), charge = 0, multiplicity = 1:

    H           -0.073987546226     2.131812113315    -0.000014538346
    C            0.477937415312     1.210495315586    -0.000006899954
    C            1.862934974374     1.202208679800    -0.000009393152
    C           -0.180360654000    -0.000026154223     0.000007264826
    H            2.399097545292     2.133188961421    -0.000018454949
    C            2.552738488072    -0.000004425475    -0.000000762131
    N           -1.643946666222    -0.000038728769    -0.000000193125
    C            0.477956501004    -1.210537286598     0.000010335779
    H            3.627345390462     0.000003982594    -0.000002929537
    C            1.862953820191    -1.202228496924     0.000008238678
    O           -2.187326406657    -0.000028047223     1.060625601260
    O           -2.187315579098     0.000134905515    -1.060631542238
    H           -0.073953921426    -2.131862794868     0.000015531747
    H            2.399131132213    -2.133200262036     0.000012771924

  Mulliken Charges: (a.u.)
   Center  Symbol    Alpha    Beta     Spin     Total
       1     H     0.37702  0.37702  0.00000  0.24595
       2     C     3.08867  3.08867  0.00000 -0.17734
       3     C     3.10278  3.10278  0.00000 -0.20557
       4     C     2.89580  2.89580  0.00000  0.20840
       5     H     0.38859  0.38859  0.00000  0.22281
       6     C     3.09400  3.09400  0.00000 -0.18800
       7     N     3.25712  3.25712  0.00000  0.48575
       8     C     3.08868  3.08868  0.00000 -0.17736
       9     H     0.39029  0.39029  0.00000  0.21942
      10     C     3.10278  3.10278  0.00000 -0.20557
      11     O     4.22432  4.22432  0.00000 -0.44863
      12     O     4.22432  4.22432  0.00000 -0.44863
      13     H     0.37703  0.37703  0.00000  0.24595
      14     H     0.38859  0.38859  0.00000  0.22281

   Total alpha = 32.00000, Total beta = 32.00000, Total charge = -0.00000
