  ==> Input File <==

--------------------------------------------------------------------------
set {
	reference rhf
	basis 6-31G*
}

set_num_threads( 4 )
memory 2 gb

molecule MOL {
0 1

H	 -2.646374	 -0.642757	 1.268656
C	 -2.083525	 -0.384536	 0.393091
O	 -0.807605	 -0.127164	 0.768327
F	 -2.118945	 -1.383102	 -0.486752
F	 -2.621877	 0.670592	 -0.209486
C	 0.084052	 0.273579	 -0.209957
C	 -0.741608	 0.822328	 -1.366383
Cl	 1.084359	 -1.085716	 -0.747467
H	 0.745411	 1.050373	 0.132052
F	 0.045118	 1.237962	 -2.336151
F	 -1.441120	 1.853516	 -0.936533
F	 -1.571441	 -0.070086	 -1.849029

	symmetry c1
}
set optking {
	frozen_dihedral = ("
		9 6 3 2
	")
}

ee = optimize('scf')
oeprop('DIPOLE', 'QUADRUPOLE', 'MULLIKEN_CHARGES')
f=open( 'psi4out.xyz', 'w' )
f.write( "12  " )
f.write( str(ee) + "\n" )
f.write( MOL.save_string_xyz() )
f.close()
--------------------------------------------------------------------------

    Molecular point group: c1
  Charge       = 0
  Multiplicity = 1
  Basis Set: 6-31G*
  Basis Set:
  @DF-RHF Final Energy: -1146.19568214955234
    Total Energy =                      -1146.1956821495518852
    Molecular point group: c1
  Basis Set: 6-31G*
  Basis Set:
  Basis Set: 6-31G*
  Basis Set:
  @DF-RHF Final Energy: -1146.24125258821050
    Total Energy =                      -1146.2412525882107275
  Basis Set: 6-31G*
  Basis Set:
  Basis Set: 6-31G*
  Basis Set:
  @DF-RHF Final Energy: -1146.26971853967234
    Total Energy =                      -1146.2697185396712030
  Basis Set: 6-31G*
  Basis Set:
  Basis Set: 6-31G*
  Basis Set:
  @DF-RHF Final Energy: -1146.28635296645734
    Total Energy =                      -1146.2863529664575708
  Basis Set: 6-31G*
  Basis Set:
  @DF-RHF Final Energy: -1146.29425778625136
    Total Energy =                      -1146.2942577862513645
  @DF-RHF Final Energy: -1146.29854582869416
    Total Energy =                      -1146.2985458286948415
  @DF-RHF Final Energy: -1146.30050468616969
    Total Energy =                      -1146.3005046861694609
  @DF-RHF Final Energy: -1146.30113043286428
    Total Energy =                      -1146.3011304328647384
  @DF-RHF Final Energy: -1146.30125829081294
    Total Energy =                      -1146.3012582908138484
  @DF-RHF Final Energy: -1146.30127580418593
    Total Energy =                      -1146.3012758041872985
  @DF-RHF Final Energy: -1146.30128047461085
    Total Energy =                      -1146.3012804746103939
  @DF-RHF Final Energy: -1146.27133175815652
    Total Energy =                      -1146.2713317581565207
  @DF-RHF Final Energy: -1146.23208408648634
    Total Energy =                      -1146.2320840864865659
  @DF-RHF Final Energy: -1146.28558156714007
    Total Energy =                      -1146.2855815671396158
  @DF-RHF Final Energy: -1146.29914356932977
    Total Energy =                      -1146.2991435693293170
  @DF-RHF Final Energy: -1146.30096543100535
    Total Energy =                      -1146.3009654310055794
  @DF-RHF Final Energy: -1146.30120291086405
    Total Energy =                      -1146.3012029108635943
  @DF-RHF Final Energy: -1146.30125275539331
    Total Energy =                      -1146.3012527553937616
  @DF-RHF Final Energy: -1146.30127743708636
    Total Energy =                      -1146.3012774370865827
  @DF-RHF Final Energy: -1146.30128257985507
    Total Energy =                      -1146.3012825798552967
  @DF-RHF Final Energy: -1146.29593107132450
    Total Energy =                      -1146.2959310713249579
  @DF-RHF Final Energy: -1146.26431337954364
    Total Energy =                      -1146.2643133795445465
  @DF-RHF Final Energy: -1146.29401723322849
    Total Energy =                      -1146.2940172332291695
  @DF-RHF Final Energy: -1146.30070281521671
    Total Energy =                      -1146.3007028152160274
  @DF-RHF Final Energy: -1146.30117438670914
    Total Energy =                      -1146.3011743867095902
  @DF-RHF Final Energy: -1146.30123929301658
    Total Energy =                      -1146.3012392930165788
  @DF-RHF Final Energy: -1146.30126381870332
    Total Energy =                      -1146.3012638187037737
  @DF-RHF Final Energy: -1146.30127842210572
    Total Energy =                      -1146.3012784221061793
  @DF-RHF Final Energy: -1146.30128960958564
    Total Energy =                      -1146.3012896095847282
  @DF-RHF Final Energy: -1146.30129262548962
    Total Energy =                      -1146.3012926254891681
  @DF-RHF Final Energy: -1146.30129097463373
    Total Energy =                      -1146.3012909746337300
  @DF-RHF Final Energy: -1146.28184971396695
    Total Energy =                      -1146.2818497139678584
  @DF-RHF Final Energy: -1146.29961449178836
    Total Energy =                      -1146.2996144917885886
  @DF-RHF Final Energy: -1146.30128925394229
    Total Energy =                      -1146.3012892539425138
  @DF-RHF Final Energy: -1146.30129548684386
    Total Energy =                      -1146.3012954868434008
  @DF-RHF Final Energy: -1146.30129637521713
    Total Energy =                      -1146.3012963752166797
  Basis Set: 6-31G*
  Basis Set:
  @DF-RHF Final Energy: -1146.30129651896982
    Total Energy =                      -1146.3012965189686838
  Basis Set: 6-31G*
  Basis Set:
  Basis Set: 6-31G*
  Basis Set:
  @DF-RHF Final Energy: -1146.30129470683369
    Total Energy =                      -1146.3012947068339145
  Basis Set: 6-31G*
  Basis Set:
  Basis Set: 6-31G*
  Basis Set:
  @DF-RHF Final Energy: -1146.30129625325662
    Total Energy =                      -1146.3012962532563961
  Basis Set: 6-31G*
  Basis Set:
  Charge       = 0
  Multiplicity = 1
  Basis Set: 6-31G*
  Basis Set:

    Orbital Energies (a.u.)
    -----------------------

    Doubly Occupied:

       1A   -104.843092     2A    -26.361472     3A    -26.360543
       4A    -26.359929     5A    -26.341005     6A    -26.336971
       7A    -20.644690     8A    -11.531973     9A    -11.486326
      10A    -11.404684    11A    -10.577964    12A     -8.047332
      13A     -8.043753    14A     -8.043677    15A     -1.764139
      16A     -1.710856    17A     -1.660677    18A     -1.657532
      19A     -1.632772    20A     -1.476107    21A     -1.179414
      22A     -1.047191    23A     -0.997347    24A     -0.917471
      25A     -0.860681    26A     -0.853210    27A     -0.847975
      28A     -0.827196    29A     -0.807709    30A     -0.750602
      31A     -0.731319    32A     -0.728966    33A     -0.705458
      34A     -0.694510    35A     -0.679262    36A     -0.674257
      37A     -0.663744    38A     -0.658479    39A     -0.651436
      40A     -0.639458    41A     -0.586825    42A     -0.557197
      43A     -0.523212    44A     -0.475648    45A     -0.467295

  @DF-RHF Final Energy: -1146.30129620646267

   => Energetics <=

    Nuclear Repulsion Energy =            758.0761294596301241
    One-Electron Energy =               -3099.1321353164885295
    Two-Electron Energy =                1194.7547096503967623
    DFT Exchange-Correlation Energy =       0.0000000000000000
    Empirical Dispersion Energy =           0.0000000000000000
    PCM Polarization Energy =               0.0000000000000000
    EFP Energy =                            0.0000000000000000
    Total Energy =                      -1146.3012962064617568
    Molecular point group: c1
  Basis Set: 6-31G*
  Basis Set:

  -Total Gradient:
     Atom            X                  Y                   Z
    ------   -----------------  -----------------  -----------------
       1       -0.000021626048     0.000028139833     0.000008870240
       2       -0.001872237130     0.006651603579     0.001061999491
       3        0.002177146881    -0.010021736868    -0.002227371213
       4       -0.000116781600    -0.000057364884     0.000215823158
       5       -0.000148323048     0.000077019106    -0.000042262382
       6        0.005326098475    -0.002356893129     0.003557264833
       7        0.000115166024     0.000587122007     0.000457028880
       8       -0.000020437425    -0.000220723672    -0.000108764350
       9       -0.005588383736     0.005502159910    -0.002577257615
      10        0.000036354878    -0.000220508371    -0.000066249434
      11        0.000084473664     0.000049733304    -0.000027545674
      12        0.000028549052    -0.000018550833    -0.000251535940

  **** Optimization is complete! (in 41 steps) ****
    Final optimized geometry and variables:
    Molecular point group: c1

    Geometry (in Angstrom), charge = 0, multiplicity = 1:

    H           -1.674838063670    -0.876578654091     2.313366348368
    C           -1.334571198741    -0.586319254811     1.338032498959
    O           -0.029990436351    -0.232683810660     1.471213413513
    F           -1.479911491796    -1.596251172997     0.490520255001
    F           -2.076659251917     0.416895038225     0.888891571372
    C            0.835693983434     0.190038245267     0.475222222066
    C            0.234342892078     0.837492583211    -0.781158544961
    CL           1.914604913338    -1.139125995261     0.016305472526
    H            1.418209644889     0.985041708309     0.907068960780
    F            1.223900595366     1.193879400251    -1.574937670799
    F           -0.410614256328     1.934505426278    -0.441159509200
    F           -0.574825729293     0.059131451200    -1.454695988584

  Mulliken Charges: (a.u.)
   Center  Symbol    Alpha    Beta     Spin     Total
       1     H     0.40403  0.40403  0.00000  0.19194
       2     C     2.55970  2.55970  0.00000  0.88061
       3     O     4.31804  4.31804  0.00000 -0.63608
       4     F     4.68261  4.68261  0.00000 -0.36522
       5     F     4.68400  4.68400  0.00000 -0.36801
       6     C     3.00611  3.00611  0.00000 -0.01223
       7     C     2.45933  2.45933  0.00000  1.08135
       8    CL     8.50257  8.50257  0.00000 -0.00515
       9     H     0.36993  0.36993  0.00000  0.26014
      10     F     4.67306  4.67306  0.00000 -0.34612
      11     F     4.67471  4.67471  0.00000 -0.34942
      12     F     4.66590  4.66590  0.00000 -0.33180

   Total alpha = 45.00000, Total beta = 45.00000, Total charge =  0.00000
