  ==> Input File <==

--------------------------------------------------------------------------
set {
	reference rhf
	basis cc-pvtz
}

set_num_threads( 4 )
memory 2 gb

molecule MOL {
0 1

H	 -1.970548	 0.107610	 -2.371943
O	 -2.116347	 0.013079	 -1.448522
C	 -1.079716	 0.620830	 -0.730068
C	 0.195183	 -0.196598	 -0.795153
H	 -0.884740	 1.627696	 -1.085503
H	 -1.408180	 0.693863	 0.296801
O	 1.172093	 0.457955	 -0.054438
H	 0.512955	 -0.308481	 -1.833132
H	 0.008195	 -1.193589	 -0.401938
C	 2.395478	 -0.199028	 -0.000366
H	 2.505946	 -0.901710	 -0.823354
H	 3.174616	 0.545641	 -0.071768
H	 2.513730	 -0.742241	 0.934223

	symmetry c1
}
set optking {
	frozen_dihedral = ("
		4 7 10 13
	")
}

ee = optimize('scf')
oeprop('DIPOLE', 'QUADRUPOLE', 'MULLIKEN_CHARGES')
f=open( 'psi4out.xyz', 'w' )
f.write( "13  " )
f.write( str(ee) + "\n" )
f.write( MOL.save_string_xyz() )
f.close()
--------------------------------------------------------------------------

    Molecular point group: c1
  Charge       = 0
  Multiplicity = 1
  Basis Set: CC-PVTZ
  Basis Set:
  @DF-RHF Final Energy:  -268.05947118828510
    Total Energy =                       -268.0594711882853289
    Molecular point group: c1
  Basis Set: CC-PVTZ
  Basis Set:
  Basis Set: CC-PVTZ
  Basis Set:
  @DF-RHF Final Energy:  -268.05963004362098
    Total Energy =                       -268.0596300436209276
  Basis Set: CC-PVTZ
  Basis Set:
  Basis Set: CC-PVTZ
  Basis Set:
  @DF-RHF Final Energy:  -268.05966099053603
    Total Energy =                       -268.0596609905361447
  Basis Set: CC-PVTZ
  Basis Set:
  Charge       = 0
  Multiplicity = 1
  Basis Set: CC-PVTZ
  Basis Set:

    Orbital Energies (a.u.)
    -----------------------

    Doubly Occupied:

       1A    -20.553462     2A    -20.552616     3A    -11.269606
       4A    -11.267413     5A    -11.267060     6A     -1.388709
       7A     -1.368589     8A     -1.019522     9A     -0.914197
      10A     -0.842489    11A     -0.711136    12A     -0.674324
      13A     -0.661986    14A     -0.637500    15A     -0.598646
      16A     -0.569651    17A     -0.550151    18A     -0.491007
      19A     -0.483563    20A     -0.441298    21A     -0.420340

  @DF-RHF Final Energy:  -268.05966135501001

   => Energetics <=

    Nuclear Repulsion Energy =            190.2391540033555373
    One-Electron Energy =                -743.2311055835301659
    Two-Electron Energy =                 284.9322902251644223
    DFT Exchange-Correlation Energy =       0.0000000000000000
    Empirical Dispersion Energy =           0.0000000000000000
    PCM Polarization Energy =               0.0000000000000000
    EFP Energy =                            0.0000000000000000
    Total Energy =                       -268.0596613550101779
    Molecular point group: c1
  Basis Set: CC-PVTZ
  Basis Set:

  -Total Gradient:
     Atom            X                  Y                   Z
    ------   -----------------  -----------------  -----------------
       1       -0.000014375998    -0.000005742224    -0.000005971911
       2       -0.000058683097     0.000003174681    -0.000043010451
       3        0.000008423083    -0.000030471220    -0.000012245886
       4        0.000572401490     0.000999554276    -0.001648010267
       5       -0.000003278365     0.000003669407     0.000009027107
       6        0.000020917595     0.000001280366    -0.000003651431
       7       -0.000484325275    -0.000895678501     0.002724444645
       8        0.000007656143     0.000014931045     0.000018337676
       9        0.000000741021     0.000011767185    -0.000010101525
      10       -0.001075900349    -0.002181420078    -0.002071424030
      11       -0.000003126964    -0.000001126676    -0.000004714171
      12        0.000011070053    -0.000000408576    -0.000000497319
      13        0.001018480667     0.002080470316     0.001047817565

  **** Optimization is complete! (in 4 steps) ****
    Final optimized geometry and variables:
    Molecular point group: c1

    Geometry (in Angstrom), charge = 0, multiplicity = 1:

    H           -2.078984683736    -0.010540366530    -1.739642269237
    O           -2.222471659893    -0.107266725617    -0.816087267228
    C           -1.178522110025     0.489925248874    -0.099000888096
    C            0.089465506141    -0.337463299288    -0.170552245156
    H           -0.975991990666     1.496106503995    -0.452233730319
    H           -1.503184175838     0.563099846066     0.929042388700
    O            1.074293167599     0.314690732392     0.563381571119
    H            0.400297434646    -0.451017288038    -1.209702208598
    H           -0.106159448867    -1.332368808393     0.223474137182
    C            2.309495162340    -0.328264008703     0.630600404055
    H            2.447606782137    -1.028323052366    -0.186863961135
    H            3.088990725040     0.420546298225     0.574684340810
    H            2.418298408069    -0.856227644212     1.572936083677

  Mulliken Charges: (a.u.)
   Center  Symbol    Alpha    Beta     Spin     Total
       1     H     0.39414  0.39414  0.00000  0.21173
       2     O     4.20214  4.20214  0.00000 -0.40428
       3     C     2.97484  2.97484  0.00000  0.05033
       4     C     2.96488  2.96488  0.00000  0.07023
       5     H     0.46719  0.46719  0.00000  0.06561
       6     H     0.45266  0.45266  0.00000  0.09469
       7     O     4.17909  4.17909  0.00000 -0.35818
       8     H     0.48115  0.48115  0.00000  0.03770
       9     H     0.47017  0.47017  0.00000  0.05965
      10     C     3.02846  3.02846  0.00000 -0.05693
      11     H     0.47192  0.47192  0.00000  0.05616
      12     H     0.45236  0.45236  0.00000  0.09529
      13     H     0.46100  0.46100  0.00000  0.07800

   Total alpha = 21.00000, Total beta = 21.00000, Total charge = -0.00000
