  ==> Input File <==

--------------------------------------------------------------------------
set {
	reference rhf
	basis 6-31G*
}

set_num_threads( 1 )
memory 2 gb

molecule MOL {
0 1

H	 1.655428	 -0.506830	 1.818528
C	 1.850977	 -0.120644	 0.810847
C	 0.692068	 0.589600	 0.160137
O	 2.916902	 -0.275459	 0.308885
C	 -0.558097	 -0.297372	 0.091132
H	 1.002368	 0.912900	 -0.826611
H	 0.472127	 1.477391	 0.751984
C	 -1.850991	 0.512573	 -0.019058
H	 -0.476753	 -0.965681	 -0.762987
H	 -0.604799	 -0.930658	 0.975228
C	 -3.096943	 -0.368295	 -0.099594
H	 -1.800724	 1.150330	 -0.898172
H	 -1.931651	 1.177355	 0.838044
H	 -3.060452	 -1.020287	 -0.967456
H	 -3.996858	 0.233488	 -0.175704
H	 -3.191959	 -0.995686	 0.782074

	symmetry c1
}
set optking {
	frozen_dihedral = ("
		9 5 8 12,
		4 2 3 6
	")
}

ee = energy('scf')
oeprop('DIPOLE', 'QUADRUPOLE', 'MULLIKEN_CHARGES')
f=open( 'psi4out.xyz', 'w' )
f.write( "16  " )
f.write( str(ee) + "\n" )
f.write( MOL.save_string_xyz() )
f.close()
--------------------------------------------------------------------------

    Molecular point group: c1

    Geometry (in Angstrom), charge = 0, multiplicity = 1:

       Center              X                  Y                   Z               Mass
    ------------   -----------------  -----------------  -----------------  -----------------
           H          1.666196568821    -0.505910877884     1.611621514390     1.007825032070
           C          1.861745568821    -0.119724877884     0.603940514390    12.000000000000
           C          0.702836568821     0.590519122116    -0.046769485610    12.000000000000
           O          2.927670568821    -0.274539877884     0.101978514390    15.994914619560
           C         -0.547328431179    -0.296452877884    -0.115774485610    12.000000000000
           H          1.013136568821     0.913819122116    -1.033517485610     1.007825032070
           H          0.482895568821     1.478310122116     0.545077514390     1.007825032070
           C         -1.840222431179     0.513492122116    -0.225964485610    12.000000000000
           H         -0.465984431179    -0.964761877884    -0.969893485610     1.007825032070
           H         -0.594030431179    -0.929738877884     0.768321514390     1.007825032070
           C         -3.086174431179    -0.367375877884    -0.306500485610    12.000000000000
           H         -1.789955431179     1.151249122116    -1.105078485610     1.007825032070
           H         -1.920882431179     1.178274122116     0.631137514390     1.007825032070
           H         -3.049683431179    -1.019367877884    -1.174362485610     1.007825032070
           H         -3.986089431179     0.234407122116    -0.382610485610     1.007825032070
           H         -3.181190431179    -0.994766877884     0.575167514390     1.007825032070

  Charge       = 0
  Multiplicity = 1
  Basis Set: 6-31G*
  Basis Set:

    Orbital Energies (a.u.)
    -----------------------

    Doubly Occupied:

       1A    -20.562505     2A    -11.326710     3A    -11.236266
       4A    -11.234905     5A    -11.229539     6A    -11.218526
       7A     -1.402344     8A     -1.096818     9A     -1.018830
      10A     -0.905861    11A     -0.813146    12A     -0.794266
      13A     -0.675732    14A     -0.650417    15A     -0.627605
      16A     -0.603635    17A     -0.580406    18A     -0.553136
      19A     -0.530689    20A     -0.505584    21A     -0.487163
      22A     -0.480961    23A     -0.479827    24A     -0.409490

  @DF-RHF Final Energy:  -270.01851832348677

   => Energetics <=

    Nuclear Repulsion Energy =            228.8833465178969391
    One-Electron Energy =                -818.9549881714712001
    Two-Electron Energy =                 320.0531233300876579
    DFT Exchange-Correlation Energy =       0.0000000000000000
    Empirical Dispersion Energy =           0.0000000000000000
    PCM Polarization Energy =               0.0000000000000000
    EFP Energy =                            0.0000000000000000
    Total Energy =                       -270.0185183234866031

  Mulliken Charges: (a.u.)
   Center  Symbol    Alpha    Beta     Spin     Total
       1     H     0.43181  0.43181  0.00000  0.13638
       2     C     2.83124  2.83124  0.00000  0.33752
       3     C     3.20773  3.20773  0.00000 -0.41546
       4     O     4.23700  4.23700  0.00000 -0.47401
       5     C     3.16475  3.16475  0.00000 -0.32950
       6     H     0.39821  0.39821  0.00000  0.20358
       7     H     0.40936  0.40936  0.00000  0.18128
       8     C     3.15272  3.15272  0.00000 -0.30544
       9     H     0.41121  0.41121  0.00000  0.17758
      10     H     0.41915  0.41915  0.00000  0.16170
      11     C     3.24068  3.24068  0.00000 -0.48136
      12     H     0.41865  0.41865  0.00000  0.16271
      13     H     0.42120  0.42120  0.00000  0.15760
      14     H     0.41935  0.41935  0.00000  0.16130
      15     H     0.41653  0.41653  0.00000  0.16693
      16     H     0.42041  0.42041  0.00000  0.15919

   Total alpha = 24.00000, Total beta = 24.00000, Total charge =  0.00000
