  ==> Input File <==

--------------------------------------------------------------------------
set {
	reference rhf
	basis 6-31G*
}

set_num_threads( 4 )
memory 2 gb

molecule MOL {
0 1

H	 3.022657	 1.376703	 2.520970
N	 2.187468	 0.823532	 2.518677
C	 1.397424	 1.086841	 1.324515
H	 1.672959	 1.072872	 3.342048
C	 0.177036	 0.173570	 1.276095
H	 2.027332	 0.889491	 0.462467
H	 1.074519	 2.127863	 1.244483
C	 -0.679275	 0.379305	 0.025956
H	 0.517038	 -0.856477	 1.332984
H	 -0.432286	 0.346609	 2.162729
C	 -1.903357	 -0.536963	 -0.023547
H	 -0.070113	 0.209414	 -0.860558
H	 -1.007226	 1.416485	 -0.024572
C	 -3.225172	 0.228290	 0.028445
H	 -1.867824	 -1.134999	 -0.931459
H	 -1.860449	 -1.239604	 0.805977
H	 -3.313397	 0.915643	 -0.808262
H	 -4.073500	 -0.448134	 -0.008893
H	 -3.306061	 0.809945	 0.942516

	symmetry c1
}
set optking {
	frozen_dihedral = ("
		12 8 11 15
	")
}

ee = optimize('scf')
oeprop('DIPOLE', 'QUADRUPOLE', 'MULLIKEN_CHARGES')
f=open( 'psi4out.xyz', 'w' )
f.write( "19  " )
f.write( str(ee) + "\n" )
f.write( MOL.save_string_xyz() )
f.close()
--------------------------------------------------------------------------

    Molecular point group: c1
  Charge       = 0
  Multiplicity = 1
  Basis Set: 6-31G*
  Basis Set:
  @DF-RHF Final Energy:  -251.34584225275279
    Total Energy =                       -251.3458422527528455
    Molecular point group: c1
  Basis Set: 6-31G*
  Basis Set:
  Basis Set: 6-31G*
  Basis Set:
  @DF-RHF Final Energy:  -251.34608493058985
    Total Energy =                       -251.3460849305898250
  Basis Set: 6-31G*
  Basis Set:
  Basis Set: 6-31G*
  Basis Set:
  @DF-RHF Final Energy:  -251.34616842597251
    Total Energy =                       -251.3461684259723370
  Basis Set: 6-31G*
  Basis Set:
  Basis Set: 6-31G*
  Basis Set:
  @DF-RHF Final Energy:  -251.34616719275243
    Total Energy =                       -251.3461671927524890
  Basis Set: 6-31G*
  Basis Set:
  Basis Set: 6-31G*
  Basis Set:
  @DF-RHF Final Energy:  -251.34616942499926
    Total Energy =                       -251.3461694249994025
  Basis Set: 6-31G*
  Basis Set:
  Charge       = 0
  Multiplicity = 1
  Basis Set: 6-31G*
  Basis Set:

    Orbital Energies (a.u.)
    -----------------------

    Doubly Occupied:

       1A    -15.532522     2A    -11.239544     3A    -11.213624
       4A    -11.212423     5A    -11.209908     6A    -11.208126
       7A     -1.176583     8A     -1.070348     9A     -0.997630
      10A     -0.900008    11A     -0.816147    12A     -0.787752
      13A     -0.662789    14A     -0.638581    15A     -0.611775
      16A     -0.596255    17A     -0.562032    18A     -0.557733
      19A     -0.519028    20A     -0.499367    21A     -0.488871
      22A     -0.464435    23A     -0.453374    24A     -0.448133
      25A     -0.380967

  @DF-RHF Final Energy:  -251.34616944411670

   => Energetics <=

    Nuclear Repulsion Energy =            246.5226621334617789
    One-Electron Energy =                -827.2417506203288440
    Two-Electron Energy =                 329.3729190427502544
    DFT Exchange-Correlation Energy =       0.0000000000000000
    Empirical Dispersion Energy =           0.0000000000000000
    PCM Polarization Energy =               0.0000000000000000
    EFP Energy =                            0.0000000000000000
    Total Energy =                       -251.3461694441168675
    Molecular point group: c1
  Basis Set: 6-31G*
  Basis Set:

  -Total Gradient:
     Atom            X                  Y                   Z
    ------   -----------------  -----------------  -----------------
       1       -0.000002823868    -0.000000589435    -0.000004100311
       2       -0.000004134743    -0.000004041931     0.000000140019
       3        0.000000250948     0.000009542969     0.000001959229
       4       -0.000000231649    -0.000000179615    -0.000000572467
       5        0.000001216801     0.000000198089     0.000002238233
       6       -0.000002147078    -0.000001803490     0.000000312510
       7       -0.000000070747     0.000001389997     0.000000056105
       8        0.000688111710    -0.000979671745     0.000656976971
       9       -0.000001204963     0.000000427509    -0.000003215960
      10       -0.000000206985    -0.000002152505    -0.000001549005
      11       -0.000683124276     0.000982995013    -0.000648836832
      12       -0.000461530400     0.000656551098    -0.000451531269
      13        0.000003229768    -0.000000300296     0.000001169678
      14       -0.000001724057    -0.000002721343    -0.000003084946
      15        0.000463359607    -0.000658959132     0.000448508955
      16       -0.000001143829     0.000000932105     0.000002266194
      17        0.000003084329     0.000002669803     0.000003412169
      18       -0.000001509520     0.000001595011    -0.000004585346
      19        0.000000598954    -0.000005882103     0.000000436073

  **** Optimization is complete! (in 6 steps) ****
    Final optimized geometry and variables:
    Molecular point group: c1

    Geometry (in Angstrom), charge = 0, multiplicity = 1:

    H            3.335353088147     1.011221364196     1.649147648544
    N            2.504897194752     0.451047911242     1.640894444766
    C            1.717818762981     0.712875219843     0.444348025523
    H            1.984757585239     0.692644248194     2.463051739726
    C            0.506083414181    -0.210448103563     0.386095672724
    H            2.353101240849     0.525020532387    -0.416030036304
    H            1.386224999394     1.751436249701     0.367566693729
    C           -0.346107102138    -0.009204796665    -0.868490216869
    H            0.853332473555    -1.238032247668     0.441668802958
    H           -0.111417874166    -0.045758731137     1.269128864428
    C           -1.595099832848    -0.918716213446    -0.917081029708
    H            0.269371997822    -0.176787718123    -1.748823923179
    H           -0.655585604350     1.032657278432    -0.922837152590
    C           -2.913641874043    -0.147762275339    -0.850002340507
    H           -1.579583376653    -1.522517621039    -1.819750488578
    H           -1.560226248926    -1.626058547064    -0.092362714319
    H           -3.012726592996     0.532525716920    -1.691122116947
    H           -3.765610112371    -0.820774316103    -0.865494803820
    H           -2.974679764039     0.443069122882     0.060067655615

  Mulliken Charges: (a.u.)
   Center  Symbol    Alpha    Beta     Spin     Total
       1     H     0.33249  0.33249  0.00000  0.33502
       2     N     3.92180  3.92180  0.00000 -0.84360
       3     C     3.06087  3.06087  0.00000 -0.12174
       4     H     0.33538  0.33538  0.00000  0.32924
       5     C     3.15323  3.15323  0.00000 -0.30646
       6     H     0.42084  0.42084  0.00000  0.15832
       7     H     0.43472  0.43472  0.00000  0.13056
       8     C     3.15954  3.15954  0.00000 -0.31908
       9     H     0.41253  0.41253  0.00000  0.17493
      10     H     0.42772  0.42772  0.00000  0.14455
      11     C     3.15479  3.15479  0.00000 -0.30958
      12     H     0.42054  0.42054  0.00000  0.15893
      13     H     0.42206  0.42206  0.00000  0.15589
      14     C     3.23963  3.23963  0.00000 -0.47926
      15     H     0.41988  0.41988  0.00000  0.16024
      16     H     0.41916  0.41916  0.00000  0.16168
      17     H     0.42167  0.42167  0.00000  0.15667
      18     H     0.42046  0.42046  0.00000  0.15908
      19     H     0.42268  0.42268  0.00000  0.15465

   Total alpha = 25.00000, Total beta = 25.00000, Total charge = -0.00000
