                              Psi4 1.0.54 Driver

  ==> Input File <==

--------------------------------------------------------------------------
set {
	reference rhf
	basis cc-pvtz
}

set_num_threads( 4 )
memory 2 gb

molecule MOL {
0 1

O	 -2.081319	 -0.951530	 -0.502732
N	 -1.613558	 0.006676	 0.014756
C	 -0.329345	 -0.171618	 0.743966
O	 -2.068523	 1.100482	 -0.024385
C	 0.835904	 0.041968	 -0.213982
H	 -0.346048	 -1.174374	 1.137184
H	 -0.333613	 0.555559	 1.538590
C	 0.815688	 -0.977097	 -1.350320
H	 0.781165	 1.046848	 -0.616198
H	 1.764842	 -0.037665	 0.338711
C	 1.976769	 -0.789868	 -2.320536
H	 -0.123159	 -0.897051	 -1.890317
H	 0.849084	 -1.980413	 -0.936016
H	 1.950392	 0.193617	 -2.776341
H	 2.929865	 -0.895557	 -1.814420
H	 1.939650	 -1.525003	 -3.115117

	symmetry c1
}
set optking {
	frozen_dihedral = ("
		9 5 3 2
	")
}

ee,wfn = optimize('scf', return_wfn=True)
oeprop( wfn, 'DIPOLE', 'QUADRUPOLE', 'MULLIKEN_CHARGES')
f=open( 'psi4out.xyz', 'w' )
f.write( "16  " )
f.write( str(ee) + "\n" )
f.write( MOL.save_string_xyz() )
f.close()
--------------------------------------------------------------------------

    Molecular point group: c1
  Charge       = 0
  Multiplicity = 1
  Basis Set: CC-PVTZ
  Basis Set:
  @DF-RHF Final Energy:  -360.90646639041563
    Total Energy =                       -360.9064663904153463
    Molecular point group: c1
  Basis Set: CC-PVTZ
  Basis Set:
  Basis Set: CC-PVTZ
  Basis Set:
  @DF-RHF Final Energy:  -360.90782765421960
    Total Energy =                       -360.9078276542200001
  Basis Set: CC-PVTZ
  Basis Set:
  Basis Set: CC-PVTZ
  Basis Set:
  @DF-RHF Final Energy:  -360.90336331754798
    Total Energy =                       -360.9033633175480418
  Basis Set: CC-PVTZ
  Basis Set:
  Basis Set: CC-PVTZ
  Basis Set:
  @DF-RHF Final Energy:  -360.90839621288410
    Total Energy =                       -360.9083962128841563
  Basis Set: CC-PVTZ
  Basis Set:
  @DF-RHF Final Energy:  -360.90879491575436
    Total Energy =                       -360.9087949157542425
  @DF-RHF Final Energy:  -360.90901243989640
    Total Energy =                       -360.9090124398965145
  @DF-RHF Final Energy:  -360.90917811827364
    Total Energy =                       -360.9091781182736440
  Basis Set: CC-PVTZ
  Basis Set:
  @DF-RHF Final Energy:  -360.90926480635318
    Total Energy =                       -360.9092648063529509
  Basis Set: CC-PVTZ
  Basis Set:
  Basis Set: CC-PVTZ
  Basis Set:
  @DF-RHF Final Energy:  -360.90927991556913
    Total Energy =                       -360.9092799155693001
  Basis Set: CC-PVTZ
  Basis Set:
  Basis Set: CC-PVTZ
  Basis Set:
  @DF-RHF Final Energy:  -360.90928463478690
    Total Energy =                       -360.9092846347867862
  Basis Set: CC-PVTZ
  Basis Set:
  Charge       = 0
  Multiplicity = 1
  Basis Set: CC-PVTZ
  Basis Set:

    Orbital Energies (a.u.)
    -----------------------

    Doubly Occupied:

       1A    -20.592499     2A    -20.588564     3A    -15.836677
       4A    -11.296948     5A    -11.248288     6A    -11.234382
       7A    -11.221506     8A     -1.636064     9A     -1.420248
      10A     -1.134845    11A     -1.054617    12A     -0.947916
      13A     -0.854134    14A     -0.815471    15A     -0.759475
      16A     -0.740469    17A     -0.729604    18A     -0.658713
      19A     -0.623813    20A     -0.603122    21A     -0.572530
      22A     -0.546522    23A     -0.507599    24A     -0.493326
      25A     -0.490853    26A     -0.486707    27A     -0.473103
      28A     -0.453895

  @DF-RHF Final Energy:  -360.90928483621923

   => Energetics <=

    Nuclear Repulsion Energy =            320.1963616265291535
    One-Electron Energy =               -1126.1675078590353678
    Two-Electron Energy =                 445.0618613962872132
    DFT Exchange-Correlation Energy =       0.0000000000000000
    Empirical Dispersion Energy =           0.0000000000000000
    PCM Polarization Energy =               0.0000000000000000
    EFP Energy =                            0.0000000000000000
    Total Energy =                       -360.9092848362190580
    Molecular point group: c1
  Basis Set: CC-PVTZ
  Basis Set:

  -Total Gradient:
     Atom            X                  Y                   Z
    ------   -----------------  -----------------  -----------------
       1        0.000031386314     0.000036119997    -0.000001162020
       2       -0.000014010744    -0.000049208465     0.000058394160
       3       -0.000029085546    -0.000109155949    -0.000053245018
       4       -0.000015866664     0.000095683210    -0.000031330356
       5        0.000087887247     0.000053162005     0.000098670496
       6        0.000014607414    -0.000000736620     0.000002401637
       7       -0.000005029320     0.000001383110    -0.000007577146
       8       -0.000004246360    -0.000013711458    -0.000002528747
       9       -0.000070617161    -0.000021007101    -0.000070394614
      10        0.000000524027    -0.000002970766    -0.000002143065
      11        0.000002029129     0.000006930775     0.000001616844
      12        0.000004033354     0.000001332584     0.000006023624
      13       -0.000002820297    -0.000001287269     0.000000856301
      14        0.000001909376     0.000002192650    -0.000003619169
      15        0.000001974803    -0.000000468468    -0.000000613256
      16       -0.000002675576     0.000001741767     0.000004650330

  **** Optimization is complete! (in 11 steps) ****
    Final optimized geometry and variables:
    Molecular point group: c1

    Geometry (in Angstrom), charge = 0, multiplicity = 1:

    O           -1.982882320193    -0.646669004919     0.676453429433
    N           -1.187361165790     0.230204169721     0.702003951576
    C            0.175506633335    -0.086321278561     1.219751676275
    O           -1.385359449931     1.346318900397     0.353303914179
    C            1.244375045137     0.189589595872     0.173020513777
    H            0.142057673397    -1.119525069494     1.519290630497
    H            0.300739362249     0.549945666366     2.082708940509
    C            1.134717464099    -0.685580806835    -1.073145896260
    H            1.209219163281     1.236650098480    -0.097881972001
    H            2.200094906492     0.018544061503     0.658065777994
    C            2.247075197810    -0.403523807551    -2.076892628032
    H            0.173587867428    -0.523728502032    -1.549836603707
    H            1.162006570041    -1.731742950283    -0.783050390025
    H            2.220891692557     0.628506402620    -2.408662256284
    H            3.223970770275    -0.588047817768    -1.642699412058
    H            2.148771325681    -1.034906921951    -2.951350634085

  Mulliken Charges: (a.u.)
   Center  Symbol    Alpha    Beta     Spin     Total
       1     O     4.16869  4.16869  0.00000 -0.33738
       2     N     3.27933  3.27933  0.00000  0.44134
       3     C     3.05214  3.05214  0.00000 -0.10427
       4     O     4.17444  4.17444  0.00000 -0.34888
       5     C     3.10596  3.10596  0.00000 -0.21192
       6     H     0.43065  0.43065  0.00000  0.13870
       7     H     0.42690  0.42690  0.00000  0.14620
       8     C     3.08618  3.08618  0.00000 -0.17235
       9     H     0.43661  0.43661  0.00000  0.12677
      10     H     0.44441  0.44441  0.00000  0.11118
      11     C     3.14976  3.14976  0.00000 -0.29953
      12     H     0.44336  0.44336  0.00000  0.11328
      13     H     0.45063  0.45063  0.00000  0.09873
      14     H     0.45126  0.45126  0.00000  0.09748
      15     H     0.45514  0.45514  0.00000  0.08973
      16     H     0.44454  0.44454  0.00000  0.11093

   Total alpha = 28.00000, Total beta = 28.00000, Total charge =  0.00000

*** Psi4 exiting successfully. Buy a developer a beer!
