  ==> Input File <==

--------------------------------------------------------------------------
set {
	reference rhf
	basis 6-31G*
}

set_num_threads( 1 )
memory 2 gb

molecule MOL {
0 1

H	 3.022290	 0.969588	 1.744228
O	 3.744891	 0.723356	 1.185399
C	 3.740019	 -0.668059	 0.990470
C	 2.621323	 -1.142089	 0.069307
H	 4.700419	 -0.907195	 0.552154
H	 3.683201	 -1.186623	 1.946839
C	 1.214763	 -0.893714	 0.619550
H	 2.730851	 -0.644261	 -0.890660
H	 2.757154	 -2.207591	 -0.108523
C	 0.115918	 -1.429151	 -0.302766
H	 1.073699	 0.172863	 0.770808
H	 1.120443	 -1.364540	 1.598206
C	 -1.309753	 -1.282496	 0.241564
H	 0.185301	 -0.931790	 -1.268511
H	 0.305657	 -2.483766	 -0.491146
C	 -2.037799	 -0.007733	 -0.193645
H	 -1.890610	 -2.142323	 -0.085726
H	 -1.285946	 -1.330893	 1.329189
C	 -3.489788	 0.042957	 0.286558
H	 -2.017067	 0.064384	 -1.280144
H	 -1.513726	 0.868678	 0.179924
C	 -4.216917	 1.317354	 -0.141063
H	 -4.025645	 -0.823308	 -0.095450
H	 -3.513059	 -0.038752	 1.371301
H	 -4.239342	 1.411634	 -1.223113
H	 -5.243387	 1.322503	 0.212445
H	 -3.726170	 2.201406	 0.256408

	symmetry c1
}
set optking {
	frozen_dihedral = ("
		14 10 7 4,
		10 7 4 8,
		8 4 3 2,
		10 13 16 20,
		20 16 19 22,
		4 3 2 1
	")
}

ee = energy('scf')
oeprop('DIPOLE', 'QUADRUPOLE', 'MULLIKEN_CHARGES')
f=open( 'psi4out.xyz', 'w' )
f.write( "27  " )
f.write( str(ee) + "\n" )
f.write( MOL.save_string_xyz() )
f.close()
--------------------------------------------------------------------------

    Molecular point group: c1

    Geometry (in Angstrom), charge = 0, multiplicity = 1:

       Center              X                  Y                   Z               Mass
    ------------   -----------------  -----------------  -----------------  -----------------
           H          2.933038307144     1.309927236028     1.418770659215     1.007825032070
           O          3.655639307144     1.063695236028     0.859941659215    15.994914619560
           C          3.650767307144    -0.327719763972     0.665012659215    12.000000000000
           C          2.532071307144    -0.801749763972    -0.256150340785    12.000000000000
           H          4.611167307144    -0.566855763972     0.226696659215     1.007825032070
           H          3.593949307144    -0.846283763972     1.621381659215     1.007825032070
           C          1.125511307144    -0.553374763972     0.294092659215    12.000000000000
           H          2.641599307144    -0.303921763972    -1.216117340785     1.007825032070
           H          2.667902307144    -1.867251763972    -0.433980340785     1.007825032070
           C          0.026666307144    -1.088811763972    -0.628223340785    12.000000000000
           H          0.984447307144     0.513202236028     0.445350659215     1.007825032070
           H          1.031191307144    -1.024200763972     1.272748659215     1.007825032070
           C         -1.399004692856    -0.942156763972    -0.083893340785    12.000000000000
           H          0.096049307144    -0.591450763972    -1.593968340785     1.007825032070
           H          0.216405307144    -2.143426763972    -0.816603340785     1.007825032070
           C         -2.127050692856     0.332606236028    -0.519102340785    12.000000000000
           H         -1.979861692856    -1.801983763972    -0.411183340785     1.007825032070
           H         -1.375197692856    -0.990553763972     1.003731659215     1.007825032070
           C         -3.579039692856     0.383296236028    -0.038899340785    12.000000000000
           H         -2.106318692856     0.404723236028    -1.605601340785     1.007825032070
           H         -1.602977692856     1.209017236028    -0.145533340785     1.007825032070
           C         -4.306168692856     1.657693236028    -0.466520340785    12.000000000000
           H         -4.114896692856    -0.482968763972    -0.420907340785     1.007825032070
           H         -3.602310692856     0.301587236028     1.045843659215     1.007825032070
           H         -4.328593692856     1.751973236028    -1.548570340785     1.007825032070
           H         -5.332638692856     1.662842236028    -0.113012340785     1.007825032070
           H         -3.815421692856     2.541745236028    -0.069049340785     1.007825032070

  Charge       = 0
  Multiplicity = 1
  Basis Set: 6-31G*
  Basis Set:

    Orbital Energies (a.u.)
    -----------------------

    Doubly Occupied:

       1A    -20.552281     2A    -11.267086     3A    -11.220350
       4A    -11.216421     5A    -11.215716     6A    -11.215127
       7A    -11.214885     8A    -11.214190     9A    -11.209078
      10A     -1.359043    11A     -1.094467    12A     -1.062042
      13A     -1.011423    14A     -0.949337    15A     -0.885898
      16A     -0.819781    17A     -0.797117    18A     -0.784478
      19A     -0.693904    20A     -0.647356    21A     -0.642455
      22A     -0.613833    23A     -0.599462    24A     -0.583643
      25A     -0.579900    26A     -0.551341    27A     -0.543793
      28A     -0.527539    29A     -0.505872    30A     -0.491100
      31A     -0.484614    32A     -0.474992    33A     -0.471035
      34A     -0.462917    35A     -0.450755    36A     -0.441568
      37A     -0.421936

  @DF-RHF Final Energy:  -388.27953315030902

   => Energetics <=

    Nuclear Repulsion Energy =            456.2577909937605227
    One-Electron Energy =               -1430.5212722673829830
    Two-Electron Energy =                 585.9839481233179868
    DFT Exchange-Correlation Energy =       0.0000000000000000
    Empirical Dispersion Energy =           0.0000000000000000
    PCM Polarization Energy =               0.0000000000000000
    EFP Energy =                            0.0000000000000000
    Total Energy =                       -388.2795331503044736

  Mulliken Charges: (a.u.)
   Center  Symbol    Alpha    Beta     Spin     Total
       1     H     0.27996  0.27996  0.00000  0.44008
       2     O     4.37096  4.37096  0.00000 -0.74191
       3     C     2.99737  2.99737  0.00000  0.00527
       4     C     3.16161  3.16161  0.00000 -0.32323
       5     H     0.41443  0.41443  0.00000  0.17114
       6     H     0.43205  0.43205  0.00000  0.13591
       7     C     3.16227  3.16227  0.00000 -0.32453
       8     H     0.41489  0.41489  0.00000  0.17022
       9     H     0.42417  0.42417  0.00000  0.15167
      10     C     3.15340  3.15340  0.00000 -0.30679
      11     H     0.42438  0.42438  0.00000  0.15124
      12     H     0.42478  0.42478  0.00000  0.15045
      13     C     3.15513  3.15513  0.00000 -0.31025
      14     H     0.42016  0.42016  0.00000  0.15969
      15     H     0.42120  0.42120  0.00000  0.15759
      16     C     3.15145  3.15145  0.00000 -0.30290
      17     H     0.42111  0.42111  0.00000  0.15778
      18     H     0.42333  0.42333  0.00000  0.15335
      19     C     3.15183  3.15183  0.00000 -0.30367
      20     H     0.42325  0.42325  0.00000  0.15351
      21     H     0.42395  0.42395  0.00000  0.15210
      22     C     3.23922  3.23922  0.00000 -0.47845
      23     H     0.42289  0.42289  0.00000  0.15422
      24     H     0.42342  0.42342  0.00000  0.15317
      25     H     0.42155  0.42155  0.00000  0.15689
      26     H     0.41932  0.41932  0.00000  0.16136
      27     H     0.42195  0.42195  0.00000  0.15610

   Total alpha = 37.00000, Total beta = 37.00000, Total charge =  0.00000
