  ==> Input File <==

--------------------------------------------------------------------------
set {
	reference rhf
	basis 6-31G*
}

set_num_threads( 4 )
memory 2 gb

molecule MOL {
0 1

H	 -2.698709	 -0.000305	 0.034435
C	 -1.693833	 0.000034	 0.434417
O	 -0.828952	 -0.000968	 -0.659236
H	 -1.574200	 0.882896	 1.055746
H	 -1.574147	 -0.881698	 1.057355
C	 0.559449	 -0.000018	 -0.420814
C	 0.943270	 -0.826037	 0.805274
C	 1.366245	 -0.388404	 -1.658229
H	 0.770680	 1.039502	 -0.199881
H	 0.317129	 -0.559026	 1.649786
H	 1.977258	 -0.633414	 1.073602
H	 0.845408	 -1.892636	 0.629338
H	 1.032395	 0.180949	 -2.518949
H	 2.418530	 -0.176003	 -1.496838
H	 1.278937	 -1.444853	 -1.890892

	symmetry c1
}
set optking {
	frozen_dihedral = ("
		9 6 3 2
	")
}

ee = optimize('scf')
oeprop('DIPOLE', 'QUADRUPOLE', 'MULLIKEN_CHARGES')
f=open( 'psi4out.xyz', 'w' )
f.write( "15  " )
f.write( str(ee) + "\n" )
f.write( MOL.save_string_xyz() )
f.close()
--------------------------------------------------------------------------

    Molecular point group: c1
  Charge       = 0
  Multiplicity = 1
  Basis Set: 6-31G*
  Basis Set:
  @DF-RHF Final Energy:  -232.13233832761446
    Total Energy =                       -232.1323383276144909
    Molecular point group: c1
  Basis Set: 6-31G*
  Basis Set:
  Basis Set: 6-31G*
  Basis Set:
  @DF-RHF Final Energy:  -232.13609007591830
    Total Energy =                       -232.1360900759183323
  Basis Set: 6-31G*
  Basis Set:
  Basis Set: 6-31G*
  Basis Set:
  @DF-RHF Final Energy:  -232.13823841138151
    Total Energy =                       -232.1382384113816215
  Basis Set: 6-31G*
  Basis Set:
  Basis Set: 6-31G*
  Basis Set:
  @DF-RHF Final Energy:  -232.13857324159065
    Total Energy =                       -232.1385732415905636
  Basis Set: 6-31G*
  Basis Set:
  Basis Set: 6-31G*
  Basis Set:
  @DF-RHF Final Energy:  -232.13860912914612
    Total Energy =                       -232.1386091291461184
  Basis Set: 6-31G*
  Basis Set:
  Basis Set: 6-31G*
  Basis Set:
  @DF-RHF Final Energy:  -232.13861406065365
    Total Energy =                       -232.1386140606536514
  Basis Set: 6-31G*
  Basis Set:
  Charge       = 0
  Multiplicity = 1
  Basis Set: 6-31G*
  Basis Set:

    Orbital Energies (a.u.)
    -----------------------

    Doubly Occupied:

       1A    -20.549004     2A    -11.274582     3A    -11.262320
       4A    -11.213423     5A    -11.204995     6A     -1.372078
       7A     -1.052855     8A     -0.948323     9A     -0.912680
      10A     -0.787339    11A     -0.675823    12A     -0.640635
      13A     -0.631568    14A     -0.592965    15A     -0.550288
      16A     -0.543185    17A     -0.525071    18A     -0.499815
      19A     -0.494855    20A     -0.449420    21A     -0.406421

  @DF-RHF Final Energy:  -232.13861449289010

   => Energetics <=

    Nuclear Repulsion Energy =            197.9243512909310425
    One-Electron Energy =                -706.9506457505706294
    Two-Electron Energy =                 276.8876799667494879
    DFT Exchange-Correlation Energy =       0.0000000000000000
    Empirical Dispersion Energy =           0.0000000000000000
    PCM Polarization Energy =               0.0000000000000000
    EFP Energy =                            0.0000000000000000
    Total Energy =                       -232.1386144928900990
    Molecular point group: c1
  Basis Set: 6-31G*
  Basis Set:

  -Total Gradient:
     Atom            X                  Y                   Z
    ------   -----------------  -----------------  -----------------
       1        0.000004933726    -0.000006419979    -0.000016996223
       2        0.000193639477    -0.003986109685     0.000280529789
       3       -0.000181668805     0.005916522008    -0.001415048489
       4        0.000009087147     0.000014411582    -0.000002886905
       5        0.000000083348     0.000014933532    -0.000022955804
       6       -0.001129488921    -0.002502628394     0.005760159569
       7        0.000018366838     0.000022754663     0.000005580472
       8        0.000038818574    -0.000035946351     0.000000397879
       9        0.001059979047     0.000591009066    -0.004542641800
      10       -0.000019340722     0.000009131263     0.000018537498
      11       -0.000020556589    -0.000001008909    -0.000021274200
      12        0.000018852490    -0.000005545919    -0.000036880149
      13        0.000006748635     0.000006530297     0.000022314781
      14       -0.000006680509    -0.000022512764     0.000006174067
      15        0.000007226267    -0.000015120408    -0.000035010485

  **** Optimization is complete! (in 7 steps) ****
    Final optimized geometry and variables:
    Molecular point group: c1

    Geometry (in Angstrom), charge = 0, multiplicity = 1:

    H           -2.755218869378     0.266569733123     0.192113128714
    C           -1.774438598632     0.204598483689     0.644326660970
    O           -0.850082497148     0.192290134352    -0.397210290016
    H           -1.641095641692     1.065896100189     1.297155767272
    H           -1.729276324268    -0.697175881568     1.246601041749
    C            0.517621816535     0.292648821431    -0.076826432705
    C            0.945055182440    -0.550039859145     1.120966340459
    C            1.263632831349    -0.120578081190    -1.338681513452
    H            0.749290199997     1.341643155201     0.111090198042
    H            0.489171685081    -0.219052965457     2.047166297242
    H            2.020734199082    -0.482140641599     1.245533861081
    H            0.688201820299    -1.593530516762     0.965318994235
    H            0.925781910846     0.472024315818    -2.180804745531
    H            2.333139087761     0.023902017574    -1.221529301787
    H            1.076930366971    -1.165624837905    -1.563460419315

  Mulliken Charges: (a.u.)
   Center  Symbol    Alpha    Beta     Spin     Total
       1     H     0.41249  0.41249  0.00000  0.17502
       2     C     3.07896  3.07896  0.00000 -0.15793
       3     O     4.31323  4.31323  0.00000 -0.62645
       4     H     0.43212  0.43212  0.00000  0.13575
       5     H     0.42740  0.42740  0.00000  0.14519
       6     C     2.90447  2.90447  0.00000  0.19106
       7     C     3.26033  3.26033  0.00000 -0.52067
       8     C     3.24003  3.24003  0.00000 -0.48006
       9     H     0.43007  0.43007  0.00000  0.13985
      10     H     0.41646  0.41646  0.00000  0.16708
      11     H     0.41610  0.41610  0.00000  0.16781
      12     H     0.41506  0.41506  0.00000  0.16988
      13     H     0.41114  0.41114  0.00000  0.17772
      14     H     0.42459  0.42459  0.00000  0.15083
      15     H     0.41754  0.41754  0.00000  0.16491

   Total alpha = 21.00000, Total beta = 21.00000, Total charge = -0.00000
