  ==> Input File <==

--------------------------------------------------------------------------
set {
	reference rhf
	basis 6-31G*
}

set_num_threads( 1 )
memory 2 gb

molecule MOL {
0 1

H	 -2.103637	 3.654993	 -1.165491
O	 -1.408617	 3.057939	 -1.402932
C	 -1.217869	 2.121833	 -0.373412
C	 -0.099030	 1.182496	 -0.787650
H	 -0.957838	 2.623876	 0.557525
H	 -2.131913	 1.557022	 -0.194942
C	 0.198102	 0.111031	 0.262842
H	 0.791170	 1.775104	 -0.980237
H	 -0.374384	 0.717527	 -1.730232
C	 1.331804	 -0.827780	 -0.158768
H	 0.447906	 0.593495	 1.204649
H	 -0.700597	 -0.476092	 0.447624
C	 2.723619	 -0.410569	 0.329459
H	 1.342964	 -0.912588	 -1.244120
H	 1.116806	 -1.824343	 0.220779
C	 3.243875	 0.895854	 -0.272975
H	 3.424222	 -1.207124	 0.091250
H	 2.714788	 -0.329854	 1.414619
H	 3.251977	 0.848779	 -1.358681
H	 2.637085	 1.747371	 0.016682
H	 4.259473	 1.094070	 0.055697

	symmetry c1
}
set optking {
	frozen_dihedral = ("
		2 3 4 8,
		8 4 7 10,
		16 13 10 14,
		1 2 3 5
	")
}

ee = energy('scf')
oeprop('DIPOLE', 'QUADRUPOLE', 'MULLIKEN_CHARGES')
f=open( 'psi4out.xyz', 'w' )
f.write( "21  " )
f.write( str(ee) + "\n" )
f.write( MOL.save_string_xyz() )
f.close()
--------------------------------------------------------------------------

    Molecular point group: c1

    Geometry (in Angstrom), charge = 0, multiplicity = 1:

       Center              X                  Y                   Z               Mass
    ------------   -----------------  -----------------  -----------------  -----------------
           H         -2.744751659104     2.717470224032    -0.801828585355     1.007825032070
           O         -2.049731659104     2.120416224032    -1.039269585355    15.994914619560
           C         -1.858983659104     1.184310224032    -0.009749585355    12.000000000000
           C         -0.740144659104     0.244973224032    -0.423987585355    12.000000000000
           H         -1.598952659104     1.686353224032     0.921187414645     1.007825032070
           H         -2.773027659104     0.619499224032     0.168720414645     1.007825032070
           C         -0.443012659104    -0.826491775968     0.626504414645    12.000000000000
           H          0.150055340896     0.837581224032    -0.616574585355     1.007825032070
           H         -1.015498659104    -0.219995775968    -1.366569585355     1.007825032070
           C          0.690689340896    -1.765302775968     0.204894414645    12.000000000000
           H         -0.193208659104    -0.344027775968     1.568311414645     1.007825032070
           H         -1.341711659104    -1.413614775968     0.811286414645     1.007825032070
           C          2.082504340896    -1.348091775968     0.693121414645    12.000000000000
           H          0.701849340896    -1.850110775968    -0.880457585355     1.007825032070
           H          0.475691340896    -2.761865775968     0.584441414645     1.007825032070
           C          2.602760340896    -0.041668775968     0.090687414645    12.000000000000
           H          2.783107340896    -2.144646775968     0.454912414645     1.007825032070
           H          2.073673340896    -1.267376775968     1.778281414645     1.007825032070
           H          2.610862340896    -0.088743775968    -0.995018585355     1.007825032070
           H          1.995970340896     0.809848224032     0.380344414645     1.007825032070
           H          3.618358340896     0.156547224032     0.419359414645     1.007825032070

  Charge       = 0
  Multiplicity = 1
  Basis Set: 6-31G*
  Basis Set:

    Orbital Energies (a.u.)
    -----------------------

    Doubly Occupied:

       1A    -20.551397     2A    -11.266114     3A    -11.214977
       4A    -11.214536     5A    -11.212503     6A    -11.208826
       7A    -11.206651     8A     -1.358171     9A     -1.087354
      10A     -1.029385    11A     -0.956231    12A     -0.875670
      13A     -0.806577    14A     -0.778093    15A     -0.691648
      16A     -0.660942    17A     -0.620386    18A     -0.609644
      19A     -0.586718    20A     -0.559009    21A     -0.547038
      22A     -0.521762    23A     -0.498971    24A     -0.497933
      25A     -0.479220    26A     -0.462045    27A     -0.448006
      28A     -0.439857    29A     -0.433034

  @DF-RHF Final Energy:  -310.20732745868173

   => Energetics <=

    Nuclear Repulsion Energy =            320.3692024549267785
    One-Electron Energy =               -1055.5075954132889819
    Two-Electron Energy =                 424.9310654996795051
    DFT Exchange-Correlation Energy =       0.0000000000000000
    Empirical Dispersion Energy =           0.0000000000000000
    PCM Polarization Energy =               0.0000000000000000
    EFP Energy =                            0.0000000000000000
    Total Energy =                       -310.2073274586826415

  Mulliken Charges: (a.u.)
   Center  Symbol    Alpha    Beta     Spin     Total
       1     H     0.28129  0.28129  0.00000  0.43743
       2     O     4.37185  4.37185  0.00000 -0.74370
       3     C     2.99003  2.99003  0.00000  0.01995
       4     C     3.16319  3.16319  0.00000 -0.32638
       5     H     0.43355  0.43355  0.00000  0.13290
       6     H     0.43304  0.43304  0.00000  0.13392
       7     C     3.16362  3.16362  0.00000 -0.32724
       8     H     0.41041  0.41041  0.00000  0.17918
       9     H     0.41471  0.41471  0.00000  0.17057
      10     C     3.15517  3.15517  0.00000 -0.31035
      11     H     0.42243  0.42243  0.00000  0.15514
      12     H     0.42077  0.42077  0.00000  0.15846
      13     C     3.15150  3.15150  0.00000 -0.30300
      14     H     0.42106  0.42106  0.00000  0.15788
      15     H     0.42007  0.42007  0.00000  0.15986
      16     C     3.24275  3.24275  0.00000 -0.48550
      17     H     0.42143  0.42143  0.00000  0.15714
      18     H     0.42358  0.42358  0.00000  0.15283
      19     H     0.42053  0.42053  0.00000  0.15894
      20     H     0.41972  0.41972  0.00000  0.16056
      21     H     0.41930  0.41930  0.00000  0.16140

   Total alpha = 29.00000, Total beta = 29.00000, Total charge =  0.00000
