  ==> Input File <==

--------------------------------------------------------------------------
set {
	reference rhf
	basis 6-31G*
}

set_num_threads( 1 )
memory 2 gb

molecule MOL {
0 1

H	 1.082107	 -1.356649	 -0.647038
O	 1.654024	 -0.625927	 -0.460906
C	 1.135793	 0.118896	 0.612333
C	 0.031547	 1.023609	 0.088541
H	 1.915668	 0.729681	 1.063582
H	 0.754543	 -0.542641	 1.387006
C	 -1.134819	 0.293262	 -0.585751
H	 0.474374	 1.714721	 -0.623187
H	 -0.338529	 1.620940	 0.920081
C	 -1.917817	 -0.639439	 0.339494
H	 -0.758119	 -0.268455	 -1.433105
H	 -1.813832	 1.041889	 -0.986690
H	 -2.777680	 -1.057197	 -0.174994
H	 -1.310268	 -1.471279	 0.680599
H	 -2.283753	 -0.111424	 1.216626

	symmetry c1
}
set optking {
	frozen_dihedral = ("
		8 4 7 11,
		2 3 4 8
	")
}

ee = energy('scf')
oeprop('DIPOLE', 'QUADRUPOLE', 'MULLIKEN_CHARGES')
f=open( 'psi4out.xyz', 'w' )
f.write( "15  " )
f.write( str(ee) + "\n" )
f.write( MOL.save_string_xyz() )
f.close()
--------------------------------------------------------------------------

    Molecular point group: c1

    Geometry (in Angstrom), charge = 0, multiplicity = 1:

       Center              X                  Y                   Z               Mass
    ------------   -----------------  -----------------  -----------------  -----------------
           H          1.099152683222    -1.354572908704    -0.640248894430     1.007825032070
           O          1.671069683222    -0.623850908704    -0.454116894430    15.994914619560
           C          1.152838683222     0.120972091296     0.619122105570    12.000000000000
           C          0.048592683222     1.025685091296     0.095330105570    12.000000000000
           H          1.932713683222     0.731757091296     1.070371105570     1.007825032070
           H          0.771588683222    -0.540564908704     1.393795105570     1.007825032070
           C         -1.117773316778     0.295338091296    -0.578961894430    12.000000000000
           H          0.491419683222     1.716797091296    -0.616397894430     1.007825032070
           H         -0.321483316778     1.623016091296     0.926870105570     1.007825032070
           C         -1.900771316778    -0.637362908704     0.346283105570    12.000000000000
           H         -0.741073316778    -0.266378908704    -1.426315894430     1.007825032070
           H         -1.796786316778     1.043965091296    -0.979900894430     1.007825032070
           H         -2.760634316778    -1.055120908704    -0.168204894430     1.007825032070
           H         -1.293222316778    -1.469202908704     0.687388105570     1.007825032070
           H         -2.266707316778    -0.109347908704     1.223415105570     1.007825032070

  Charge       = 0
  Multiplicity = 1
  Basis Set: 6-31G*
  Basis Set:

    Orbital Energies (a.u.)
    -----------------------

    Doubly Occupied:

       1A    -20.552332     2A    -11.268138     3A    -11.220406
       4A    -11.216490     5A    -11.212784     6A     -1.360428
       7A     -1.070306     8A     -0.976193     9A     -0.878533
      10A     -0.782755    11A     -0.698700    12A     -0.647780
      13A     -0.618179    14A     -0.583383    15A     -0.569656
      16A     -0.547179    17A     -0.500739    18A     -0.492414
      19A     -0.475802    20A     -0.458969    21A     -0.425241

  @DF-RHF Final Energy:  -232.14117405981960

   => Energetics <=

    Nuclear Repulsion Energy =            192.8713119584948004
    One-Electron Energy =                -696.9121849526751475
    Two-Electron Energy =                 271.8996989343600603
    DFT Exchange-Correlation Energy =       0.0000000000000000
    Empirical Dispersion Energy =           0.0000000000000000
    PCM Polarization Energy =               0.0000000000000000
    EFP Energy =                            0.0000000000000000
    Total Energy =                       -232.1411740598202869

  Mulliken Charges: (a.u.)
   Center  Symbol    Alpha    Beta     Spin     Total
       1     H     0.27841  0.27841  0.00000  0.44318
       2     O     4.37034  4.37034  0.00000 -0.74068
       3     C     3.00394  3.00394  0.00000 -0.00788
       4     C     3.15694  3.15694  0.00000 -0.31389
       5     H     0.41407  0.41407  0.00000  0.17185
       6     H     0.42886  0.42886  0.00000  0.14229
       7     C     3.16385  3.16385  0.00000 -0.32771
       8     H     0.41382  0.41382  0.00000  0.17237
       9     H     0.42764  0.42764  0.00000  0.14472
      10     C     3.24247  3.24247  0.00000 -0.48494
      11     H     0.42074  0.42074  0.00000  0.15853
      12     H     0.41663  0.41663  0.00000  0.16674
      13     H     0.41655  0.41655  0.00000  0.16689
      14     H     0.42641  0.42641  0.00000  0.14717
      15     H     0.41932  0.41932  0.00000  0.16136

   Total alpha = 21.00000, Total beta = 21.00000, Total charge = -0.00000
