  ==> Input File <==

--------------------------------------------------------------------------
set {
	reference rhf
	basis 6-31G*
}

set_num_threads( 4 )
memory 2 gb

molecule MOL {
0 1

H	 -1.070890	 -1.366565	 0.180696
O	 -1.422729	 -0.573567	 -0.196946
C	 -0.731407	 0.539437	 0.309156
C	 0.680193	 0.672443	 -0.251532
H	 -1.319765	 1.404033	 0.030086
H	 -0.700012	 0.506517	 1.397677
C	 1.242798	 2.091528	 -0.165637
H	 1.331229	 -0.011974	 0.284537
H	 0.665808	 0.350290	 -1.290546
H	 1.339135	 2.418246	 0.865464
H	 2.229817	 2.147157	 -0.612477
H	 0.605352	 2.801599	 -0.686910

	symmetry c1
}
set optking {
	frozen_dihedral = ("
		8 4 3 2
	")
}

ee = optimize('scf')
oeprop('DIPOLE', 'QUADRUPOLE', 'MULLIKEN_CHARGES')
f=open( 'psi4out.xyz', 'w' )
f.write( "12  " )
f.write( str(ee) + "\n" )
f.write( MOL.save_string_xyz() )
f.close()
--------------------------------------------------------------------------

    Molecular point group: c1
  Charge       = 0
  Multiplicity = 1
  Basis Set: 6-31G*
  Basis Set:
  @DF-RHF Final Energy:  -193.10845288344595
    Total Energy =                       -193.1084528834458638
    Molecular point group: c1
  Basis Set: 6-31G*
  Basis Set:
  Basis Set: 6-31G*
  Basis Set:
  @DF-RHF Final Energy:  -193.10884605688878
    Total Energy =                       -193.1088460568889218
  Basis Set: 6-31G*
  Basis Set:
  Basis Set: 6-31G*
  Basis Set:
  @DF-RHF Final Energy:  -193.10889698199173
    Total Energy =                       -193.1088969819916485
  Basis Set: 6-31G*
  Basis Set:
  Basis Set: 6-31G*
  Basis Set:
  @DF-RHF Final Energy:  -193.10889998826630
    Total Energy =                       -193.1088999882662165
  Basis Set: 6-31G*
  Basis Set:
  Charge       = 0
  Multiplicity = 1
  Basis Set: 6-31G*
  Basis Set:

    Orbital Energies (a.u.)
    -----------------------

    Doubly Occupied:

       1A    -20.552962     2A    -11.267449     3A    -11.219007
       4A    -11.215990     5A     -1.359466     6A     -1.052820
       7A     -0.917487     8A     -0.818938     9A     -0.692998
      10A     -0.632931    11A     -0.599734    12A     -0.588647
      13A     -0.539596    14A     -0.503014    15A     -0.496935
      16A     -0.468772    17A     -0.429118

  @DF-RHF Final Energy:  -193.10890084680017

   => Energetics <=

    Nuclear Repulsion Energy =            130.8833190895471148
    One-Electron Energy =                -521.2727088924298187
    Two-Electron Energy =                 197.2804889560826211
    DFT Exchange-Correlation Energy =       0.0000000000000000
    Empirical Dispersion Energy =           0.0000000000000000
    PCM Polarization Energy =               0.0000000000000000
    EFP Energy =                            0.0000000000000000
    Total Energy =                       -193.1089008468000827
    Molecular point group: c1
  Basis Set: 6-31G*
  Basis Set:

  -Total Gradient:
     Atom            X                  Y                   Z
    ------   -----------------  -----------------  -----------------
       1        0.000018848451     0.000019952067     0.000011126762
       2       -0.001208767195     0.001829799736    -0.002447415873
       3        0.001861155386    -0.001717374287     0.004003037049
       4       -0.001531836167    -0.003039422746    -0.004212740731
       5       -0.000015120963    -0.000034548140    -0.000023277173
       6       -0.000025741642    -0.000018790033     0.000010837327
       7        0.000011921444    -0.000016416297    -0.000005138975
       8        0.000883585910     0.002999663130     0.002661134057
       9        0.000018530903    -0.000012701516    -0.000014905843
      10        0.000007784186    -0.000006264799     0.000021345683
      11       -0.000012650909     0.000003851826     0.000000553294
      12       -0.000007709403    -0.000007748940    -0.000004555576

  **** Optimization is complete! (in 5 steps) ****
    Final optimized geometry and variables:
    Molecular point group: c1

    Geometry (in Angstrom), charge = 0, multiplicity = 1:

    H           -0.915691467968    -2.004676407622     0.202043021254
    O           -1.343965134316    -1.211009766371    -0.087902019810
    C           -0.633848219305    -0.095185560858     0.383500371411
    C            0.767300536981     0.015737645866    -0.214037353291
    H           -1.226199677804     0.762335552291     0.088650524679
    H           -0.585864567800    -0.093699531337     1.471101384849
    C            1.332662123880     1.433126885235    -0.102348964454
    H            1.442112697091    -0.660810901224     0.307794419926
    H            0.724063726284    -0.291138336497    -1.253764692499
    H            1.362694821393     1.765792139915     0.931865925420
    H            2.344118796709     1.482050295921    -0.491594205252
    H            0.727694158859     2.141727397600    -0.660143074321

  Mulliken Charges: (a.u.)
   Center  Symbol    Alpha    Beta     Spin     Total
       1     H     0.28345  0.28345  0.00000  0.43310
       2     O     4.36997  4.36997  0.00000 -0.73993
       3     C     2.98941  2.98941  0.00000  0.02118
       4     C     3.17066  3.17066  0.00000 -0.34133
       5     H     0.41703  0.41703  0.00000  0.16593
       6     H     0.43060  0.43060  0.00000  0.13880
       7     C     3.24665  3.24665  0.00000 -0.49330
       8     H     0.42571  0.42571  0.00000  0.14857
       9     H     0.41118  0.41118  0.00000  0.17763
      10     H     0.42109  0.42109  0.00000  0.15783
      11     H     0.41614  0.41614  0.00000  0.16773
      12     H     0.41811  0.41811  0.00000  0.16379

   Total alpha = 17.00000, Total beta = 17.00000, Total charge = -0.00000
