                              Psi4 1.0.54 Driver

  ==> Input File <==

--------------------------------------------------------------------------
set {
	reference rhf
	basis cc-pvtz
}

set_num_threads( 4 )
memory 2 gb

molecule MOL {
0 1

H	 -3.436473	 1.252944	 -1.023892
O	 -3.458596	 0.315260	 -0.960865
C	 -3.176635	 -0.080824	 0.355601
C	 -1.763371	 0.265266	 0.799691
H	 -3.321825	 -1.153438	 0.379502
H	 -3.895468	 0.357385	 1.043382
C	 -0.927255	 -0.946857	 1.199679
H	 -1.264087	 0.807826	 -0.001688
H	 -1.832314	 0.956501	 1.636249
C	 0.497553	 -0.585007	 1.610725
H	 -0.900546	 -1.650506	 0.375011
H	 -1.419953	 -1.460227	 2.021996
C	 1.327471	 -1.802018	 2.014665
H	 0.979411	 -0.063709	 0.789171
H	 0.466519	 0.117198	 2.441268
C	 2.738386	 -1.482814	 2.511934
H	 1.391738	 -2.487430	 1.172686
H	 0.799260	 -2.336815	 2.799270
C	 3.671702	 -0.900102	 1.453391
H	 3.180105	 -2.395850	 2.899263
H	 2.675439	 -0.797306	 3.353086
H	 3.749579	 -1.561871	 0.596610
H	 4.669362	 -0.762203	 1.854514
H	 3.329250	 0.063722	 1.096493

	symmetry c1
}
set optking {
	frozen_dihedral = ("
		7 4 3 2
	")
}

ee,wfn = optimize('scf', return_wfn=True)
oeprop( wfn, 'DIPOLE', 'QUADRUPOLE', 'MULLIKEN_CHARGES')
f=open( 'psi4out.xyz', 'w' )
f.write( "24  " )
f.write( str(ee) + "\n" )
f.write( MOL.save_string_xyz() )
f.close()
--------------------------------------------------------------------------

    Molecular point group: c1
  Charge       = 0
  Multiplicity = 1
  Basis Set: CC-PVTZ
  Basis Set:
  @DF-RHF Final Energy:  -349.37410977332638
    Total Energy =                       -349.3741097733263246
    Molecular point group: c1
  Basis Set: CC-PVTZ
  Basis Set:
  Basis Set: CC-PVTZ
  Basis Set:
  @DF-RHF Final Energy:  -349.37451524118484
    Total Energy =                       -349.3745152411846675
  Basis Set: CC-PVTZ
  Basis Set:
  Basis Set: CC-PVTZ
  Basis Set:
  @DF-RHF Final Energy:  -349.37458047163943
    Total Energy =                       -349.3745804716395469
  Basis Set: CC-PVTZ
  Basis Set:
  Basis Set: CC-PVTZ
  Basis Set:
  @DF-RHF Final Energy:  -349.37458159210013
    Total Energy =                       -349.3745815921002986
  Basis Set: CC-PVTZ
  Basis Set:
  Charge       = 0
  Multiplicity = 1
  Basis Set: CC-PVTZ
  Basis Set:

    Orbital Energies (a.u.)
    -----------------------

    Doubly Occupied:

       1A    -20.544872     2A    -11.264835     3A    -11.214459
       4A    -11.213323     5A    -11.213244     6A    -11.211796
       7A    -11.211113     8A    -11.205920     9A     -1.362338
      10A     -1.091665    11A     -1.049783    12A     -0.985234
      13A     -0.914510    14A     -0.851799    15A     -0.805310
      16A     -0.778077    17A     -0.689954    18A     -0.647430
      19A     -0.625906    20A     -0.617311    21A     -0.598477
      22A     -0.586432    23A     -0.565724    24A     -0.533163
      25A     -0.520220    26A     -0.517900    27A     -0.489817
      28A     -0.479328    29A     -0.465701    30A     -0.462624
      31A     -0.458942    32A     -0.453463    33A     -0.418947

  @DF-RHF Final Energy:  -349.37458252261382

   => Energetics <=

    Nuclear Repulsion Energy =            381.0395021375181273
    One-Electron Energy =               -1228.7289391457829879
    Two-Electron Energy =                 498.3148544856509830
    DFT Exchange-Correlation Energy =       0.0000000000000000
    Empirical Dispersion Energy =           0.0000000000000000
    PCM Polarization Energy =               0.0000000000000000
    EFP Energy =                            0.0000000000000000
    Total Energy =                       -349.3745825226138209
    Molecular point group: c1
  Basis Set: CC-PVTZ
  Basis Set:

  -Total Gradient:
     Atom            X                  Y                   Z
    ------   -----------------  -----------------  -----------------
       1        0.000005608867    -0.000000703531     0.000024504985
       2        0.000160525631    -0.000499949070    -0.000136098957
       3       -0.000151694041     0.000646140802     0.000086521126
       4       -0.000154204377    -0.000116338813     0.000546913043
       5        0.000009040813     0.000017904205    -0.000025948205
       6       -0.000016039932     0.000015975294    -0.000018409064
       7        0.000149862950    -0.000057602938    -0.000474332998
       8        0.000018141987    -0.000002747490    -0.000003772529
       9       -0.000041375227    -0.000018586728    -0.000016554377
      10        0.000006954090    -0.000000254293     0.000004364768
      11       -0.000015624717     0.000013087426    -0.000000136568
      12       -0.000003690748     0.000000138032    -0.000005248533
      13        0.000009000157     0.000012605906     0.000001836209
      14       -0.000008289775    -0.000010386346     0.000003145824
      15        0.000012667743     0.000007678986     0.000001848204
      16       -0.000001714126     0.000000828070     0.000007914585
      17        0.000001718520     0.000007533645    -0.000002263376
      18        0.000001854291    -0.000007677754    -0.000000267273
      19        0.000003270413    -0.000003898845    -0.000001397516
      20        0.000006789882    -0.000001163688     0.000006908332
      21       -0.000001834610     0.000003710664    -0.000000908016
      22       -0.000000136620     0.000000438869    -0.000003884936
      23        0.000002080732    -0.000003750622     0.000000823580
      24        0.000007088096    -0.000002981779     0.000004441688

  **** Optimization is complete! (in 5 steps) ****
    Final optimized geometry and variables:
    Molecular point group: c1

    Geometry (in Angstrom), charge = 0, multiplicity = 1:

    H           -3.286620748159     1.854807738994    -2.128735266143
    O           -3.296256885574     0.918395405690    -2.049802419260
    C           -2.997913940840     0.546148638957    -0.729331700689
    C           -1.563494161430     0.899750752398    -0.301715845694
    H           -3.143229904787    -0.524881255324    -0.695709814483
    H           -3.719022232163     0.985734288390    -0.046151277628
    C           -0.731843280902    -0.313015890783     0.109886652965
    H           -1.077885870345     1.394304973820    -1.136577934113
    H           -1.582607633750     1.615155065942     0.515154718849
    C            0.690462503317     0.043271765842     0.532161137941
    H           -0.698562842135    -1.014623925279    -0.719543744646
    H           -1.230011472605    -0.830255519962     0.926788881137
    C            1.517107022319    -1.176793603642     0.933979412961
    H            1.176660106384     0.569900794525    -0.283073167782
    H            0.653188055884     0.739948737139     1.366900356530
    C            2.923998954929    -0.860726217132     1.444657667924
    H            1.588785244482    -1.856150794605     0.087668968391
    H            0.982918605829    -1.717258539645     1.710735059668
    C            3.865291356487    -0.269961142431     0.397706429711
    H            3.362925036351    -1.776467865417     1.828731545708
    H            2.854033252682    -0.181557258348     2.290375592953
    H            3.948860780128    -0.924491877642    -0.464033720721
    H            4.860075496300    -0.136332215267     0.807244751053
    H            3.526251562815     0.697067358426     0.046383848563

  Mulliken Charges: (a.u.)
   Center  Symbol    Alpha    Beta     Spin     Total
       1     H     0.39451  0.39451  0.00000  0.21098
       2     O     4.20233  4.20233  0.00000 -0.40466
       3     C     2.97054  2.97054  0.00000  0.05891
       4     C     3.09785  3.09785  0.00000 -0.19570
       5     H     0.45818  0.45818  0.00000  0.08365
       6     H     0.46714  0.46714  0.00000  0.06573
       7     C     3.09690  3.09690  0.00000 -0.19379
       8     H     0.45458  0.45458  0.00000  0.09083
       9     H     0.45438  0.45438  0.00000  0.09125
      10     C     3.09348  3.09348  0.00000 -0.18697
      11     H     0.44950  0.44950  0.00000  0.10101
      12     H     0.45354  0.45354  0.00000  0.09292
      13     C     3.09486  3.09486  0.00000 -0.18971
      14     H     0.45179  0.45179  0.00000  0.09643
      15     H     0.45530  0.45530  0.00000  0.08939
      16     C     3.09045  3.09045  0.00000 -0.18090
      17     H     0.45347  0.45347  0.00000  0.09307
      18     H     0.45006  0.45006  0.00000  0.09988
      19     C     3.15235  3.15235  0.00000 -0.30470
      20     H     0.44850  0.44850  0.00000  0.10300
      21     H     0.45515  0.45515  0.00000  0.08971
      22     H     0.45460  0.45460  0.00000  0.09079
      23     H     0.44658  0.44658  0.00000  0.10684
      24     H     0.45397  0.45397  0.00000  0.09206

   Total alpha = 33.00000, Total beta = 33.00000, Total charge = -0.00000

*** Psi4 exiting successfully. Buy a developer a beer!
