                              Psi4 1.0.54 Driver

  ==> Input File <==

--------------------------------------------------------------------------
set {
	reference rhf
	basis cc-pvtz
}

set_num_threads( 4 )
memory 2 gb

molecule MOL {
0 1

H	 -3.801279	 1.193572	 -0.209218
C	 -3.157821	 0.484949	 0.270494
C	 -2.032804	 0.141256	 -0.307051
H	 -3.452572	 0.075078	 1.216499
O	 -1.189946	 -0.765863	 0.237511
H	 -1.723657	 0.552104	 -1.250852
C	 0.026572	 -0.995256	 -0.379403
C	 1.057223	 0.049888	 -0.004615
H	 -0.054361	 -1.010670	 -1.459674
H	 0.397526	 -1.952058	 -0.044198
F	 2.203233	 -0.234060	 -0.590375
F	 0.698147	 1.254887	 -0.392621
F	 1.266440	 0.094219	 1.288722

	symmetry c1
}
set optking {
	frozen_dihedral = ("
		3 5 7 9
	")
}

ee,wfn = optimize('scf', return_wfn=True)
oeprop( wfn, 'DIPOLE', 'QUADRUPOLE', 'MULLIKEN_CHARGES')
f=open( 'psi4out.xyz', 'w' )
f.write( "13  " )
f.write( str(ee) + "\n" )
f.write( MOL.save_string_xyz() )
f.close()
--------------------------------------------------------------------------

    Molecular point group: c1
  Charge       = 0
  Multiplicity = 1
  Basis Set: CC-PVTZ
  Basis Set:
  @DF-RHF Final Energy:  -527.74179312976162
    Total Energy =                       -527.7417931297615041
    Molecular point group: c1
  Basis Set: CC-PVTZ
  Basis Set:
  Basis Set: CC-PVTZ
  Basis Set:
  @DF-RHF Final Energy:  -527.74188329851825
    Total Energy =                       -527.7418832985180188
  Basis Set: CC-PVTZ
  Basis Set:
  Basis Set: CC-PVTZ
  Basis Set:
  @DF-RHF Final Energy:  -527.74191062650448
    Total Energy =                       -527.7419106265047049
  Basis Set: CC-PVTZ
  Basis Set:
  Basis Set: CC-PVTZ
  Basis Set:
  @DF-RHF Final Energy:  -527.74191806017586
    Total Energy =                       -527.7419180601757489
  Basis Set: CC-PVTZ
  Basis Set:
  Basis Set: CC-PVTZ
  Basis Set:
  @DF-RHF Final Energy:  -527.74191913358095
    Total Energy =                       -527.7419191335806090
  Basis Set: CC-PVTZ
  Basis Set:
  Charge       = 0
  Multiplicity = 1
  Basis Set: CC-PVTZ
  Basis Set:

    Orbital Energies (a.u.)
    -----------------------

    Doubly Occupied:

       1A    -26.342150     2A    -26.341247     3A    -26.338504
       4A    -20.603916     5A    -11.498481     6A    -11.319941
       7A    -11.297861     8A    -11.213850     9A     -1.751033
      10A     -1.647431    11A     -1.645928    12A     -1.444206
      13A     -1.087561    14A     -1.021018    15A     -0.932707
      16A     -0.844011    17A     -0.839927    18A     -0.829539
      19A     -0.795746    20A     -0.728752    21A     -0.719346
      22A     -0.703227    23A     -0.681599    24A     -0.668739
      25A     -0.662020    26A     -0.651413    27A     -0.642193
      28A     -0.588529    29A     -0.566222    30A     -0.528332
      31A     -0.516641    32A     -0.357082

  @DF-RHF Final Energy:  -527.74191957317430

   => Energetics <=

    Nuclear Repulsion Energy =            414.4990765567300741
    One-Electron Energy =               -1552.8636875857091582
    Two-Electron Energy =                 610.6226914558046701
    DFT Exchange-Correlation Energy =       0.0000000000000000
    Empirical Dispersion Energy =           0.0000000000000000
    PCM Polarization Energy =               0.0000000000000000
    EFP Energy =                            0.0000000000000000
    Total Energy =                       -527.7419195731745276
    Molecular point group: c1
  Basis Set: CC-PVTZ
  Basis Set:

  -Total Gradient:
     Atom            X                  Y                   Z
    ------   -----------------  -----------------  -----------------
       1        0.000012740042     0.000013384643     0.000008188937
       2        0.000038300592    -0.000034350066    -0.000017441057
       3        0.000297812758     0.000687914388     0.000566352562
       4        0.000010603721     0.000005963220    -0.000024445485
       5       -0.000581499939    -0.001407640906    -0.000849488430
       6       -0.000003377781     0.000015113461     0.000022710772
       7        0.000371813116     0.001816454418     0.000258144786
       8        0.000002044668     0.000093040183     0.000006743303
       9       -0.000180160973    -0.001165778266     0.000042863439
      10       -0.000013744402     0.000016931771     0.000003892773
      11       -0.000008892058    -0.000028285584     0.000043540907
      12        0.000018161275     0.000041072581    -0.000033882448
      13        0.000036198989    -0.000053819848    -0.000027180062

  **** Optimization is complete! (in 6 steps) ****
    Final optimized geometry and variables:
    Molecular point group: c1

    Geometry (in Angstrom), charge = 0, multiplicity = 1:

    H           -3.831073751071     1.133844523519    -0.210892906988
    C           -3.162331072907     0.452028455527     0.273144963645
    C           -2.072857350456     0.068146349937    -0.345395273615
    H           -3.403962009675     0.099845088546     1.256694918181
    O           -1.208454054412    -0.818784351252     0.200598587157
    H           -1.815629300512     0.420608827788    -1.327563840231
    C            0.014723617138    -1.015221734432    -0.413844429902
    C            1.040973102561     0.030591198988    -0.026460574663
    H           -0.064692859081    -1.030238350065    -1.494787432164
    H            0.394312306477    -1.970595453605    -0.084981851593
    F            2.192176059669    -0.255454826162    -0.600578672744
    F            0.691831794538     1.238587013023    -0.415050034326
    F            1.235933543949     0.071005171945     1.269239713042

  Mulliken Charges: (a.u.)
   Center  Symbol    Alpha    Beta     Spin     Total
       1     H     0.42527  0.42527  0.00000  0.14946
       2     C     3.19601  3.19601  0.00000 -0.39203
       3     C     2.95953  2.95953  0.00000  0.08095
       4     H     0.42464  0.42464  0.00000  0.15073
       5     O     4.14445  4.14445  0.00000 -0.28889
       6     H     0.43382  0.43382  0.00000  0.13236
       7     C     3.02142  3.02142  0.00000 -0.04283
       8     C     2.67578  2.67578  0.00000  0.64845
       9     H     0.45453  0.45453  0.00000  0.09094
      10     H     0.43485  0.43485  0.00000  0.13030
      11     F     4.61228  4.61228  0.00000 -0.22457
      12     F     4.61058  4.61058  0.00000 -0.22116
      13     F     4.60685  4.60685  0.00000 -0.21369

   Total alpha = 32.00000, Total beta = 32.00000, Total charge =  0.00000

*** Psi4 exiting successfully. Buy a developer a beer!
