                              Psi4 1.0.54 Driver

  ==> Input File <==

--------------------------------------------------------------------------
set {
	reference rhf
	basis cc-pvtz
}

set_num_threads( 4 )
memory 2 gb

molecule MOL {
0 1

O	 -0.294688	 1.318815	 -0.000872
C	 -0.448732	 0.145721	 -0.000187
C	 -1.780748	 -0.548101	 0.000195
O	 0.550743	 -0.719877	 0.000412
H	 -1.859389	 -1.183260	 -0.872613
H	 -2.570236	 0.185547	 -0.001342
H	 -1.860233	 -1.180337	 0.875064
C	 1.670789	 -0.416766	 -0.807477
H	 1.382190	 -0.341228	 -1.845279
H	 2.364234	 -1.230647	 -0.671772
H	 2.122396	 0.514066	 -0.498244

	symmetry c1
}
set optking {
	frozen_dihedral = ("
		8 4 2 1
	")
}

ee,wfn = optimize('scf', return_wfn=True)
oeprop( wfn, 'DIPOLE', 'QUADRUPOLE', 'MULLIKEN_CHARGES')
f=open( 'psi4out.xyz', 'w' )
f.write( "11  " )
f.write( str(ee) + "\n" )
f.write( MOL.save_string_xyz() )
f.close()
--------------------------------------------------------------------------

    Molecular point group: c1
  Charge       = 0
  Multiplicity = 1
  Basis Set: CC-PVTZ
  Basis Set:
  @DF-RHF Final Energy:  -266.93086954930823
    Total Energy =                       -266.9308695493079995
    Molecular point group: c1
  Basis Set: CC-PVTZ
  Basis Set:
  Basis Set: CC-PVTZ
  Basis Set:
  @DF-RHF Final Energy:  -266.92743781293564
    Total Energy =                       -266.9274378129356364
  Basis Set: CC-PVTZ
  Basis Set:
  Basis Set: CC-PVTZ
  Basis Set:
  @DF-RHF Final Energy:  -266.93137795796781
    Total Energy =                       -266.9313779579676975
  Basis Set: CC-PVTZ
  Basis Set:
  Basis Set: CC-PVTZ
  Basis Set:
  @DF-RHF Final Energy:  -266.93152336241644
    Total Energy =                       -266.9315233624160442
  Basis Set: CC-PVTZ
  Basis Set:
  @DF-RHF Final Energy:  -266.93154721421297
    Total Energy =                       -266.9315472142132535
  @DF-RHF Final Energy:  -266.93155565354562
    Total Energy =                       -266.9315556535457858
  @DF-RHF Final Energy:  -266.93153160851841
    Total Energy =                       -266.9315316085184122
  Basis Set: CC-PVTZ
  Basis Set:
  @DF-RHF Final Energy:  -266.93154185029721
    Total Energy =                       -266.9315418502970942
  Basis Set: CC-PVTZ
  Basis Set:
  Basis Set: CC-PVTZ
  Basis Set:
  @DF-RHF Final Energy:  -266.93155515939230
    Total Energy =                       -266.9315551593923601
  Basis Set: CC-PVTZ
  Basis Set:
  Basis Set: CC-PVTZ
  Basis Set:
  @DF-RHF Final Energy:  -266.93155969477380
    Total Energy =                       -266.9315596947739095
  Basis Set: CC-PVTZ
  Basis Set:
  Charge       = 0
  Multiplicity = 1
  Basis Set: CC-PVTZ
  Basis Set:

    Orbital Energies (a.u.)
    -----------------------

    Doubly Occupied:

       1A    -20.591161     2A    -20.539555     3A    -11.370303
       4A    -11.283163     5A    -11.234045     6A     -1.469197
       7A     -1.369116     8A     -1.034232     9A     -0.955670
      10A     -0.779407    11A     -0.697629    12A     -0.683333
      13A     -0.677483    14A     -0.601525    15A     -0.594046
      16A     -0.566491    17A     -0.534658    18A     -0.515288
      19A     -0.460621    20A     -0.444498

  @DF-RHF Final Energy:  -266.93155997379267

   => Energetics <=

    Nuclear Repulsion Energy =            183.1526633063347447
    One-Electron Energy =                -727.3656016191371236
    Two-Electron Energy =                 277.2813783390095637
    DFT Exchange-Correlation Energy =       0.0000000000000000
    Empirical Dispersion Energy =           0.0000000000000000
    PCM Polarization Energy =               0.0000000000000000
    EFP Energy =                            0.0000000000000000
    Total Energy =                       -266.9315599737928437
    Molecular point group: c1
  Basis Set: CC-PVTZ
  Basis Set:

  -Total Gradient:
     Atom            X                  Y                   Z
    ------   -----------------  -----------------  -----------------
       1       -0.000502929191     0.000046545736     0.009883162712
       2       -0.000782202678    -0.001916381671    -0.017767957094
       3       -0.000034771528     0.000017541827     0.000151037670
       4        0.004360743970     0.005698414114     0.013553636848
       5       -0.000008846450    -0.000004234225    -0.000025781665
       6        0.000005565273    -0.000002524212     0.000024502962
       7       -0.000006817993     0.000021076261    -0.000001743746
       8       -0.003046225987    -0.003872825701    -0.005795456491
       9       -0.000008574005    -0.000000264196    -0.000030844346
      10        0.000013339789    -0.000004988777     0.000001267188
      11        0.000010718801     0.000017640843     0.000008175960

  **** Optimization is complete! (in 11 steps) ****
    Final optimized geometry and variables:
    Molecular point group: c1

    Geometry (in Angstrom), charge = 0, multiplicity = 1:

    O           -0.271151771343     1.365900927965     0.109590976595
    C           -0.418793565315     0.194884662180     0.130203523856
    C           -1.747098827229    -0.499709963323     0.211197363282
    O            0.595447287473    -0.668308685986     0.183774821264
    H           -1.900345427244    -1.084305509088    -0.688027191020
    H           -2.535896366473     0.227104811284     0.317848243335
    H           -1.746907187298    -1.184306868826     1.049056214247
    C            1.740749387175    -0.373968089632    -0.591463589392
    H            1.477346277728    -0.314656433875    -1.639502685656
    H            2.428865066582    -1.188914541034    -0.436532390204
    H            2.192237391254     0.556060046708    -0.281316537118

  Mulliken Charges: (a.u.)
   Center  Symbol    Alpha    Beta     Spin     Total
       1     O     4.18659  4.18659  0.00000 -0.37317
       2     C     2.80065  2.80065  0.00000  0.39870
       3     C     3.13700  3.13700  0.00000 -0.27400
       4     O     4.15588  4.15588  0.00000 -0.31175
       5     H     0.44920  0.44920  0.00000  0.10160
       6     H     0.43836  0.43836  0.00000  0.12327
       7     H     0.44367  0.44367  0.00000  0.11266
       8     C     3.03266  3.03266  0.00000 -0.06532
       9     H     0.46333  0.46333  0.00000  0.07334
      10     H     0.44551  0.44551  0.00000  0.10898
      11     H     0.44715  0.44715  0.00000  0.10569

   Total alpha = 20.00000, Total beta = 20.00000, Total charge =  0.00000

*** Psi4 exiting successfully. Buy a developer a beer!
