  ==> Input File <==

--------------------------------------------------------------------------
set {
	reference rhf
	basis 6-31G*
}

set_num_threads( 4 )
memory 2 gb

molecule MOL {
0 1

O	 1.846825	 1.296220	 0.000415
C	 1.705091	 0.115954	 0.001797
C	 0.381791	 -0.609817	 0.001258
O	 2.721346	 -0.737485	 -0.000216
C	 -0.823008	 0.326187	 0.001381
H	 0.371250	 -1.265087	 -0.865474
H	 0.370908	 -1.265746	 0.867490
C	 -1.032129	 1.003235	 -1.353955
H	 -0.691555	 1.078112	 0.773079
H	 -1.711394	 -0.234432	 0.274851
C	 -2.236183	 1.946531	 -1.371472
H	 -0.136551	 1.560816	 -1.624211
H	 -1.160957	 0.243984	 -2.123905
C	 -2.445344	 2.621785	 -2.726291
H	 -2.107816	 2.707142	 -0.604573
H	 -3.131732	 1.390820	 -1.102557
H	 -1.579108	 3.214093	 -3.007398
H	 -3.305749	 3.283434	 -2.706910
H	 -2.610717	 1.887217	 -3.509472
C	 4.024888	 -0.184556	 -0.001949
H	 4.179030	 0.422472	 -0.882452
H	 4.701782	 -1.024608	 -0.003642
H	 4.181981	 0.421185	 0.878906

	symmetry c1
}
set optking {
	frozen_dihedral = ("
		9 5 3 6
	")
}

ee = optimize('scf')
oeprop('DIPOLE', 'QUADRUPOLE', 'MULLIKEN_CHARGES')
f=open( 'psi4out.xyz', 'w' )
f.write( "23  " )
f.write( str(ee) + "\n" )
f.write( MOL.save_string_xyz() )
f.close()
--------------------------------------------------------------------------

    Molecular point group: c1
  Charge       = 0
  Multiplicity = 1
  Basis Set: 6-31G*
  Basis Set:
  @DF-RHF Final Energy:  -422.97548019678561
    Total Energy =                       -422.9754801967851563
    Molecular point group: c1
  Basis Set: 6-31G*
  Basis Set:
  Basis Set: 6-31G*
  Basis Set:
  @DF-RHF Final Energy:  -422.97564752649333
    Total Energy =                       -422.9756475264931623
  Basis Set: 6-31G*
  Basis Set:
  Basis Set: 6-31G*
  Basis Set:
  @DF-RHF Final Energy:  -422.97570425914859
    Total Energy =                       -422.9757042591484151
  Basis Set: 6-31G*
  Basis Set:
  Basis Set: 6-31G*
  Basis Set:
  @DF-RHF Final Energy:  -422.97587388807096
    Total Energy =                       -422.9758738880710780
  Basis Set: 6-31G*
  Basis Set:
  Basis Set: 6-31G*
  Basis Set:
  @DF-RHF Final Energy:  -422.97591252039001
    Total Energy =                       -422.9759125203906933
  Basis Set: 6-31G*
  Basis Set:
  Basis Set: 6-31G*
  Basis Set:
  @DF-RHF Final Energy:  -422.97592146041183
    Total Energy =                       -422.9759214604118824
  Basis Set: 6-31G*
  Basis Set:
  Charge       = 0
  Multiplicity = 1
  Basis Set: 6-31G*
  Basis Set:

    Orbital Energies (a.u.)
    -----------------------

    Doubly Occupied:

       1A    -20.604616     2A    -20.546208     3A    -11.373091
       4A    -11.281430     5A    -11.235770     6A    -11.219428
       7A    -11.212978     8A    -11.211653     9A    -11.206249
      10A     -1.470291    11A     -1.363455    12A     -1.090757
      13A     -1.041371    14A     -0.986036    15A     -0.930276
      16A     -0.843312    17A     -0.793472    18A     -0.766152
      19A     -0.701918    20A     -0.680966    21A     -0.671937
      22A     -0.639705    23A     -0.613367    24A     -0.599010
      25A     -0.568496    26A     -0.557361    27A     -0.553065
      28A     -0.530293    29A     -0.522569    30A     -0.499810
      31A     -0.491676    32A     -0.466129    33A     -0.464435
      34A     -0.455389    35A     -0.450660    36A     -0.436564

  @DF-RHF Final Energy:  -422.97592054622595

   => Energetics <=

    Nuclear Repulsion Energy =            462.4068984354765348
    One-Electron Energy =               -1492.6058530316768156
    Two-Electron Energy =                 607.2230340499741033
    DFT Exchange-Correlation Energy =       0.0000000000000000
    Empirical Dispersion Energy =           0.0000000000000000
    PCM Polarization Energy =               0.0000000000000000
    EFP Energy =                            0.0000000000000000
    Total Energy =                       -422.9759205462262344
    Molecular point group: c1
  Basis Set: 6-31G*
  Basis Set:

  -Total Gradient:
     Atom            X                  Y                   Z
    ------   -----------------  -----------------  -----------------
       1        0.000028512770    -0.000064412864     0.000065388018
       2       -0.000094552183     0.000107372991    -0.000153848362
       3       -0.000557355446    -0.000619394437     0.000397433769
       4        0.000051919443    -0.000009982855     0.000031672298
       5       -0.000364180098    -0.000458635567     0.000542994046
       6        0.000468647510     0.000554119330    -0.000410404616
       7       -0.000002018821    -0.000040999550     0.000015343957
       8       -0.000004754228     0.000022683600     0.000014540538
       9        0.000404926407     0.000501905212    -0.000542130093
      10        0.000009237624     0.000003938455     0.000017726101
      11        0.000034923681     0.000053504932    -0.000011174199
      12       -0.000005433176     0.000024275195     0.000048386090
      13        0.000022083448     0.000015595207    -0.000039087992
      14       -0.000026801070    -0.000086224643    -0.000014518364
      15        0.000043366135     0.000019048275    -0.000026010286
      16       -0.000003737765     0.000007117762     0.000034951747
      17       -0.000009966260     0.000007727123     0.000033421545
      18       -0.000014559241    -0.000034202518     0.000011025908
      19        0.000016452711    -0.000000924999    -0.000026381924
      20        0.000001400007    -0.000004592492     0.000012050151
      21       -0.000006627184    -0.000001717000    -0.000002812326
      22        0.000000779131     0.000001283346     0.000000056987
      23        0.000007736601     0.000002515493     0.000001377007

  **** Optimization is complete! (in 7 steps) ****
    Final optimized geometry and variables:
    Molecular point group: c1

    Geometry (in Angstrom), charge = 0, multiplicity = 1:

    O            1.367325031180     0.636359087299     0.839851056981
    C            1.208857639485    -0.528947111465     0.663171624136
    C           -0.122742513069    -1.242433781783     0.625410526009
    O            2.213290927979    -1.379285777806     0.496667664438
    C           -1.325700953217    -0.301154591864     0.586307742315
    H           -0.113953197479    -1.913349578045    -0.227699057716
    H           -0.154431355004    -1.877144137050     1.507403748963
    C           -1.532294460561     0.368775187452    -0.774035648254
    H           -1.203835623135     0.460873680096     1.348367169505
    H           -2.214450581301    -0.871783557042     0.843455592896
    C           -2.743016670813     1.302934202963    -0.798758870524
    H           -0.641408707634     0.931358079990    -1.037949155292
    H           -1.656631056760    -0.398470931985    -1.537530680838
    C           -2.964317444805     1.954669730821    -2.163120949565
    H           -2.612821928318     2.077074470912    -0.046122556282
    H           -3.634755439960     0.747030514880    -0.515723765983
    H           -2.104110816724     2.549566512566    -2.456329558450
    H           -3.830380921369     2.609186901612    -2.150443107749
    H           -3.126639556253     1.206453333589    -2.934077754348
    C            3.523755552257    -0.844608456184     0.545053305641
    H            3.662417279785    -0.108661848557    -0.233756138620
    H            4.189004950084    -1.680165375129     0.392847760740
    H            3.711994194204    -0.385924142878     1.505091880790

  Mulliken Charges: (a.u.)
   Center  Symbol    Alpha    Beta     Spin     Total
       1     O     4.28717  4.28717  0.00000 -0.57433
       2     C     2.60657  2.60657  0.00000  0.78685
       3     C     3.20877  3.20877  0.00000 -0.41755
       4     O     4.30625  4.30625  0.00000 -0.61250
       5     C     3.15573  3.15573  0.00000 -0.31145
       6     H     0.40062  0.40062  0.00000  0.19876
       7     H     0.39774  0.39774  0.00000  0.20452
       8     C     3.15606  3.15606  0.00000 -0.31211
       9     H     0.40654  0.40654  0.00000  0.18692
      10     H     0.41937  0.41937  0.00000  0.16126
      11     C     3.15221  3.15221  0.00000 -0.30441
      12     H     0.41096  0.41096  0.00000  0.17809
      13     H     0.42699  0.42699  0.00000  0.14602
      14     C     3.23950  3.23950  0.00000 -0.47899
      15     H     0.41968  0.41968  0.00000  0.16064
      16     H     0.42464  0.42464  0.00000  0.15071
      17     H     0.42019  0.42019  0.00000  0.15963
      18     H     0.41956  0.41956  0.00000  0.16089
      19     H     0.42280  0.42280  0.00000  0.15439
      20     C     3.09239  3.09239  0.00000 -0.18478
      21     H     0.40888  0.40888  0.00000  0.18223
      22     H     0.40832  0.40832  0.00000  0.18337
      23     H     0.40907  0.40907  0.00000  0.18185

   Total alpha = 36.00000, Total beta = 36.00000, Total charge = -0.00000
