                              Psi4 1.0.54 Driver

  ==> Input File <==

--------------------------------------------------------------------------
set {
	reference rhf
	basis cc-pvtz
}

set_num_threads( 4 )
memory 2 gb

molecule MOL {
0 1

H	 3.459101	 0.139266	 -0.762951
C	 2.749156	 -0.051729	 0.031265
C	 1.322304	 0.099773	 -0.484271
H	 2.929445	 -1.053887	 0.403481
H	 2.954281	 0.646699	 0.834672
C	 0.308557	 -0.162619	 0.622645
H	 1.143368	 -0.594400	 -1.295960
H	 1.169532	 1.100095	 -0.870217
N	 -1.069352	 -0.004081	 0.085342
H	 0.371632	 -1.172932	 0.991288
H	 0.400391	 0.548875	 1.426218
O	 -1.965264	 -0.352756	 0.778410
O	 -1.177416	 0.433195	 -1.011040

	symmetry c1
}
set optking {
	frozen_dihedral = ("
		12 9 6 3
	")
}

ee,wfn = optimize('scf', return_wfn=True)
oeprop( wfn, 'DIPOLE', 'QUADRUPOLE', 'MULLIKEN_CHARGES')
f=open( 'psi4out.xyz', 'w' )
f.write( "13  " )
f.write( str(ee) + "\n" )
f.write( MOL.save_string_xyz() )
f.close()
--------------------------------------------------------------------------

    Molecular point group: c1
  Charge       = 0
  Multiplicity = 1
  Basis Set: CC-PVTZ
  Basis Set:
  @DF-RHF Final Energy:  -321.85844708986946
    Total Energy =                       -321.8584470898694576
    Molecular point group: c1
  Basis Set: CC-PVTZ
  Basis Set:
  Basis Set: CC-PVTZ
  Basis Set:
  @DF-RHF Final Energy:  -321.63338200264798
    Total Energy =                       -321.6333820026478634
  Basis Set: CC-PVTZ
  Basis Set:
  Basis Set: CC-PVTZ
  Basis Set:
  @DF-RHF Final Energy:  -321.77911074311680
    Total Energy =                       -321.7791107431165187
  Basis Set: CC-PVTZ
  Basis Set:
  Basis Set: CC-PVTZ
  Basis Set:
  @DF-RHF Final Energy:  -321.85197953919482
    Total Energy =                       -321.8519795391949856
  Basis Set: CC-PVTZ
  Basis Set:
  @DF-RHF Final Energy:  -321.85688865252524
    Total Energy =                       -321.8568886525255266
  @DF-RHF Final Energy:  -321.85639523476345
    Total Energy =                       -321.8563952347635677
  @DF-RHF Final Energy:  -321.86013185432910
    Total Energy =                       -321.8601318543292109
  @DF-RHF Final Energy:  -321.85936530977187
    Total Energy =                       -321.8593653097718175
  Basis Set: CC-PVTZ
  Basis Set:
  @DF-RHF Final Energy:  -321.86044421179065
    Total Energy =                       -321.8604442117906501
  Basis Set: CC-PVTZ
  Basis Set:
  Basis Set: CC-PVTZ
  Basis Set:
  @DF-RHF Final Energy:  -321.86052879546173
    Total Energy =                       -321.8605287954615619
  Basis Set: CC-PVTZ
  Basis Set:
  Basis Set: CC-PVTZ
  Basis Set:
  @DF-RHF Final Energy:  -321.86053265539618
    Total Energy =                       -321.8605326553961277
  Basis Set: CC-PVTZ
  Basis Set:
  Charge       = 0
  Multiplicity = 1
  Basis Set: CC-PVTZ
  Basis Set:

    Orbital Energies (a.u.)
    -----------------------

    Doubly Occupied:

       1A    -20.593579     2A    -20.587643     3A    -15.838524
       4A    -11.299127     5A    -11.246982     6A    -11.234920
       7A     -1.637270     8A     -1.421381     9A     -1.131603
      10A     -1.026637    11A     -0.884909    12A     -0.826500
      13A     -0.762909    14A     -0.753138    15A     -0.730942
      16A     -0.657157    17A     -0.607520    18A     -0.575683
      19A     -0.554436    20A     -0.522259    21A     -0.509629
      22A     -0.488544    23A     -0.474497    24A     -0.453519

  @DF-RHF Final Energy:  -321.86053321291774

   => Energetics <=

    Nuclear Repulsion Energy =            247.6306497845011734
    One-Electron Energy =                -929.3437495026527131
    Two-Electron Energy =                 359.8525665052336535
    DFT Exchange-Correlation Energy =       0.0000000000000000
    Empirical Dispersion Energy =           0.0000000000000000
    PCM Polarization Energy =               0.0000000000000000
    EFP Energy =                            0.0000000000000000
    Total Energy =                       -321.8605332129178578
    Molecular point group: c1
  Basis Set: CC-PVTZ
  Basis Set:

  -Total Gradient:
     Atom            X                  Y                   Z
    ------   -----------------  -----------------  -----------------
       1        0.000003810063     0.000004223321    -0.000004770570
       2        0.000006080722    -0.000011213915     0.000012285454
       3       -0.000016754554     0.000105791905     0.000027689134
       4        0.000001843787     0.000006528009    -0.000003619639
       5       -0.000007996095    -0.000004655128    -0.000002756721
       6       -0.000003986518    -0.000105656444     0.000000355344
       7        0.000004105195     0.000002178201    -0.000016694829
       8        0.000000334058    -0.000018578016     0.000016906196
       9       -0.000033695766    -0.000163997276    -0.000084879047
      10        0.000002201998     0.000013806546    -0.000011104188
      11        0.000014768397     0.000006218159     0.000015586009
      12        0.000028330638     0.000170253982     0.000027059293
      13        0.000000958075    -0.000004899344     0.000023943563

  **** Optimization is complete! (in 12 steps) ****
    Final optimized geometry and variables:
    Molecular point group: c1

    Geometry (in Angstrom), charge = 0, multiplicity = 1:

    H            2.702891991716     0.600925902015    -2.284197588747
    C            2.442414322338     0.262135522544    -1.289981485602
    C            0.930651626119     0.323305762858    -1.087671048573
    H            2.818710787305    -0.748473002187    -1.175844222644
    H            2.963448534214     0.893735728141    -0.578784301907
    C            0.562372861438    -0.149898937657     0.303134765909
    H            0.431399579656    -0.294316348978    -1.823132972005
    H            0.574315831456     1.333284742443    -1.233422759701
    N           -0.906080613306    -0.140199662205     0.580502576064
    H            0.870162049670    -1.165559200974     0.496147160362
    H            0.983606377105     0.477362326311     1.076127942046
    O           -1.247352989353    -0.672982173002     1.583129306843
    O           -1.626726643595     0.399843745780    -0.186953181634

  Mulliken Charges: (a.u.)
   Center  Symbol    Alpha    Beta     Spin     Total
       1     H     0.44126  0.44126  0.00000  0.11749
       2     C     3.15269  3.15269  0.00000 -0.30538
       3     C     3.09084  3.09084  0.00000 -0.18167
       4     H     0.45306  0.45306  0.00000  0.09388
       5     H     0.45315  0.45315  0.00000  0.09370
       6     C     3.04685  3.04685  0.00000 -0.09370
       7     H     0.44102  0.44102  0.00000  0.11796
       8     H     0.43783  0.43783  0.00000  0.12435
       9     N     3.27306  3.27306  0.00000  0.45387
      10     H     0.43255  0.43255  0.00000  0.13490
      11     H     0.43424  0.43424  0.00000  0.13153
      12     O     4.17430  4.17430  0.00000 -0.34859
      13     O     4.16917  4.16917  0.00000 -0.33834

   Total alpha = 24.00000, Total beta = 24.00000, Total charge = -0.00000

*** Psi4 exiting successfully. Buy a developer a beer!
