  ==> Input File <==

--------------------------------------------------------------------------
set {
	reference rhf
	basis cc-pvtz
}

set_num_threads( 4 )
memory 2 gb

molecule MOL {
0 1

H	 0.579340	 -2.085832	 0.884347
C	 -0.178698	 -1.330119	 1.098182
N	 -0.537714	 -0.645117	 0.000000
O	 -0.609218	 -1.167124	 2.195818
C	 -1.522613	 0.412524	 0.000000
H	 -0.095777	 -0.887340	 -0.852058
H	 -2.150256	 0.356137	 -0.880771
H	 -1.005621	 1.357208	 0.000000
H	 -2.150256	 0.356137	 0.880771

	symmetry c1
}
set optking {
	frozen_dihedral = ("
		6 3 5 7
	")
}

ee = optimize('scf')
oeprop('DIPOLE', 'QUADRUPOLE', 'MULLIKEN_CHARGES')
f=open( 'psi4out.xyz', 'w' )
f.write( "9  " )
f.write( str(ee) + "\n" )
f.write( MOL.save_string_xyz() )
f.close()
--------------------------------------------------------------------------

    Molecular point group: c1
  Charge       = 0
  Multiplicity = 1
  Basis Set: CC-PVTZ
  Basis Set:
  @DF-RHF Final Energy:  -208.04293222739426
    Total Energy =                       -208.0429322273943455
    Molecular point group: c1
  Basis Set: CC-PVTZ
  Basis Set:
  Basis Set: CC-PVTZ
  Basis Set:
  @DF-RHF Final Energy:  -208.04348259925882
    Total Energy =                       -208.0434825992587093
  Basis Set: CC-PVTZ
  Basis Set:
  Basis Set: CC-PVTZ
  Basis Set:
  @DF-RHF Final Energy:  -208.04357570822816
    Total Energy =                       -208.0435757082280190
  Basis Set: CC-PVTZ
  Basis Set:
  Basis Set: CC-PVTZ
  Basis Set:
  @DF-RHF Final Energy:  -208.04350289377001
    Total Energy =                       -208.0435028937699826
  Basis Set: CC-PVTZ
  Basis Set:
  Basis Set: CC-PVTZ
  Basis Set:
  @DF-RHF Final Energy:  -208.04360595781355
    Total Energy =                       -208.0436059578136394
  Basis Set: CC-PVTZ
  Basis Set:
  Basis Set: CC-PVTZ
  Basis Set:
  @DF-RHF Final Energy:  -208.04362679941585
    Total Energy =                       -208.0436267994158186
  Basis Set: CC-PVTZ
  Basis Set:
  Basis Set: CC-PVTZ
  Basis Set:
  @DF-RHF Final Energy:  -208.04364325538609
    Total Energy =                       -208.0436432553860584
  Basis Set: CC-PVTZ
  Basis Set:
  Charge       = 0
  Multiplicity = 1
  Basis Set: CC-PVTZ
  Basis Set:

    Orbital Energies (a.u.)
    -----------------------

    Doubly Occupied:

       1A    -20.516649     2A    -15.584794     3A    -11.337096
       4A    -11.259642     5A     -1.394014     6A     -1.239705
       7A     -0.970049     8A     -0.808419     9A     -0.748769
      10A     -0.646326    11A     -0.629697    12A     -0.596497
      13A     -0.556708    14A     -0.540332    15A     -0.428607
      16A     -0.396436

  @DF-RHF Final Energy:  -208.04364346183567

   => Energetics <=

    Nuclear Repulsion Energy =            122.7844018974253402
    One-Electron Energy =                -526.3486075950571603
    Two-Electron Energy =                 195.5205622357962056
    DFT Exchange-Correlation Energy =       0.0000000000000000
    Empirical Dispersion Energy =           0.0000000000000000
    PCM Polarization Energy =               0.0000000000000000
    EFP Energy =                            0.0000000000000000
    Total Energy =                       -208.0436434618355861
    Molecular point group: c1
  Basis Set: CC-PVTZ
  Basis Set:

  -Total Gradient:
     Atom            X                  Y                   Z
    ------   -----------------  -----------------  -----------------
       1        0.000007866523    -0.000012642670     0.000012714457
       2        0.000028993041    -0.000022495283    -0.000064050261
       3       -0.000180574859    -0.000141867733     0.000000980232
       4       -0.000018661480     0.000017910541     0.000013640176
       5        0.000135682811     0.000123988404    -0.000060250937
       6        0.000126691885     0.000088797392     0.000038987221
       7       -0.000093131064    -0.000070073272     0.000059449089
       8       -0.000001248414     0.000006365160    -0.000003187379
       9       -0.000005618443     0.000010017462     0.000001717403

  **** Optimization is complete! (in 8 steps) ****
    Final optimized geometry and variables:
    Molecular point group: c1

    Geometry (in Angstrom), charge = 0, multiplicity = 1:

    H            1.285766230971    -1.431754867917     0.075861542704
    C            0.544088149656    -0.657539329129     0.281594634748
    N            0.131635472767    -0.031476732076    -0.833145357205
    O            0.158798200658    -0.431778680636     1.384740512555
    C           -0.802581713388     1.071523040628    -0.816312979045
    H            0.593103700289    -0.255293618152    -1.679871245496
    H           -1.385320366562     1.064564524277    -1.727112244875
    H           -0.299050411235     2.027470032136    -0.728219373745
    H           -1.465892622088     0.955770535524     0.025317642750

  Mulliken Charges: (a.u.)
   Center  Symbol    Alpha    Beta     Spin     Total
       1     H     0.46343  0.46343  0.00000  0.07314
       2     C     2.88079  2.88079  0.00000  0.23842
       3     N     3.60689  3.60689  0.00000 -0.21377
       4     O     4.21418  4.21418  0.00000 -0.42837
       5     C     3.07909  3.07909  0.00000 -0.15818
       6     H     0.41035  0.41035  0.00000  0.17931
       7     H     0.45376  0.45376  0.00000  0.09247
       8     H     0.45539  0.45539  0.00000  0.08922
       9     H     0.43612  0.43612  0.00000  0.12777

   Total alpha = 16.00000, Total beta = 16.00000, Total charge = -0.00000
