  ==> Input File <==

--------------------------------------------------------------------------
set {
	reference rhf
	basis 6-31G*
}

set_num_threads( 4 )
memory 2 gb

molecule MOL {
0 1

H	 -2.798360	 -0.862255	 -0.071053
N	 -1.863561	 -0.715187	 0.256814
C	 -1.344686	 0.554728	 -0.219830
H	 -1.300452	 -1.461917	 -0.101532
C	 0.081427	 0.741154	 0.254071
H	 -1.362155	 0.656231	 -1.305829
H	 -1.952773	 1.354456	 0.191809
O	 0.874168	 -0.245412	 -0.342030
H	 0.444037	 1.730782	 -0.023037
H	 0.121165	 0.653424	 1.337565
C	 1.061709	 -0.081536	 -1.711535
H	 1.683081	 -0.896386	 -2.057385
H	 0.115420	 -0.108823	 -2.248912
H	 1.558353	 0.860411	 -1.934898

	symmetry c1
}
set optking {
	frozen_dihedral = ("
		11 8 5 3
	")
}

ee = optimize('scf')
oeprop('DIPOLE', 'QUADRUPOLE', 'MULLIKEN_CHARGES')
f=open( 'psi4out.xyz', 'w' )
f.write( "14  " )
f.write( str(ee) + "\n" )
f.write( MOL.save_string_xyz() )
f.close()
--------------------------------------------------------------------------

    Molecular point group: c1
  Charge       = 0
  Multiplicity = 1
  Basis Set: 6-31G*
  Basis Set:
  @DF-RHF Final Energy:  -248.11746741724261
    Total Energy =                       -248.1174674172424943
    Molecular point group: c1
  Basis Set: 6-31G*
  Basis Set:
  Basis Set: 6-31G*
  Basis Set:
  @DF-RHF Final Energy:  -248.11977658079920
    Total Energy =                       -248.1197765807991118
  Basis Set: 6-31G*
  Basis Set:
  Basis Set: 6-31G*
  Basis Set:
  @DF-RHF Final Energy:  -248.12128977275623
    Total Energy =                       -248.1212897727563131
  Basis Set: 6-31G*
  Basis Set:
  Basis Set: 6-31G*
  Basis Set:
  @DF-RHF Final Energy:  -248.12145051193878
    Total Energy =                       -248.1214505119385763
  Basis Set: 6-31G*
  Basis Set:
  Basis Set: 6-31G*
  Basis Set:
  @DF-RHF Final Energy:  -248.12146664751631
    Total Energy =                       -248.1214666475164563
  Basis Set: 6-31G*
  Basis Set:
  Charge       = 0
  Multiplicity = 1
  Basis Set: 6-31G*
  Basis Set:

    Orbital Energies (a.u.)
    -----------------------

    Doubly Occupied:

       1A    -20.558130     2A    -15.532194     3A    -11.268269
       4A    -11.267191     5A    -11.243877     6A     -1.379976
       7A     -1.176525     8A     -0.997872     9A     -0.921453
      10A     -0.809197    11A     -0.687961    12A     -0.675089
      13A     -0.644659    14A     -0.618866    15A     -0.600776
      16A     -0.546078    17A     -0.530345    18A     -0.515931
      19A     -0.464109    20A     -0.418313    21A     -0.380821

  @DF-RHF Final Energy:  -248.12146759531464

   => Energetics <=

    Nuclear Repulsion Energy =            196.9885784031196749
    One-Electron Energy =                -727.7448285447491116
    Two-Electron Energy =                 282.6347825463149093
    DFT Exchange-Correlation Energy =       0.0000000000000000
    Empirical Dispersion Energy =           0.0000000000000000
    PCM Polarization Energy =               0.0000000000000000
    EFP Energy =                            0.0000000000000000
    Total Energy =                       -248.1214675953144706
    Molecular point group: c1
  Basis Set: 6-31G*
  Basis Set:

  -Total Gradient:
     Atom            X                  Y                   Z
    ------   -----------------  -----------------  -----------------
       1        0.000005025074    -0.000001347480     0.000008230284
       2       -0.000031409955     0.000000996125     0.000042729096
       3        0.000216773509     0.000766860731    -0.001091996664
       4       -0.000002848190     0.000000122811    -0.000012951345
       5       -0.000813271571    -0.001542186106     0.001367643818
       6        0.000012972850     0.000017957048    -0.000025968416
       7        0.000011568975    -0.000011868900    -0.000000875458
       8        0.001752568718     0.001619510541    -0.000069765026
       9        0.000011472971    -0.000001549054     0.000001881654
      10        0.000034218811    -0.000020134067     0.000007559739
      11       -0.001182596353    -0.000818417776    -0.000231735972
      12       -0.000003548943    -0.000005562440     0.000016928513
      13       -0.000018478738    -0.000010546367     0.000006668393
      14        0.000007552839     0.000006164933    -0.000018348615

  **** Optimization is complete! (in 6 steps) ****
    Final optimized geometry and variables:
    Molecular point group: c1

    Geometry (in Angstrom), charge = 0, multiplicity = 1:

    H           -2.595403065439    -0.878594544545     0.292824084830
    N           -1.662793778543    -0.731778369217     0.625662712499
    C           -1.148692203831     0.558458777287     0.203454225558
    H           -1.089946350864    -1.468123158425     0.261786952997
    C            0.311953529385     0.688795481511     0.607846811083
    H           -1.257103800011     0.745968549336    -0.866293878552
    H           -1.706182518448     1.338888733276     0.712791767069
    O            1.143528330318    -0.277492593347     0.024729371853
    H            0.673992117659     1.686742347664     0.361781418284
    H            0.398045092553     0.545343251688     1.675975323743
    C            1.359961744714    -0.155373755841    -1.346691091083
    H            2.137294710601    -0.859162751168    -1.611419160070
    H            0.472385877919    -0.387749800884    -1.928870203625
    H            1.691805217864     0.847447089808    -1.609428601764

  Mulliken Charges: (a.u.)
   Center  Symbol    Alpha    Beta     Spin     Total
       1     H     0.33222  0.33222  0.00000  0.33556
       2     N     3.92411  3.92411  0.00000 -0.84822
       3     C     3.07663  3.07663  0.00000 -0.15325
       4     H     0.32518  0.32518  0.00000  0.34964
       5     C     2.99591  2.99591  0.00000  0.00818
       6     H     0.43274  0.43274  0.00000  0.13453
       7     H     0.41810  0.41810  0.00000  0.16379
       8     O     4.30733  4.30733  0.00000 -0.61466
       9     H     0.42996  0.42996  0.00000  0.14009
      10     H     0.40532  0.40532  0.00000  0.18935
      11     C     3.08232  3.08232  0.00000 -0.16463
      12     H     0.41097  0.41097  0.00000  0.17806
      13     H     0.42969  0.42969  0.00000  0.14063
      14     H     0.42953  0.42953  0.00000  0.14094

   Total alpha = 21.00000, Total beta = 21.00000, Total charge =  0.00000
