                              Psi4 1.0.54 Driver

  ==> Input File <==

--------------------------------------------------------------------------
set {
	reference rhf
	basis cc-pvtz
}

set_num_threads( 4 )
memory 2 gb

molecule MOL {
0 1

H	 1.166964	 -1.062386	 0.758429
O	 1.324748	 -0.612467	 -0.052206
C	 0.706474	 0.636793	 -0.025501
C	 -0.644764	 0.652387	 0.631421
H	 0.604818	 0.950807	 -1.057665
H	 1.342402	 1.373902	 0.461290
C	 -1.301002	 -0.400646	 1.065909
H	 -1.081992	 1.631788	 0.735596
H	 -0.906463	 -1.393659	 0.964731
H	 -2.265112	 -0.301500	 1.527128

	symmetry c1
}
set optking {
	frozen_dihedral = ("
		5 3 2 1
	")
}

ee,wfn = optimize('scf', return_wfn=True)
oeprop( wfn, 'DIPOLE', 'QUADRUPOLE', 'MULLIKEN_CHARGES')
f=open( 'psi4out.xyz', 'w' )
f.write( "10  " )
f.write( str(ee) + "\n" )
f.write( MOL.save_string_xyz() )
f.close()
--------------------------------------------------------------------------

    Molecular point group: c1
  Charge       = 0
  Multiplicity = 1
  Basis Set: CC-PVTZ
  Basis Set:
  @DF-RHF Final Energy:  -191.99758845838238
    Total Energy =                       -191.9975884583823813
    Molecular point group: c1
  Basis Set: CC-PVTZ
  Basis Set:
  Basis Set: CC-PVTZ
  Basis Set:
  @DF-RHF Final Energy:  -191.99773791503509
    Total Energy =                       -191.9977379150350885
  Basis Set: CC-PVTZ
  Basis Set:
  Basis Set: CC-PVTZ
  Basis Set:
  @DF-RHF Final Energy:  -191.99779839305035
    Total Energy =                       -191.9977983930502887
  Basis Set: CC-PVTZ
  Basis Set:
  Basis Set: CC-PVTZ
  Basis Set:
  @DF-RHF Final Energy:  -191.99779956667518
    Total Energy =                       -191.9977995666750132
  Basis Set: CC-PVTZ
  Basis Set:
  Charge       = 0
  Multiplicity = 1
  Basis Set: CC-PVTZ
  Basis Set:

    Orbital Energies (a.u.)
    -----------------------

    Doubly Occupied:

       1A    -20.552978     2A    -11.278275     3A    -11.235824
       4A    -11.221888     5A     -1.374102     6A     -1.065766
       7A     -0.935252     8A     -0.775846     9A     -0.689627
      10A     -0.665629    11A     -0.626853    12A     -0.573408
      13A     -0.551809    14A     -0.488520    15A     -0.456528
      16A     -0.372936

  @DF-RHF Final Energy:  -191.99779985250143

   => Energetics <=

    Nuclear Repulsion Energy =            119.6147474654395779
    One-Electron Energy =                -497.4946122621340123
    Two-Electron Energy =                 185.8820649441930186
    DFT Exchange-Correlation Energy =       0.0000000000000000
    Empirical Dispersion Energy =           0.0000000000000000
    PCM Polarization Energy =               0.0000000000000000
    EFP Energy =                            0.0000000000000000
    Total Energy =                       -191.9977998525014300
    Molecular point group: c1
  Basis Set: CC-PVTZ
  Basis Set:

  -Total Gradient:
     Atom            X                  Y                   Z
    ------   -----------------  -----------------  -----------------
       1       -0.002269628419    -0.001196509001    -0.000951327898
       2        0.002332311458     0.001198243940     0.001183831555
       3        0.002037051104     0.001051263290    -0.000216720961
       4       -0.000028618008    -0.000040853584    -0.000020277953
       5       -0.002071829115    -0.001052961773     0.000010125536
       6       -0.000006049839    -0.000004227720    -0.000018423367
       7        0.000029163811     0.000007618371    -0.000011321959
       8       -0.000011983758     0.000020726726     0.000011420239
       9       -0.000009090845     0.000022192435     0.000007696765
      10       -0.000001326386    -0.000005492686     0.000004998042

  **** Optimization is complete! (in 5 steps) ****
    Final optimized geometry and variables:
    Molecular point group: c1

    Geometry (in Angstrom), charge = 0, multiplicity = 1:

    H            1.129487236621    -1.065960392191     0.403838189514
    O            1.254484518487    -0.640156473832    -0.424991711102
    C            0.613433502617     0.597735769683    -0.421832551203
    C           -0.729391385877     0.612093923509     0.253140161789
    H            0.473572299787     0.879498463586    -1.459442487949
    H            1.244042789287     1.355920799450     0.036913154516
    C           -1.411676114077    -0.439700734170     0.650128753353
    H           -1.143395311425     1.595374095400     0.402139579457
    H           -1.056456661728    -1.442501628351     0.503133962936
    H           -2.367553720236    -0.332377127490     1.125964158075

  Mulliken Charges: (a.u.)
   Center  Symbol    Alpha    Beta     Spin     Total
       1     H     0.39065  0.39065  0.00000  0.21870
       2     O     4.20100  4.20100  0.00000 -0.40200
       3     C     2.94330  2.94330  0.00000  0.11339
       4     C     3.08275  3.08275  0.00000 -0.16549
       5     H     0.45676  0.45676  0.00000  0.08648
       6     H     0.46979  0.46979  0.00000  0.06041
       7     C     3.17698  3.17698  0.00000 -0.35396
       8     H     0.42259  0.42259  0.00000  0.15481
       9     H     0.42861  0.42861  0.00000  0.14278
      10     H     0.42756  0.42756  0.00000  0.14488

   Total alpha = 16.00000, Total beta = 16.00000, Total charge = -0.00000

*** Psi4 exiting successfully. Buy a developer a beer!
