                              Psi4 1.0.54 Driver

  ==> Input File <==

--------------------------------------------------------------------------
set {
	reference rhf
	basis cc-pvtz
}

set_num_threads( 4 )
memory 2 gb

molecule MOL {
0 1

H	 2.310389	 -0.153465	 0.300278
O	 1.583947	 -0.677544	 -0.001533
C	 0.489979	 0.078084	 0.002623
C	 -0.763662	 -0.754014	 0.000816
O	 0.539051	 1.259395	 -0.000088
C	 -2.038001	 0.074705	 -0.000833
H	 -0.712945	 -1.405886	 -0.864342
H	 -0.715137	 -1.405770	 0.866182
H	 -2.087267	 0.710831	 -0.874232
H	 -2.903419	 -0.576199	 -0.001922
H	 -2.089467	 0.710909	 0.872389

	symmetry c1
}
set optking {
	frozen_dihedral = ("
		1 2 3 5
	")
}

ee,wfn = optimize('scf', return_wfn=True)
oeprop( wfn, 'DIPOLE', 'QUADRUPOLE', 'MULLIKEN_CHARGES')
f=open( 'psi4out.xyz', 'w' )
f.write( "11  " )
f.write( str(ee) + "\n" )
f.write( MOL.save_string_xyz() )
f.close()
--------------------------------------------------------------------------

    Molecular point group: c1
  Charge       = 0
  Multiplicity = 1
  Basis Set: CC-PVTZ
  Basis Set:
  @DF-RHF Final Energy:  -266.95102349466697
    Total Energy =                       -266.9510234946670266
    Molecular point group: c1
  Basis Set: CC-PVTZ
  Basis Set:
  Basis Set: CC-PVTZ
  Basis Set:
  @DF-RHF Final Energy:  -266.94837962922264
    Total Energy =                       -266.9483796292226430
  Basis Set: CC-PVTZ
  Basis Set:
  Basis Set: CC-PVTZ
  Basis Set:
  @DF-RHF Final Energy:  -266.95116573680070
    Total Energy =                       -266.9511657368007036
  Basis Set: CC-PVTZ
  Basis Set:
  Basis Set: CC-PVTZ
  Basis Set:
  @DF-RHF Final Energy:  -266.95119681644235
    Total Energy =                       -266.9511968164421774
  Basis Set: CC-PVTZ
  Basis Set:
  Basis Set: CC-PVTZ
  Basis Set:
  @DF-RHF Final Energy:  -266.95120245778219
    Total Energy =                       -266.9512024577821308
  Basis Set: CC-PVTZ
  Basis Set:
  Charge       = 0
  Multiplicity = 1
  Basis Set: CC-PVTZ
  Basis Set:

    Orbital Energies (a.u.)
    -----------------------

    Doubly Occupied:

       1A    -20.603370     2A    -20.542601     3A    -11.374461
       4A    -11.242708     5A    -11.218669     6A     -1.476849
       7A     -1.370726     8A     -1.066202     9A     -0.918256
      10A     -0.803989    11A     -0.706539    12A     -0.692462
      13A     -0.664473    14A     -0.604093    15A     -0.589111
      16A     -0.532846    17A     -0.527118    18A     -0.505854
      19A     -0.486059    20A     -0.448860

  @DF-RHF Final Energy:  -266.95120289926081

   => Energetics <=

    Nuclear Repulsion Energy =            180.0897761750833013
    One-Electron Energy =                -721.3314670409881728
    Two-Electron Energy =                 274.2904879666439797
    DFT Exchange-Correlation Energy =       0.0000000000000000
    Empirical Dispersion Energy =           0.0000000000000000
    PCM Polarization Energy =               0.0000000000000000
    EFP Energy =                            0.0000000000000000
    Total Energy =                       -266.9512028992608634
    Molecular point group: c1
  Basis Set: CC-PVTZ
  Basis Set:

  -Total Gradient:
     Atom            X                  Y                   Z
    ------   -----------------  -----------------  -----------------
       1       -0.000972513513    -0.002147203100     0.006499952741
       2        0.000982772028     0.002686306297    -0.010915770412
       3        0.000422230585    -0.000706808344     0.010728594527
       4        0.000015726651     0.000007611781     0.000041157366
       5       -0.000442461383     0.000145199379    -0.006279584311
       6        0.000000443410    -0.000008986145    -0.000009914854
       7       -0.000027438087     0.000040659473    -0.000047235638
       8        0.000021750683    -0.000021276688    -0.000028004287
       9        0.000003004859    -0.000001407001     0.000003802551
      10       -0.000000206612     0.000002770420     0.000003830847
      11       -0.000003308618     0.000003133932     0.000003171470

  **** Optimization is complete! (in 6 steps) ****
    Final optimized geometry and variables:
    Molecular point group: c1

    Geometry (in Angstrom), charge = 0, multiplicity = 1:

    H            2.331752279659    -0.166915270048     0.207588999505
    O            1.585166629800    -0.675903960129    -0.068957341705
    C            0.490433043526     0.079421656186     0.019141623475
    C           -0.763289508342    -0.752544789001     0.005566540597
    O            0.537993030616     1.259377590226     0.051100333683
    C           -2.038428673034     0.074464023758    -0.014946005661
    H           -0.700944965702    -1.409799691896    -0.854672158225
    H           -0.724384309803    -1.399617612774     0.875340146026
    H           -2.079097497048     0.704863534821    -0.893145890727
    H           -2.903444375478    -0.577079650391    -0.021247211774
    H           -2.099889505883     0.716530215750     0.853303443229

  Mulliken Charges: (a.u.)
   Center  Symbol    Alpha    Beta     Spin     Total
       1     H     0.38115  0.38115  0.00000  0.23770
       2     O     4.16310  4.16310  0.00000 -0.32619
       3     C     2.80347  2.80347  0.00000  0.39307
       4     C     3.10075  3.10075  0.00000 -0.20149
       5     O     4.18735  4.18735  0.00000 -0.37471
       6     C     3.13898  3.13898  0.00000 -0.27795
       7     H     0.43881  0.43881  0.00000  0.12237
       8     H     0.44102  0.44102  0.00000  0.11796
       9     H     0.44791  0.44791  0.00000  0.10419
      10     H     0.44971  0.44971  0.00000  0.10059
      11     H     0.44777  0.44777  0.00000  0.10446

   Total alpha = 20.00000, Total beta = 20.00000, Total charge = -0.00000

*** Psi4 exiting successfully. Buy a developer a beer!
