                              Psi4 1.0.54 Driver

  ==> Input File <==

--------------------------------------------------------------------------
set {
	reference rhf
	basis cc-pvtz
}

set_num_threads( 4 )
memory 2 gb

molecule MOL {
0 1

O	 0.749630	 1.305591	 -0.000460
C	 0.576499	 0.134701	 -0.003900
C	 -0.765656	 -0.550508	 -0.002152
O	 1.564816	 -0.744612	 -0.000631
C	 -1.945526	 0.411052	 0.000603
H	 -0.794329	 -1.203792	 -0.868145
H	 -0.791555	 -1.205429	 0.862701
C	 -2.034682	 1.206636	 1.298301
H	 -2.861174	 -0.146477	 -0.154778
H	 -1.857819	 1.086577	 -0.841628
H	 -2.155091	 0.552000	 2.155193
H	 -2.880290	 1.883425	 1.279170
H	 -1.140648	 1.799834	 1.460001
C	 2.884339	 -0.237801	 0.002883
H	 3.064150	 0.362814	 -0.876312
H	 3.533055	 -1.098529	 0.004958
H	 3.059365	 0.363432	 0.882614

	symmetry c1
}
set optking {
	frozen_dihedral = ("
		9 5 3 6
	")
}

ee,wfn = optimize('scf', return_wfn=True)
oeprop( wfn, 'DIPOLE', 'QUADRUPOLE', 'MULLIKEN_CHARGES')
f=open( 'psi4out.xyz', 'w' )
f.write( "17  " )
f.write( str(ee) + "\n" )
f.write( MOL.save_string_xyz() )
f.close()
--------------------------------------------------------------------------

    Molecular point group: c1
  Charge       = 0
  Multiplicity = 1
  Basis Set: CC-PVTZ
  Basis Set:
  @DF-RHF Final Energy:  -345.03365160382288
    Total Energy =                       -345.0336516038227614
    Molecular point group: c1
  Basis Set: CC-PVTZ
  Basis Set:
  Basis Set: CC-PVTZ
  Basis Set:
  @DF-RHF Final Energy:  -345.03409222290441
    Total Energy =                       -345.0340922229042917
  Basis Set: CC-PVTZ
  Basis Set:
  Basis Set: CC-PVTZ
  Basis Set:
  @DF-RHF Final Energy:  -345.03219279015298
    Total Energy =                       -345.0321927901529762
  Basis Set: CC-PVTZ
  Basis Set:
  Basis Set: CC-PVTZ
  Basis Set:
  @DF-RHF Final Energy:  -345.03460924400980
    Total Energy =                       -345.0346092440095163
  Basis Set: CC-PVTZ
  Basis Set:
  @DF-RHF Final Energy:  -345.03471872493259
    Total Energy =                       -345.0347187249325316
  Basis Set: CC-PVTZ
  Basis Set:
  @DF-RHF Final Energy:  -345.03475975120978
    Total Energy =                       -345.0347597512093216
  Basis Set: CC-PVTZ
  Basis Set:
  Basis Set: CC-PVTZ
  Basis Set:
  @DF-RHF Final Energy:  -345.03477226648374
    Total Energy =                       -345.0347722664838557
  Basis Set: CC-PVTZ
  Basis Set:
  Basis Set: CC-PVTZ
  Basis Set:
  @DF-RHF Final Energy:  -345.03477450511838
    Total Energy =                       -345.0347745051188895
  Basis Set: CC-PVTZ
  Basis Set:
  Charge       = 0
  Multiplicity = 1
  Basis Set: CC-PVTZ
  Basis Set:

    Orbital Energies (a.u.)
    -----------------------

    Doubly Occupied:

       1A    -20.597573     2A    -20.534591     3A    -11.365606
       4A    -11.279159     5A    -11.234523     6A    -11.220925
       7A    -11.206494     8A     -1.473341     9A     -1.366591
      10A     -1.080318    11A     -1.000640    12A     -0.939486
      13A     -0.830195    14A     -0.768184    15A     -0.702922
      16A     -0.685149    17A     -0.675433    18A     -0.622067
      19A     -0.615963    20A     -0.568558    21A     -0.565197
      22A     -0.536535    23A     -0.525302    24A     -0.489938
      25A     -0.484911    26A     -0.482450    27A     -0.460833
      28A     -0.439859

  @DF-RHF Final Energy:  -345.03477467382282

   => Energetics <=

    Nuclear Repulsion Energy =            318.4911752427483975
    One-Electron Energy =               -1101.5464129491115273
    Two-Electron Energy =                 438.0204630325402491
    DFT Exchange-Correlation Energy =       0.0000000000000000
    Empirical Dispersion Energy =           0.0000000000000000
    PCM Polarization Energy =               0.0000000000000000
    EFP Energy =                            0.0000000000000000
    Total Energy =                       -345.0347746738229375
    Molecular point group: c1
  Basis Set: CC-PVTZ
  Basis Set:

  -Total Gradient:
     Atom            X                  Y                   Z
    ------   -----------------  -----------------  -----------------
       1        0.000038546059    -0.000022477282     0.000012967511
       2       -0.000029027625     0.000001699058    -0.000009939270
       3       -0.000268310426    -0.000317608647     0.000334789481
       4        0.000007224424     0.000024634054     0.000000735916
       5        0.000089783442     0.000112299631    -0.000490452246
       6        0.000205744130     0.000240723010    -0.000202884718
       7       -0.000003220757    -0.000004168559    -0.000005748347
       8        0.000008269664     0.000006396613    -0.000009040678
       9       -0.000038433002    -0.000045916182     0.000368152831
      10       -0.000000632230    -0.000001201054     0.000004874135
      11       -0.000001822457    -0.000002143984    -0.000001526105
      12       -0.000007434805     0.000006414817     0.000003887176
      13       -0.000000121681    -0.000002771802    -0.000000744526
      14       -0.000021323804    -0.000009933905    -0.000007144607
      15        0.000005827366     0.000004878352    -0.000014628568
      16        0.000012978287    -0.000004826819     0.000002995993
      17        0.000001953414     0.000014002702     0.000013706023

  **** Optimization is complete! (in 9 steps) ****
    Final optimized geometry and variables:
    Molecular point group: c1

    Geometry (in Angstrom), charge = 0, multiplicity = 1:

    O            0.598787625626     1.032680067015    -0.541703271349
    C            0.403552604623    -0.097789020223    -0.248576572904
    C           -0.948217652973    -0.765901906334    -0.190910099731
    O            1.374478470079    -0.947931920062     0.039609203542
    C           -2.126226010893     0.201869507439    -0.182342762411
    H           -0.993171217394    -1.411382776008    -1.063185141110
    H           -0.965585882532    -1.422289766061     0.670737891432
    C           -2.257368135059     0.997169616801     1.113317922982
    H           -3.031781112497    -0.375051015079    -0.338201321462
    H           -2.034991542858     0.881047635132    -1.020417029428
    H           -2.377147054065     0.336172485035     1.966116480443
    H           -3.123929606826     1.646813789134     1.077125893821
    H           -1.386667751611     1.616799876385     1.284146660614
    C            2.701264994476    -0.465224723692    -0.028176483426
    H            2.931665374970    -0.122095510169    -1.025915191777
    H            3.334265773155    -1.297059481915     0.234878675373
    H            2.846616533810     0.348447716390     0.666733634085

  Mulliken Charges: (a.u.)
   Center  Symbol    Alpha    Beta     Spin     Total
       1     O     4.19944  4.19944  0.00000 -0.39888
       2     C     2.80576  2.80576  0.00000  0.38848
       3     C     3.10298  3.10298  0.00000 -0.20596
       4     O     4.14603  4.14603  0.00000 -0.29205
       5     C     3.08398  3.08398  0.00000 -0.16796
       6     H     0.43585  0.43585  0.00000  0.12829
       7     H     0.43864  0.43864  0.00000  0.12272
       8     C     3.15305  3.15305  0.00000 -0.30609
       9     H     0.44793  0.44793  0.00000  0.10415
      10     H     0.44593  0.44593  0.00000  0.10814
      11     H     0.45774  0.45774  0.00000  0.08451
      12     H     0.44781  0.44781  0.00000  0.10438
      13     H     0.44471  0.44471  0.00000  0.11058
      14     C     3.03632  3.03632  0.00000 -0.07265
      15     H     0.45440  0.45440  0.00000  0.09121
      16     H     0.44523  0.44523  0.00000  0.10955
      17     H     0.45421  0.45421  0.00000  0.09158

   Total alpha = 28.00000, Total beta = 28.00000, Total charge =  0.00000

*** Psi4 exiting successfully. Buy a developer a beer!
