                              Psi4 1.0.54 Driver

  ==> Input File <==

--------------------------------------------------------------------------
set {
	reference rhf
	basis cc-pvtz
}

set_num_threads( 4 )
memory 2 gb

molecule MOL {
0 1

O	 1.216069	 1.304886	 0.000821
C	 1.121787	 0.124983	 0.000110
C	 -0.170912	 -0.649867	 -0.000147
O	 2.167739	 -0.685178	 -0.000678
C	 -1.413045	 0.229353	 0.001137
H	 -0.152877	 -1.303435	 -0.866175
H	 -0.152278	 -1.305116	 0.864586
C	 -2.210754	 0.110298	 -1.294160
H	 -1.121060	 1.261507	 0.159069
H	 -2.039998	 -0.037649	 0.844454
C	 -3.456717	 0.989138	 -1.304509
H	 -1.576367	 0.375851	 -2.135751
H	 -2.500349	 -0.926034	 -1.447085
H	 -3.197284	 2.035918	 -1.188181
H	 -4.002609	 0.884503	 -2.234955
H	 -4.128028	 0.724530	 -0.494629
C	 3.449556	 -0.089977	 -0.000570
H	 3.585694	 0.522473	 -0.879546
H	 4.155805	 -0.904274	 -0.001389
H	 3.586173	 0.521118	 0.879272

	symmetry c1
}
set optking {
	frozen_dihedral = ("
		9 5 3 6
	")
}

ee,wfn = optimize('scf', return_wfn=True)
oeprop( wfn, 'DIPOLE', 'QUADRUPOLE', 'MULLIKEN_CHARGES')
f=open( 'psi4out.xyz', 'w' )
f.write( "20  " )
f.write( str(ee) + "\n" )
f.write( MOL.save_string_xyz() )
f.close()
--------------------------------------------------------------------------

    Molecular point group: c1
  Charge       = 0
  Multiplicity = 1
  Basis Set: CC-PVTZ
  Basis Set:
  @DF-RHF Final Energy:  -384.07865510025590
    Total Energy =                       -384.0786551002554461
    Molecular point group: c1
  Basis Set: CC-PVTZ
  Basis Set:
  Basis Set: CC-PVTZ
  Basis Set:
  @DF-RHF Final Energy:  -384.07897627875150
    Total Energy =                       -384.0789762787516111
  Basis Set: CC-PVTZ
  Basis Set:
  Basis Set: CC-PVTZ
  Basis Set:
  @DF-RHF Final Energy:  -384.07888937330796
    Total Energy =                       -384.0788893733081295
  Basis Set: CC-PVTZ
  Basis Set:
  Basis Set: CC-PVTZ
  Basis Set:
  @DF-RHF Final Energy:  -384.07907029270956
    Total Energy =                       -384.0790702927091615
  Basis Set: CC-PVTZ
  Basis Set:
  Basis Set: CC-PVTZ
  Basis Set:
  @DF-RHF Final Energy:  -384.07907672488545
    Total Energy =                       -384.0790767248855673
  Basis Set: CC-PVTZ
  Basis Set:
  Basis Set: CC-PVTZ
  Basis Set:
  @DF-RHF Final Energy:  -384.07908129634785
    Total Energy =                       -384.0790812963481358
  Basis Set: CC-PVTZ
  Basis Set:
  Basis Set: CC-PVTZ
  Basis Set:
  @DF-RHF Final Energy:  -384.07908352938074
    Total Energy =                       -384.0790835293809096
  Basis Set: CC-PVTZ
  Basis Set:
  Charge       = 0
  Multiplicity = 1
  Basis Set: CC-PVTZ
  Basis Set:

    Orbital Energies (a.u.)
    -----------------------

    Doubly Occupied:

       1A    -20.596839     2A    -20.535158     3A    -11.365611
       4A    -11.278904     5A    -11.233984     6A    -11.216337
       7A    -11.215616     8A    -11.206753     9A     -1.473047
      10A     -1.366555    11A     -1.087072    12A     -1.024603
      13A     -0.968901    14A     -0.886137    15A     -0.805075
      16A     -0.768917    17A     -0.703937    18A     -0.684264
      19A     -0.676593    20A     -0.634669    21A     -0.605320
      22A     -0.591309    23A     -0.579872    24A     -0.547966
      25A     -0.530646    26A     -0.517531    27A     -0.511397
      28A     -0.477777    29A     -0.469549    30A     -0.463417
      31A     -0.460720    32A     -0.442799

  @DF-RHF Final Energy:  -384.07908445191782

   => Energetics <=

    Nuclear Repulsion Energy =            384.4618845328926113
    One-Electron Energy =               -1285.2273891561958408
    Two-Electron Energy =                 516.6864201713852935
    DFT Exchange-Correlation Energy =       0.0000000000000000
    Empirical Dispersion Energy =           0.0000000000000000
    PCM Polarization Energy =               0.0000000000000000
    EFP Energy =                            0.0000000000000000
    Total Energy =                       -384.0790844519179927
    Molecular point group: c1
  Basis Set: CC-PVTZ
  Basis Set:

  -Total Gradient:
     Atom            X                  Y                   Z
    ------   -----------------  -----------------  -----------------
       1        0.000029480555     0.000094645256    -0.000010951850
       2       -0.000081477207     0.000014548089    -0.000001506636
       3       -0.001164737852    -0.001709278731     0.000811166321
       4        0.000069253813    -0.000081666217    -0.000000248596
       5        0.000028029407     0.000050779545     0.002099283561
       6        0.000943993315     0.001387797933    -0.000974290160
       7        0.000007362930     0.000007809402    -0.000006445018
       8       -0.000024461816     0.000004690882    -0.000055466630
       9        0.000193100215     0.000247789582    -0.001892617563
      10       -0.000008225267    -0.000008781713     0.000011303781
      11        0.000009271862    -0.000009500590     0.000012180654
      12        0.000001104707     0.000003477310    -0.000000665910
      13       -0.000002119072     0.000000862912    -0.000001236432
      14        0.000003944293     0.000003062146    -0.000002981729
      15        0.000010330604    -0.000005785278     0.000004705294
      16       -0.000003954878    -0.000001945310     0.000003458324
      17       -0.000052150049    -0.000023558919     0.000011493789
      18        0.000005622330     0.000022810092    -0.000037420113
      19        0.000028653338    -0.000026045235     0.000000861919
      20        0.000006978775     0.000028288846     0.000029376995

  **** Optimization is complete! (in 8 steps) ****
    Final optimized geometry and variables:
    Molecular point group: c1

    Geometry (in Angstrom), charge = 0, multiplicity = 1:

    O            1.096576812484     1.134854881020     0.223772361427
    C            1.001068527656    -0.041170518680     0.318640467495
    C           -0.286856279267    -0.830498472854     0.335438533200
    O            2.047833409550    -0.845014099278     0.411004428458
    C           -1.558902767982     0.026296960379     0.322725068775
    H           -0.238504209296    -1.477155806724    -0.534548317481
    H           -0.242795065536    -1.486487214591     1.195467382834
    C           -2.332027808317    -0.066037421713    -0.992005600228
    H           -1.289839368875     1.059573413615     0.492845396374
    H           -2.206128316333    -0.276602321404     1.138321266718
    C           -3.585853463806     0.800347029887    -1.003263649420
    H           -1.679898809994     0.232560688538    -1.808186042853
    H           -2.606094840308    -1.100879857258    -1.180303577904
    H           -3.338456316064     1.845762377803    -0.854368975397
    H           -4.112788945934     0.715343435087    -1.946572421552
    H           -4.270852468796     0.507619645635    -0.214234999225
    C            3.328906217119    -0.248702402127     0.387604090987
    H            3.484107859579     0.285536654054    -0.538077177511
    H            4.035530708914    -1.058271853243     0.472882353114
    H            3.445715460507     0.436675438937     1.213961723441

  Mulliken Charges: (a.u.)
   Center  Symbol    Alpha    Beta     Spin     Total
       1     O     4.19704  4.19704  0.00000 -0.39407
       2     C     2.80068  2.80068  0.00000  0.39864
       3     C     3.11213  3.11213  0.00000 -0.22427
       4     O     4.14701  4.14701  0.00000 -0.29403
       5     C     3.09550  3.09550  0.00000 -0.19101
       6     H     0.43948  0.43948  0.00000  0.12104
       7     H     0.43116  0.43116  0.00000  0.13768
       8     C     3.08444  3.08444  0.00000 -0.16889
       9     H     0.43801  0.43801  0.00000  0.12399
      10     H     0.44876  0.44876  0.00000  0.10249
      11     C     3.15091  3.15091  0.00000 -0.30181
      12     H     0.45231  0.45231  0.00000  0.09538
      13     H     0.45549  0.45549  0.00000  0.08902
      14     H     0.45198  0.45198  0.00000  0.09604
      15     H     0.44854  0.44854  0.00000  0.10292
      16     H     0.45596  0.45596  0.00000  0.08808
      17     C     3.03632  3.03632  0.00000 -0.07263
      18     H     0.45451  0.45451  0.00000  0.09097
      19     H     0.44553  0.44553  0.00000  0.10894
      20     H     0.45424  0.45424  0.00000  0.09153

   Total alpha = 32.00000, Total beta = 32.00000, Total charge = -0.00000

*** Psi4 exiting successfully. Buy a developer a beer!
