  ==> Input File <==

--------------------------------------------------------------------------
set {
	reference rhf
	basis 6-31G*
}

set_num_threads( 4 )
memory 2 gb

molecule MOL {
0 1

H	 -3.650283	 0.221984	 0.000000
C	 -2.577024	 0.154109	 0.000000
C	 -1.960329	 -1.089307	 0.000000
C	 -1.811733	 1.307557	 0.000000
H	 -2.554473	 -1.985285	 0.000000
C	 -0.581547	 -1.175855	 0.000000
H	 -2.287118	 2.271701	 0.000000
C	 -0.428719	 1.219221	 0.000000
H	 -0.090826	 -2.129898	 0.000000
C	 0.198341	 -0.021559	 0.000000
H	 0.149947	 2.124040	 0.000000
C	 1.691355	 -0.173192	 0.000000
C	 2.378338	 -0.697888	 -1.243499
O	 2.331405	 0.115784	 0.967576
H	 2.020053	 -1.691122	 -1.494297
H	 3.441898	 -0.737711	 -1.057097
H	 2.186554	 -0.051714	 -2.094062

	symmetry c1
}
set optking {
	frozen_dihedral = ("
		13 12 10 8
	")
}

ee = optimize('scf')
oeprop('DIPOLE', 'QUADRUPOLE', 'MULLIKEN_CHARGES')
f=open( 'psi4out.xyz', 'w' )
f.write( "17  " )
f.write( str(ee) + "\n" )
f.write( MOL.save_string_xyz() )
f.close()
--------------------------------------------------------------------------

    Molecular point group: c1
  Charge       = 0
  Multiplicity = 1
  Basis Set: 6-31G*
  Basis Set:
  @DF-RHF Final Energy:  -382.46635694265944
    Total Energy =                       -382.4663569426601271
    Molecular point group: c1
  Basis Set: 6-31G*
  Basis Set:
  Basis Set: 6-31G*
  Basis Set:
  @DF-RHF Final Energy:  -382.46655792832246
    Total Energy =                       -382.4665579283231409
  Basis Set: 6-31G*
  Basis Set:
  Basis Set: 6-31G*
  Basis Set:
  @DF-RHF Final Energy:  -382.46660991840201
    Total Energy =                       -382.4666099184019004
  Basis Set: 6-31G*
  Basis Set:
  Basis Set: 6-31G*
  Basis Set:
  @DF-RHF Final Energy:  -382.46760567736948
    Total Energy =                       -382.4676056773693062
  Basis Set: 6-31G*
  Basis Set:
  @DF-RHF Final Energy:  -382.46763918857221
    Total Energy =                       -382.4676391885727753
  @DF-RHF Final Energy:  -382.46764747658932
    Total Energy =                       -382.4676474765889225
  @DF-RHF Final Energy:  -382.46764999726059
    Total Energy =                       -382.4676499972611055
  @DF-RHF Final Energy:  -382.46485427093137
    Total Energy =                       -382.4648542709313688
  Basis Set: 6-31G*
  Basis Set:
  @DF-RHF Final Energy:  -382.46721919467882
    Total Energy =                       -382.4672191946791600
  Basis Set: 6-31G*
  Basis Set:
  Basis Set: 6-31G*
  Basis Set:
  @DF-RHF Final Energy:  -382.46763621461275
    Total Energy =                       -382.4676362146129804
  Basis Set: 6-31G*
  Basis Set:
  Basis Set: 6-31G*
  Basis Set:
  @DF-RHF Final Energy:  -382.46764891021706
    Total Energy =                       -382.4676489102174628
  Basis Set: 6-31G*
  Basis Set:
  Charge       = 0
  Multiplicity = 1
  Basis Set: 6-31G*
  Basis Set:

    Orbital Energies (a.u.)
    -----------------------

    Doubly Occupied:

       1A    -20.556340     2A    -11.333681     3A    -11.247238
       4A    -11.245068     5A    -11.242750     6A    -11.241795
       7A    -11.240794     8A    -11.239801     9A    -11.231258
      10A     -1.401360    11A     -1.166085    12A     -1.050684
      13A     -1.026071    14A     -0.998012    15A     -0.859424
      16A     -0.837510    17A     -0.761524    18A     -0.703103
      19A     -0.662344    20A     -0.643725    21A     -0.625270
      22A     -0.620270    23A     -0.599484    24A     -0.589607
      25A     -0.561375    26A     -0.523194    27A     -0.513153
      28A     -0.504759    29A     -0.491373    30A     -0.409640
      31A     -0.344013    32A     -0.341824

  @DF-RHF Final Energy:  -382.46764977143732

   => Energetics <=

    Nuclear Repulsion Energy =            402.7973797239145597
    One-Electron Energy =               -1316.9050043400420691
    Two-Electron Energy =                 531.6399748446904141
    DFT Exchange-Correlation Energy =       0.0000000000000000
    Empirical Dispersion Energy =           0.0000000000000000
    PCM Polarization Energy =               0.0000000000000000
    EFP Energy =                            0.0000000000000000
    Total Energy =                       -382.4676497714370953
    Molecular point group: c1
  Basis Set: 6-31G*
  Basis Set:

  -Total Gradient:
     Atom            X                  Y                   Z
    ------   -----------------  -----------------  -----------------
       1       -0.000003774040    -0.000005144514    -0.000000794221
       2        0.000003172336    -0.000016299284     0.000008733303
       3       -0.000000232921     0.000012048904     0.000034568008
       4        0.000009216139     0.000016798235    -0.000037637222
       5       -0.000001664554     0.000002452046    -0.000003034904
       6       -0.000032150867     0.000008956344    -0.000080629775
       7        0.000001047117    -0.000004432634     0.000014752209
       8       -0.000046660125    -0.000086422990    -0.003797927656
       9        0.000011464305     0.000006078866     0.000019738037
      10        0.000157253674     0.001574119372     0.004966460653
      11       -0.000003546340     0.000004924111     0.000008548447
      12       -0.000297508601    -0.004794797474     0.000167357493
      13        0.000164278930     0.003135549537    -0.001230156801
      14        0.000009864974     0.000081247875    -0.000038556592
      15       -0.000011412441     0.000017322341    -0.000009425951
      16        0.000004910164     0.000027391862    -0.000021117051
      17        0.000035742248     0.000020207405    -0.000000877974

  **** Optimization is complete! (in 12 steps) ****
    Final optimized geometry and variables:
    Molecular point group: c1

    Geometry (in Angstrom), charge = 0, multiplicity = 1:

    H           -3.640600941111     0.272323486463    -0.011127697277
    C           -2.568795278613     0.189260564156     0.009402995437
    C           -1.970091751740    -1.059892984922     0.029250689325
    C           -1.783769332211     1.331347676803     0.014154180933
    H           -2.575432401930    -1.948474140000     0.027828470137
    C           -0.589053382332    -1.166931029684     0.043446774519
    H           -2.244811906400     2.302475792564    -0.004528515476
    C           -0.403601761001     1.225346547217     0.048892269298
    H           -0.131174592444    -2.140850062236     0.049414697366
    C            0.200424410112    -0.024989612746     0.071352601091
    H            0.205621247402     2.111047105592     0.070414060653
    C            1.704573347101    -0.112651505911     0.060852993051
    C            2.348957894737    -0.640846702406    -1.201271749136
    O            2.352904729384     0.300716541199     0.972215835724
    H            1.949249027249    -1.611630597650    -1.475456548546
    H            3.419765725917    -0.707055435986    -1.065661852666
    H            2.126118017867     0.037694050213    -2.019705273239

  Mulliken Charges: (a.u.)
   Center  Symbol    Alpha    Beta     Spin     Total
       1     H     0.39650  0.39650  0.00000  0.20699
       2     C     3.09819  3.09819  0.00000 -0.19638
       3     C     3.09896  3.09896  0.00000 -0.19792
       4     C     3.09890  3.09890  0.00000 -0.19780
       5     H     0.39627  0.39627  0.00000  0.20746
       6     C     3.10509  3.10509  0.00000 -0.21018
       7     H     0.39581  0.39581  0.00000  0.20838
       8     C     3.10108  3.10108  0.00000 -0.20217
       9     H     0.39555  0.39555  0.00000  0.20890
      10     C     3.03042  3.03042  0.00000 -0.06084
      11     H     0.38883  0.38883  0.00000  0.22234
      12     C     2.74939  2.74939  0.00000  0.50122
      13     C     3.28614  3.28614  0.00000 -0.57228
      14     O     4.25075  4.25075  0.00000 -0.50150
      15     H     0.40791  0.40791  0.00000  0.18417
      16     H     0.39747  0.39747  0.00000  0.20505
      17     H     0.40272  0.40272  0.00000  0.19456

   Total alpha = 32.00000, Total beta = 32.00000, Total charge = -0.00000
