                              Psi4 1.0.54 Driver

  ==> Input File <==

--------------------------------------------------------------------------
set {
	reference rhf
	basis cc-pvtz
}

set_num_threads( 4 )
memory 2 gb

molecule MOL {
0 1

H	 3.833227	 0.453099	 -0.494481
N	 3.044995	 -0.158332	 -0.473052
C	 1.860978	 0.530248	 0.016256
H	 3.282791	 -0.924629	 0.121583
C	 0.644130	 -0.381765	 -0.031064
H	 1.689174	 1.389324	 -0.623571
H	 1.982202	 0.914429	 1.029994
C	 -0.678115	 0.376691	 0.025731
H	 0.693998	 -0.977147	 -0.936845
H	 0.693309	 -1.082142	 0.800523
C	 -1.900706	 -0.535531	 -0.022488
H	 -0.725296	 1.079516	 -0.802982
H	 -0.715474	 0.974884	 0.933278
C	 -3.220513	 0.226854	 0.028039
H	 -1.865036	 -1.134397	 -0.928236
H	 -1.857948	 -1.236381	 0.806820
H	 -3.309098	 0.911849	 -0.808725
H	 -4.066838	 -0.449485	 -0.008086
H	 -3.301685	 0.809374	 0.939860

	symmetry c1
}
set optking {
	frozen_dihedral = ("
		6 3 5 9
	")
}

ee,wfn = optimize('scf', return_wfn=True)
oeprop( wfn, 'DIPOLE', 'QUADRUPOLE', 'MULLIKEN_CHARGES')
f=open( 'psi4out.xyz', 'w' )
f.write( "19  " )
f.write( str(ee) + "\n" )
f.write( MOL.save_string_xyz() )
f.close()
--------------------------------------------------------------------------

    Molecular point group: c1
  Charge       = 0
  Multiplicity = 1
  Basis Set: CC-PVTZ
  Basis Set:
  @DF-RHF Final Energy:  -251.44693121012833
    Total Energy =                       -251.4469312101281275
    Molecular point group: c1
  Basis Set: CC-PVTZ
  Basis Set:
  Basis Set: CC-PVTZ
  Basis Set:
  @DF-RHF Final Energy:  -251.44708186696420
    Total Energy =                       -251.4470818669643108
  Basis Set: CC-PVTZ
  Basis Set:
  Basis Set: CC-PVTZ
  Basis Set:
  @DF-RHF Final Energy:  -251.44710953403813
    Total Energy =                       -251.4471095340379065
  Basis Set: CC-PVTZ
  Basis Set:
  Charge       = 0
  Multiplicity = 1
  Basis Set: CC-PVTZ
  Basis Set:

    Orbital Energies (a.u.)
    -----------------------

    Doubly Occupied:

       1A    -15.526966     2A    -11.237833     3A    -11.211888
       4A    -11.210742     5A    -11.207574     6A    -11.205417
       7A     -1.178419     8A     -1.074310     9A     -0.999474
      10A     -0.900991    11A     -0.813634    12A     -0.790235
      13A     -0.661155    14A     -0.648022    15A     -0.616083
      16A     -0.592645    17A     -0.562095    18A     -0.548840
      19A     -0.534817    20A     -0.495746    21A     -0.480833
      22A     -0.465192    23A     -0.460670    24A     -0.452065
      25A     -0.383547

  @DF-RHF Final Energy:  -251.44711046813524

   => Energetics <=

    Nuclear Repulsion Energy =            246.0051806376323498
    One-Electron Energy =                -826.3861944090513134
    Two-Electron Energy =                 328.9339033032837278
    DFT Exchange-Correlation Energy =       0.0000000000000000
    Empirical Dispersion Energy =           0.0000000000000000
    PCM Polarization Energy =               0.0000000000000000
    EFP Energy =                            0.0000000000000000
    Total Energy =                       -251.4471104681352926
    Molecular point group: c1
  Basis Set: CC-PVTZ
  Basis Set:

  -Total Gradient:
     Atom            X                  Y                   Z
    ------   -----------------  -----------------  -----------------
       1        0.000014434585     0.000033528204     0.000000698015
       2       -0.000004573931    -0.000049321180    -0.000055580314
       3        0.001962793577    -0.002517743143    -0.002844393195
       4        0.000001541165     0.000002729106     0.000027557728
       5       -0.002382235109     0.003331803889    -0.001268147165
       6       -0.001292825298     0.001583673955     0.002621083091
       7       -0.000003516228     0.000019347245     0.000014353516
       8        0.000004692394     0.000021914308    -0.000051434265
       9        0.001667211951    -0.002387449323     0.001562671392
      10        0.000025332564    -0.000028960613     0.000001136244
      11        0.000011929622    -0.000007206685    -0.000023108071
      12       -0.000000622551     0.000001570906    -0.000005434688
      13        0.000015004928    -0.000004665713    -0.000010596022
      14       -0.000015461356    -0.000002325624     0.000028174798
      15        0.000002003258     0.000007955900    -0.000010308293
      16        0.000005479467    -0.000010310222    -0.000001956623
      17        0.000005367196    -0.000007658967    -0.000001762048
      18       -0.000010090541    -0.000001637821     0.000010644272
      19       -0.000006465697     0.000014755782     0.000006401631

  **** Optimization is complete! (in 4 steps) ****
    Final optimized geometry and variables:
    Molecular point group: c1

    Geometry (in Angstrom), charge = 0, multiplicity = 1:

    H            3.856949263609     0.424132074964    -0.402461423804
    N            3.059242057186    -0.174569257214    -0.437951266297
    C            1.870528436000     0.511972950692     0.040210034830
    H            3.263825195557    -0.968393686666     0.132987586792
    C            0.644549490117    -0.390831976541    -0.024683370957
    H            1.706426422223     1.390767851879    -0.574471632889
    H            1.978483368614     0.882030199618     1.061310773360
    C           -0.673337925130     0.366469106843     0.090075543337
    H            0.684444302401    -0.962669027999    -0.946037112956
    H            0.706538328584    -1.123654242719     0.778307812522
    C           -1.896613868560    -0.545724891143     0.102561895836
    H           -0.757384560301     1.065809470025    -0.738114543697
    H           -0.667880872341     0.967970815017     0.996588455926
    C           -3.212826284177     0.217426775171     0.206911074293
    H           -1.900953631116    -1.150198212421    -0.800206642982
    H           -1.817029888792    -1.241057537097     0.933714559201
    H           -3.339574900599     0.895321027317    -0.630669709224
    H           -4.059849068311    -0.459004892794     0.215245689340
    H           -3.252228761120     0.807572291905     1.116625455372

  Mulliken Charges: (a.u.)
   Center  Symbol    Alpha    Beta     Spin     Total
       1     H     0.43062  0.43062  0.00000  0.13877
       2     N     3.68712  3.68712  0.00000 -0.37424
       3     C     3.02607  3.02607  0.00000 -0.05215
       4     H     0.43111  0.43111  0.00000  0.13779
       5     C     3.08571  3.08571  0.00000 -0.17142
       6     H     0.45898  0.45898  0.00000  0.08203
       7     H     0.46847  0.46847  0.00000  0.06307
       8     C     3.09133  3.09133  0.00000 -0.18266
       9     H     0.44866  0.44866  0.00000  0.10269
      10     H     0.45980  0.45980  0.00000  0.08040
      11     C     3.08353  3.08353  0.00000 -0.16705
      12     H     0.45382  0.45382  0.00000  0.09236
      13     H     0.45669  0.45669  0.00000  0.08662
      14     C     3.15003  3.15003  0.00000 -0.30006
      15     H     0.45371  0.45371  0.00000  0.09258
      16     H     0.45504  0.45504  0.00000  0.08992
      17     H     0.45505  0.45505  0.00000  0.08991
      18     H     0.44857  0.44857  0.00000  0.10285
      19     H     0.45570  0.45570  0.00000  0.08861

   Total alpha = 25.00000, Total beta = 25.00000, Total charge =  0.00000

*** Psi4 exiting successfully. Buy a developer a beer!
