  ==> Input File <==

--------------------------------------------------------------------------
set {
	reference rhf
	basis 6-31G*
}

set_num_threads( 4 )
memory 2 gb

molecule MOL {
0 1

H	 -2.547412	 -0.733849	 0.266986
O	 -2.264925	 -0.068557	 0.878521
C	 -1.142126	 0.597479	 0.365972
C	 0.103798	 -0.264583	 0.466915
H	 -1.292947	 0.902546	 -0.665796
H	 -1.010590	 1.492444	 0.957737
O	 1.171513	 0.459272	 -0.058250
H	 -0.038319	 -1.194659	 -0.086928
H	 0.281748	 -0.529009	 1.507586
C	 2.397842	 -0.198080	 -0.002151
H	 2.508049	 -0.905315	 -0.822092
H	 3.173794	 0.550865	 -0.078850
H	 2.517602	 -0.735921	 0.936026

	symmetry c1
}
set optking {
	frozen_dihedral = ("
		4 7 10 13
	")
}

ee = optimize('scf')
oeprop('DIPOLE', 'QUADRUPOLE', 'MULLIKEN_CHARGES')
f=open( 'psi4out.xyz', 'w' )
f.write( "13  " )
f.write( str(ee) + "\n" )
f.write( MOL.save_string_xyz() )
f.close()
--------------------------------------------------------------------------

    Molecular point group: c1
  Charge       = 0
  Multiplicity = 1
  Basis Set: 6-31G*
  Basis Set:
  @DF-RHF Final Energy:  -267.94957909413392
    Total Energy =                       -267.9495790941336963
    Molecular point group: c1
  Basis Set: 6-31G*
  Basis Set:
  Basis Set: 6-31G*
  Basis Set:
  @DF-RHF Final Energy:  -267.94962403749736
    Total Energy =                       -267.9496240374973013
  Basis Set: 6-31G*
  Basis Set:
  Basis Set: 6-31G*
  Basis Set:
  @DF-RHF Final Energy:  -267.94963932359929
    Total Energy =                       -267.9496393235989444
  Basis Set: 6-31G*
  Basis Set:
  Charge       = 0
  Multiplicity = 1
  Basis Set: 6-31G*
  Basis Set:

    Orbital Energies (a.u.)
    -----------------------

    Doubly Occupied:

       1A    -20.561488     2A    -20.560120     3A    -11.271100
       4A    -11.270228     5A    -11.268879     6A     -1.387640
       7A     -1.365004     8A     -1.018529     9A     -0.913458
      10A     -0.841896    11A     -0.709507    12A     -0.673033
      13A     -0.659991    14A     -0.637697    15A     -0.594933
      16A     -0.570891    17A     -0.544985    18A     -0.490362
      19A     -0.481642    20A     -0.438347    21A     -0.420379

  @DF-RHF Final Energy:  -267.94963942880713

   => Energetics <=

    Nuclear Repulsion Energy =            190.1487823787744844
    One-Electron Energy =                -742.8366205795400674
    Two-Electron Energy =                 284.7381987719587642
    DFT Exchange-Correlation Energy =       0.0000000000000000
    Empirical Dispersion Energy =           0.0000000000000000
    PCM Polarization Energy =               0.0000000000000000
    EFP Energy =                            0.0000000000000000
    Total Energy =                       -267.9496394288067904
    Molecular point group: c1
  Basis Set: 6-31G*
  Basis Set:

  -Total Gradient:
     Atom            X                  Y                   Z
    ------   -----------------  -----------------  -----------------
       1        0.000006426035     0.000006619648    -0.000001009094
       2       -0.000034096076     0.000008552070     0.000026602372
       3       -0.000009752916    -0.000033878883    -0.000009372123
       4        0.000349158479     0.000844272199     0.001892698179
       5        0.000014895322     0.000002054408     0.000004720112
       6       -0.000011466909    -0.000000943644     0.000001336656
       7       -0.000767765110    -0.001819800681    -0.003015423869
       8       -0.000000456921     0.000000181821     0.000003539067
       9        0.000002148386     0.000005620101    -0.000009789043
      10        0.001557459604     0.003135498807     0.002203359561
      11       -0.000003408598    -0.000007779425    -0.000001808664
      12        0.000001328598     0.000000265304     0.000002169856
      13       -0.001104469887    -0.002140661725    -0.001097023010

  **** Optimization is complete! (in 4 steps) ****
    Final optimized geometry and variables:
    Molecular point group: c1

    Geometry (in Angstrom), charge = 0, multiplicity = 1:

    H           -2.584447147743    -0.818663970066    -0.066114925526
    O           -2.299596299661    -0.154911726718     0.545983432752
    C           -1.174885604148     0.508354934824     0.033573144675
    C            0.069051900395    -0.356516851308     0.135092972377
    H           -1.324987054700     0.813582741367    -0.998139706801
    H           -1.040777304536     1.403080298842     0.625131329983
    O            1.139496581492     0.368877735382    -0.383366432655
    H           -0.075658770926    -1.285097460970    -0.420897702105
    H            0.244700920198    -0.622713202330     1.175166817580
    C            2.371907957275    -0.280759647528    -0.330818963618
    H            2.472107457231    -0.994037942617    -1.146801941149
    H            3.147902422286     0.466632854272    -0.421317446218
    H            2.497854631627    -0.823532170982     0.602849939082

  Mulliken Charges: (a.u.)
   Center  Symbol    Alpha    Beta     Spin     Total
       1     H     0.28125  0.28125  0.00000  0.43749
       2     O     4.37091  4.37091  0.00000 -0.74181
       3     C     3.00475  3.00475  0.00000 -0.00951
       4     C     2.99659  2.99659  0.00000  0.00681
       5     H     0.42228  0.42228  0.00000  0.15543
       6     H     0.40843  0.40843  0.00000  0.18314
       7     O     4.30881  4.30881  0.00000 -0.61762
       8     H     0.43790  0.43790  0.00000  0.12420
       9     H     0.42269  0.42269  0.00000  0.15463
      10     C     3.07877  3.07877  0.00000 -0.15755
      11     H     0.42735  0.42735  0.00000  0.14531
      12     H     0.41147  0.41147  0.00000  0.17706
      13     H     0.42879  0.42879  0.00000  0.14242

   Total alpha = 21.00000, Total beta = 21.00000, Total charge = -0.00000
