                              Psi4 1.0.54 Driver

  ==> Input File <==

--------------------------------------------------------------------------
set {
	reference rhf
	basis cc-pvtz
}

set_num_threads( 4 )
memory 2 gb

molecule MOL {
0 1

H	 1.571029	 -1.217956	 -0.776939
O	 1.583947	 -0.677544	 -0.001533
C	 0.489979	 0.078084	 0.002623
C	 -0.763662	 -0.754014	 0.000816
O	 0.539051	 1.259395	 -0.000088
C	 -2.038001	 0.074705	 -0.000833
H	 -0.712945	 -1.405886	 -0.864342
H	 -0.715137	 -1.405770	 0.866182
H	 -2.087267	 0.710831	 -0.874232
H	 -2.903419	 -0.576199	 -0.001922
H	 -2.089467	 0.710909	 0.872389

	symmetry c1
}
set optking {
	frozen_dihedral = ("
		1 2 3 5
	")
}

ee,wfn = optimize('scf', return_wfn=True)
oeprop( wfn, 'DIPOLE', 'QUADRUPOLE', 'MULLIKEN_CHARGES')
f=open( 'psi4out.xyz', 'w' )
f.write( "11  " )
f.write( str(ee) + "\n" )
f.write( MOL.save_string_xyz() )
f.close()
--------------------------------------------------------------------------

    Molecular point group: c1
  Charge       = 0
  Multiplicity = 1
  Basis Set: CC-PVTZ
  Basis Set:
  @DF-RHF Final Energy:  -266.93386342496751
    Total Energy =                       -266.9338634249674556
    Molecular point group: c1
  Basis Set: CC-PVTZ
  Basis Set:
  Basis Set: CC-PVTZ
  Basis Set:
  @DF-RHF Final Energy:  -266.93521863313504
    Total Energy =                       -266.9352186331350367
  Basis Set: CC-PVTZ
  Basis Set:
  Basis Set: CC-PVTZ
  Basis Set:
  @DF-RHF Final Energy:  -266.93473330580900
    Total Energy =                       -266.9347333058088907
  Basis Set: CC-PVTZ
  Basis Set:
  Basis Set: CC-PVTZ
  Basis Set:
  @DF-RHF Final Energy:  -266.93539656126467
    Total Energy =                       -266.9353965612645538
  Basis Set: CC-PVTZ
  Basis Set:
  Basis Set: CC-PVTZ
  Basis Set:
  @DF-RHF Final Energy:  -266.93540712873460
    Total Energy =                       -266.9354071287347665
  Basis Set: CC-PVTZ
  Basis Set:
  Charge       = 0
  Multiplicity = 1
  Basis Set: CC-PVTZ
  Basis Set:

    Orbital Energies (a.u.)
    -----------------------

    Doubly Occupied:

       1A    -20.591778     2A    -20.548275     3A    -11.374665
       4A    -11.248988     5A    -11.222323     6A     -1.465971
       7A     -1.373539     8A     -1.067271     9A     -0.909888
      10A     -0.818808    11A     -0.717614    12A     -0.673342
      13A     -0.662626    14A     -0.617734    15A     -0.577273
      16A     -0.532974    17A     -0.523085    18A     -0.507763
      19A     -0.492589    20A     -0.448677

  @DF-RHF Final Energy:  -266.93540764736701

   => Energetics <=

    Nuclear Repulsion Energy =            179.5653199005012937
    One-Electron Energy =                -720.2510936868454792
    Two-Electron Energy =                 273.7503661389771423
    DFT Exchange-Correlation Energy =       0.0000000000000000
    Empirical Dispersion Energy =           0.0000000000000000
    PCM Polarization Energy =               0.0000000000000000
    EFP Energy =                            0.0000000000000000
    Total Energy =                       -266.9354076473670148
    Molecular point group: c1
  Basis Set: CC-PVTZ
  Basis Set:

  -Total Gradient:
     Atom            X                  Y                   Z
    ------   -----------------  -----------------  -----------------
       1        0.002620158276     0.004178565999    -0.002713561992
       2       -0.003398834114    -0.005227210632     0.001256661359
       3        0.000818076726     0.000929035585     0.006340556080
       4        0.000070553679     0.000017243497     0.000056870446
       5       -0.000091514424     0.000109681435    -0.004897613152
       6       -0.000012315461     0.000014271462    -0.000015606874
       7        0.000002671599    -0.000001119775    -0.000019474254
       8       -0.000010575048    -0.000010911518    -0.000021796822
       9        0.000006692957    -0.000007394436     0.000011740106
      10       -0.000004294511    -0.000000262982     0.000003969125
      11       -0.000000619677    -0.000001898637    -0.000001744023

  **** Optimization is complete! (in 6 steps) ****
    Final optimized geometry and variables:
    Molecular point group: c1

    Geometry (in Angstrom), charge = 0, multiplicity = 1:

    H            1.682937245000    -1.190207587580    -0.794704412867
    O            1.632426560451    -0.648608775744    -0.025335091030
    C            0.495697367687     0.085249649774     0.002573080521
    C           -0.769533836292    -0.736895398491     0.021732579046
    O            0.536381422643     1.257861788881     0.027444600546
    C           -2.040876123139     0.096298670340     0.027487651848
    H           -0.745346788210    -1.402711527323    -0.837204995686
    H           -0.713411733264    -1.380442545179     0.893189182994
    H           -2.098619834356     0.724333278482    -0.851451564305
    H           -2.910253744607    -0.549293483937     0.045364895254
    H           -2.074975419557     0.741456945255     0.894633361777

  Mulliken Charges: (a.u.)
   Center  Symbol    Alpha    Beta     Spin     Total
       1     H     0.38905  0.38905  0.00000  0.22190
       2     O     4.16439  4.16439  0.00000 -0.32878
       3     C     2.80517  2.80517  0.00000  0.38967
       4     C     3.10739  3.10739  0.00000 -0.21479
       5     O     4.16201  4.16201  0.00000 -0.32402
       6     C     3.13942  3.13942  0.00000 -0.27884
       7     H     0.45242  0.45242  0.00000  0.09516
       8     H     0.43698  0.43698  0.00000  0.12604
       9     H     0.44813  0.44813  0.00000  0.10375
      10     H     0.45020  0.45020  0.00000  0.09960
      11     H     0.44484  0.44484  0.00000  0.11031

   Total alpha = 20.00000, Total beta = 20.00000, Total charge = -0.00000

*** Psi4 exiting successfully. Buy a developer a beer!
