  ==> Input File <==

--------------------------------------------------------------------------
set {
	reference rhf
	basis 6-31G*
}

set_num_threads( 1 )
memory 2 gb

molecule MOL {
0 1

O	 0.625848	 1.349995	 -0.000749
C	 0.486307	 0.169203	 0.000779
C	 1.608116	 -0.841643	 0.000302
O	 -0.698257	 -0.426125	 0.001050
C	 2.990107	 -0.200498	 -0.000684
H	 1.468623	 -1.481519	 -0.865924
H	 1.469683	 -1.481289	 0.866878
H	 3.129736	 0.423364	 -0.875135
H	 3.757882	 -0.966877	 -0.001197
H	 3.130964	 0.423383	 0.873533
C	 -0.718990	 -1.849842	 0.000857
C	 -2.169868	 -2.282577	 0.003147
H	 -0.193024	 -2.210165	 0.874419
H	 -0.195703	 -2.209998	 -0.874385
H	 -2.681266	 -1.909414	 0.883136
H	 -2.232240	 -3.365978	 0.003193
H	 -2.684047	 -1.909342	 -0.875245

	symmetry c1
}
set optking {
	frozen_dihedral = ("
		2 4 11 13,
		4 2 3 6
	")
}

ee = energy('scf')
oeprop('DIPOLE', 'QUADRUPOLE', 'MULLIKEN_CHARGES')
f=open( 'psi4out.xyz', 'w' )
f.write( "17  " )
f.write( str(ee) + "\n" )
f.write( MOL.save_string_xyz() )
f.close()
--------------------------------------------------------------------------

    Molecular point group: c1

    Geometry (in Angstrom), charge = 0, multiplicity = 1:

       Center              X                  Y                   Z               Mass
    ------------   -----------------  -----------------  -----------------  -----------------
           O          0.329973016121     1.938718039264    -0.001405150592    15.994914619560
           C          0.190432016121     0.757926039264     0.000122849408    12.000000000000
           C          1.312241016121    -0.252919960736    -0.000354150592    12.000000000000
           O         -0.994131983879     0.162598039264     0.000393849408    15.994914619560
           C          2.694232016121     0.388225039264    -0.001340150592    12.000000000000
           H          1.172748016121    -0.892795960736    -0.866580150592     1.007825032070
           H          1.173808016121    -0.892565960736     0.866221849408     1.007825032070
           H          2.833861016121     1.012087039264    -0.875791150592     1.007825032070
           H          3.462007016121    -0.378153960736    -0.001853150592     1.007825032070
           H          2.835089016121     1.012106039264     0.872876849408     1.007825032070
           C         -1.014864983879    -1.261118960736     0.000200849408    12.000000000000
           C         -2.465742983879    -1.693853960736     0.002490849408    12.000000000000
           H         -0.488898983879    -1.621441960736     0.873762849408     1.007825032070
           H         -0.491577983879    -1.621274960736    -0.875041150592     1.007825032070
           H         -2.977140983879    -1.320690960736     0.882479849408     1.007825032070
           H         -2.528114983879    -2.777254960736     0.002536849408     1.007825032070
           H         -2.979921983879    -1.320618960736    -0.875901150592     1.007825032070

  Charge       = 0
  Multiplicity = 1
  Basis Set: 6-31G*
  Basis Set:

    Orbital Energies (a.u.)
    -----------------------

    Doubly Occupied:

       1A    -20.605866     2A    -20.541310     3A    -11.373420
       4A    -11.301218     5A    -11.243534     6A    -11.230050
       7A    -11.219007     8A     -1.467097     9A     -1.367669
      10A     -1.064978    11A     -1.051683    12A     -0.907874
      13A     -0.886904    14A     -0.766924    15A     -0.709517
      16A     -0.709026    17A     -0.657607    18A     -0.628382
      19A     -0.592285    20A     -0.579901    21A     -0.561023
      22A     -0.545100    23A     -0.527944    24A     -0.519442
      25A     -0.507780    26A     -0.505998    27A     -0.444911
      28A     -0.428206

  @DF-RHF Final Energy:  -344.88402212571907

   => Energetics <=

    Nuclear Repulsion Energy =            318.9862839003443469
    One-Electron Energy =               -1101.8512822991756366
    Two-Electron Energy =                 437.9809762731134697
    DFT Exchange-Correlation Energy =       0.0000000000000000
    Empirical Dispersion Energy =           0.0000000000000000
    PCM Polarization Energy =               0.0000000000000000
    EFP Energy =                            0.0000000000000000
    Total Energy =                       -344.8840221257178200

  Mulliken Charges: (a.u.)
   Center  Symbol    Alpha    Beta     Spin     Total
       1     O     4.27515  4.27515  0.00000 -0.55029
       2     C     2.59004  2.59004  0.00000  0.81993
       3     C     3.24243  3.24243  0.00000 -0.48487
       4     O     4.30450  4.30450  0.00000 -0.60900
       5     C     3.23226  3.23226  0.00000 -0.46452
       6     H     0.40219  0.40219  0.00000  0.19562
       7     H     0.40222  0.40222  0.00000  0.19557
       8     H     0.40827  0.40827  0.00000  0.18347
       9     H     0.41979  0.41979  0.00000  0.16042
      10     H     0.40829  0.40829  0.00000  0.18341
      11     C     3.01126  3.01126  0.00000 -0.02253
      12     C     3.24176  3.24176  0.00000 -0.48352
      13     H     0.41530  0.41530  0.00000  0.16941
      14     H     0.41526  0.41526  0.00000  0.16947
      15     H     0.40696  0.40696  0.00000  0.18608
      16     H     0.41736  0.41736  0.00000  0.16527
      17     H     0.40695  0.40695  0.00000  0.18609

   Total alpha = 28.00000, Total beta = 28.00000, Total charge =  0.00000
