  ==> Input File <==

--------------------------------------------------------------------------
set {
	reference rhf
	basis cc-pvtz
}

set_num_threads( 4 )
memory 2 gb

molecule MOL {
0 1

O	 0.749630	 1.305591	 -0.000460
C	 0.576499	 0.134701	 -0.003900
C	 -0.765656	 -0.550508	 -0.002152
O	 1.564816	 -0.744612	 -0.000631
C	 -1.945526	 0.411052	 0.000603
H	 -0.794329	 -1.203792	 -0.868145
H	 -0.791555	 -1.205429	 0.862701
C	 -3.134677	 -0.141610	 0.778683
H	 -2.237718	 0.621008	 -1.021129
H	 -1.633941	 1.357655	 0.425146
H	 -3.485734	 -1.075582	 0.352344
H	 -3.962151	 0.557407	 0.767548
H	 -2.875280	 -0.329641	 1.815353
C	 2.884339	 -0.237801	 0.002883
H	 3.064150	 0.362814	 -0.876312
H	 3.533055	 -1.098529	 0.004958
H	 3.059365	 0.363432	 0.882614

	symmetry c1
}
set optking {
	frozen_dihedral = ("
		9 5 3 6
	")
}

ee = optimize('scf')
oeprop('DIPOLE', 'QUADRUPOLE', 'MULLIKEN_CHARGES')
f=open( 'psi4out.xyz', 'w' )
f.write( "17  " )
f.write( str(ee) + "\n" )
f.write( MOL.save_string_xyz() )
f.close()
--------------------------------------------------------------------------

    Molecular point group: c1
  Charge       = 0
  Multiplicity = 1
  Basis Set: CC-PVTZ
  Basis Set:
  @DF-RHF Final Energy:  -345.03231928579692
    Total Energy =                       -345.0323192857967456
    Molecular point group: c1
  Basis Set: CC-PVTZ
  Basis Set:
  Basis Set: CC-PVTZ
  Basis Set:
  @DF-RHF Final Energy:  -345.03246761690690
    Total Energy =                       -345.0324676169070131
  Basis Set: CC-PVTZ
  Basis Set:
  Basis Set: CC-PVTZ
  Basis Set:
  @DF-RHF Final Energy:  -345.03094211503998
    Total Energy =                       -345.0309421150399771
  Basis Set: CC-PVTZ
  Basis Set:
  Basis Set: CC-PVTZ
  Basis Set:
  @DF-RHF Final Energy:  -345.03265263594028
    Total Energy =                       -345.0326526359406216
  Basis Set: CC-PVTZ
  Basis Set:
  Basis Set: CC-PVTZ
  Basis Set:
  @DF-RHF Final Energy:  -345.03266428688607
    Total Energy =                       -345.0326642868857903
  Basis Set: CC-PVTZ
  Basis Set:
  Basis Set: CC-PVTZ
  Basis Set:
  @DF-RHF Final Energy:  -345.03266785034850
    Total Energy =                       -345.0326678503486164
  Basis Set: CC-PVTZ
  Basis Set:
  Charge       = 0
  Multiplicity = 1
  Basis Set: CC-PVTZ
  Basis Set:

    Orbital Energies (a.u.)
    -----------------------

    Doubly Occupied:

       1A    -20.596625     2A    -20.534811     3A    -11.365184
       4A    -11.278778     5A    -11.234571     6A    -11.219267
       7A    -11.212197     8A     -1.472760     9A     -1.366305
      10A     -1.080073    11A     -1.002579    12A     -0.939799
      13A     -0.827997    14A     -0.768936    15A     -0.702419
      16A     -0.686258    17A     -0.676481    18A     -0.635580
      19A     -0.598979    20A     -0.573915    21A     -0.570984
      22A     -0.530385    23A     -0.524949    24A     -0.494924
      25A     -0.487261    26A     -0.478040    27A     -0.460869
      28A     -0.441826

  @DF-RHF Final Energy:  -345.03266797574190

   => Energetics <=

    Nuclear Repulsion Energy =            313.0765848132972451
    One-Electron Energy =               -1090.6930014119229781
    Two-Electron Energy =                 432.5837486228842863
    DFT Exchange-Correlation Energy =       0.0000000000000000
    Empirical Dispersion Energy =           0.0000000000000000
    PCM Polarization Energy =               0.0000000000000000
    EFP Energy =                            0.0000000000000000
    Total Energy =                       -345.0326679757414468
    Molecular point group: c1
  Basis Set: CC-PVTZ
  Basis Set:

  -Total Gradient:
     Atom            X                  Y                   Z
    ------   -----------------  -----------------  -----------------
       1        0.000002501435     0.000013296023    -0.000004099491
       2        0.000005319796    -0.000029856632     0.000004934271
       3       -0.003147225793    -0.003845451795     0.002472000521
       4       -0.000014809642     0.000012160896     0.000002376276
       5        0.003431399965     0.004235280457    -0.000571123064
       6        0.002063155155     0.002521910125    -0.001945899769
       7        0.000001688762    -0.000006063855    -0.000001260640
       8        0.000007938469    -0.000002025287    -0.000007126342
       9       -0.002362032354    -0.002903301250     0.000056613719
      10        0.000001377988     0.000002202208    -0.000000920589
      11       -0.000002602974    -0.000002105866    -0.000000432751
      12        0.000003710144     0.000002001160    -0.000001247138
      13        0.000002934610     0.000000494576    -0.000000778049
      14        0.000010132477     0.000002664292    -0.000003789455
      15       -0.000000108410    -0.000000356891     0.000000608961
      16       -0.000001357843    -0.000000055565     0.000000248903
      17       -0.000002021785    -0.000000792600    -0.000000105363

  **** Optimization is complete! (in 7 steps) ****
    Final optimized geometry and variables:
    Molecular point group: c1

    Geometry (in Angstrom), charge = 0, multiplicity = 1:

    O            0.748841040890     1.283848799098    -0.119976659487
    C            0.562530380482     0.115132814758    -0.105212085283
    C           -0.784559100907    -0.566871645407    -0.075808204625
    O            1.543291871068    -0.773003142541    -0.115036923056
    C           -1.972017423209     0.396453228595    -0.087775847144
    H           -0.798424904561    -1.222097776381    -0.939629031379
    H           -0.794144037175    -1.206953320469     0.799147126305
    C           -3.188548597392    -0.181050876013     0.631963362191
    H           -2.252046080709     0.604349829337    -1.114177935229
    H           -1.684607782279     1.335017429777     0.363325785983
    H           -3.498509106220    -1.123915091393     0.192871534698
    H           -4.029557422999     0.499885957205     0.576995783089
    H           -2.975218438871    -0.359901401564     1.680587852870
    C            2.866928312920    -0.278542008205    -0.143056651470
    H            3.034272184128     0.313001629259    -1.030902302555
    H            3.508206415125    -1.144930576192    -0.146782517227
    H            3.065825685690     0.328621968268     0.727580911413

  Mulliken Charges: (a.u.)
   Center  Symbol    Alpha    Beta     Spin     Total
       1     O     4.19603  4.19603  0.00000 -0.39206
       2     C     2.80368  2.80368  0.00000  0.39264
       3     C     3.10038  3.10038  0.00000 -0.20076
       4     O     4.14768  4.14768  0.00000 -0.29537
       5     C     3.08365  3.08365  0.00000 -0.16729
       6     H     0.43824  0.43824  0.00000  0.12351
       7     H     0.44046  0.44046  0.00000  0.11908
       8     C     3.14997  3.14997  0.00000 -0.29994
       9     H     0.45262  0.45262  0.00000  0.09476
      10     H     0.43806  0.43806  0.00000  0.12387
      11     H     0.45575  0.45575  0.00000  0.08849
      12     H     0.44698  0.44698  0.00000  0.10604
      13     H     0.45553  0.45553  0.00000  0.08894
      14     C     3.03678  3.03678  0.00000 -0.07355
      15     H     0.45438  0.45438  0.00000  0.09124
      16     H     0.44542  0.44542  0.00000  0.10916
      17     H     0.45438  0.45438  0.00000  0.09124

   Total alpha = 28.00000, Total beta = 28.00000, Total charge =  0.00000
