  ==> Input File <==

--------------------------------------------------------------------------
set {
	reference rhf
	basis 6-31G*
}

set_num_threads( 1 )
memory 2 gb

molecule MOL {
0 1

H	 -4.241418	 0.509019	 0.089437
O	 -3.520048	 -0.043603	 -0.175403
C	 -2.310112	 0.513431	 0.269973
C	 -1.177863	 -0.397191	 -0.171080
H	 -2.170930	 1.510122	 -0.146612
H	 -2.309391	 0.610492	 1.354832
C	 0.198102	 0.111031	 0.262842
H	 -1.217678	 -0.492862	 -1.252741
H	 -1.357470	 -1.388113	 0.236708
C	 1.331804	 -0.827780	 -0.158768
H	 0.361943	 1.100838	 -0.156218
H	 0.217265	 0.229072	 1.345532
C	 2.723619	 -0.410569	 0.329459
H	 1.342964	 -0.912588	 -1.244120
H	 1.116806	 -1.824343	 0.220779
C	 3.243875	 0.895854	 -0.272975
H	 3.424222	 -1.207124	 0.091250
H	 2.714788	 -0.329854	 1.414619
H	 3.251977	 0.848779	 -1.358681
H	 2.637085	 1.747371	 0.016682
H	 4.259473	 1.094070	 0.055697

	symmetry c1
}
set optking {
	frozen_dihedral = ("
		2 3 4 8,
		4 7 10 14,
		16 13 10 14,
		1 2 3 5
	")
}

ee = energy('scf')
oeprop('DIPOLE', 'QUADRUPOLE', 'MULLIKEN_CHARGES')
f=open( 'psi4out.xyz', 'w' )
f.write( "21  " )
f.write( str(ee) + "\n" )
f.write( MOL.save_string_xyz() )
f.close()
--------------------------------------------------------------------------

    Molecular point group: c1

    Geometry (in Angstrom), charge = 0, multiplicity = 1:

       Center              X                  Y                   Z               Mass
    ------------   -----------------  -----------------  -----------------  -----------------
           H         -4.240465063637     0.514636166552     0.079836630711     1.007825032070
           O         -3.519095063637    -0.037985833448    -0.185003369289    15.994914619560
           C         -2.309159063637     0.519048166552     0.260372630711    12.000000000000
           C         -1.176910063637    -0.391573833448    -0.180680369289    12.000000000000
           H         -2.169977063637     1.515739166552    -0.156212369289     1.007825032070
           H         -2.308438063637     0.616109166552     1.345231630711     1.007825032070
           C          0.199054936363     0.116648166552     0.253241630711    12.000000000000
           H         -1.216725063637    -0.487244833448    -1.262341369289     1.007825032070
           H         -1.356517063637    -1.382495833448     0.227107630711     1.007825032070
           C          1.332756936363    -0.822162833448    -0.168368369289    12.000000000000
           H          0.362895936363     1.106455166552    -0.165818369289     1.007825032070
           H          0.218217936363     0.234689166552     1.335931630711     1.007825032070
           C          2.724571936363    -0.404951833448     0.319858630711    12.000000000000
           H          1.343916936363    -0.906970833448    -1.253720369289     1.007825032070
           H          1.117758936363    -1.818725833448     0.211178630711     1.007825032070
           C          3.244827936363     0.901471166552    -0.282575369289    12.000000000000
           H          3.425174936363    -1.201506833448     0.081649630711     1.007825032070
           H          2.715740936363    -0.324236833448     1.405018630711     1.007825032070
           H          3.252929936363     0.854396166552    -1.368281369289     1.007825032070
           H          2.638037936363     1.752988166552     0.007081630711     1.007825032070
           H          4.260425936363     1.099687166552     0.046096630711     1.007825032070

  Charge       = 0
  Multiplicity = 1
  Basis Set: 6-31G*
  Basis Set:

    Orbital Energies (a.u.)
    -----------------------

    Doubly Occupied:

       1A    -20.551845     2A    -11.267063     3A    -11.215699
       4A    -11.215155     5A    -11.213594     6A    -11.210673
       7A    -11.208197     8A     -1.358669     9A     -1.086256
      10A     -1.033210    11A     -0.954419    12A     -0.875674
      13A     -0.807188    14A     -0.779054    15A     -0.692442
      16A     -0.661551    17A     -0.621999    18A     -0.607335
      19A     -0.586785    20A     -0.569027    21A     -0.536785
      22A     -0.519677    23A     -0.510701    24A     -0.487090
      25A     -0.479406    26A     -0.460559    27A     -0.455934
      28A     -0.443147    29A     -0.433986

  @DF-RHF Final Energy:  -310.21282996717861

   => Energetics <=

    Nuclear Repulsion Energy =            312.4334198350210841
    One-Electron Energy =               -1039.6062661340024533
    Two-Electron Energy =                 416.9600163318027626
    DFT Exchange-Correlation Energy =       0.0000000000000000
    Empirical Dispersion Energy =           0.0000000000000000
    PCM Polarization Energy =               0.0000000000000000
    EFP Energy =                            0.0000000000000000
    Total Energy =                       -310.2128299671785499

  Mulliken Charges: (a.u.)
   Center  Symbol    Alpha    Beta     Spin     Total
       1     H     0.28118  0.28118  0.00000  0.43765
       2     O     4.37179  4.37179  0.00000 -0.74358
       3     C     2.98972  2.98972  0.00000  0.02056
       4     C     3.15897  3.15897  0.00000 -0.31793
       5     H     0.43295  0.43295  0.00000  0.13409
       6     H     0.43285  0.43285  0.00000  0.13429
       7     C     3.16189  3.16189  0.00000 -0.32379
       8     H     0.41473  0.41473  0.00000  0.17054
       9     H     0.41487  0.41487  0.00000  0.17026
      10     C     3.15177  3.15177  0.00000 -0.30355
      11     H     0.42140  0.42140  0.00000  0.15720
      12     H     0.42422  0.42422  0.00000  0.15155
      13     C     3.15251  3.15251  0.00000 -0.30502
      14     H     0.42298  0.42298  0.00000  0.15403
      15     H     0.42097  0.42097  0.00000  0.15805
      16     C     3.24117  3.24117  0.00000 -0.48234
      17     H     0.42062  0.42062  0.00000  0.15876
      18     H     0.42356  0.42356  0.00000  0.15289
      19     H     0.42196  0.42196  0.00000  0.15608
      20     H     0.42063  0.42063  0.00000  0.15873
      21     H     0.41925  0.41925  0.00000  0.16151

   Total alpha = 29.00000, Total beta = 29.00000, Total charge =  0.00000
