  ==> Input File <==

--------------------------------------------------------------------------
set {
	reference rhf
	basis cc-pvtz
}

set_num_threads( 4 )
memory 2 gb

molecule MOL {
0 1

O	 1.591086	 -0.341652	 0.376455
C	 0.576499	 0.134701	 -0.003900
C	 -0.765656	 -0.550508	 -0.002152
O	 0.490752	 1.357939	 -0.500197
C	 -1.945526	 0.411052	 0.000603
H	 -0.794329	 -1.203792	 -0.868145
H	 -0.791555	 -1.205429	 0.862701
C	 -3.282915	 -0.321280	 0.002596
H	 -1.880300	 1.059126	 -0.864925
H	 -1.877207	 1.057892	 0.866807
H	 -3.388495	 -0.952755	 -0.873419
H	 -4.107811	 0.380864	 0.004116
H	 -3.385717	 -0.953283	 0.878571
C	 1.681625	 2.116568	 -0.565888
H	 2.098772	 2.257058	 0.420167
H	 1.405083	 3.067098	 -0.992158
H	 2.412284	 1.625613	 -1.191302

	symmetry c1
}
set optking {
	frozen_dihedral = ("
		1 2 3 6
	")
}

ee = optimize('scf')
oeprop('DIPOLE', 'QUADRUPOLE', 'MULLIKEN_CHARGES')
f=open( 'psi4out.xyz', 'w' )
f.write( "17  " )
f.write( str(ee) + "\n" )
f.write( MOL.save_string_xyz() )
f.close()
--------------------------------------------------------------------------

    Molecular point group: c1
  Charge       = 0
  Multiplicity = 1
  Basis Set: CC-PVTZ
  Basis Set:
  @DF-RHF Final Energy:  -345.03209628135522
    Total Energy =                       -345.0320962813555070
    Molecular point group: c1
  Basis Set: CC-PVTZ
  Basis Set:
  Basis Set: CC-PVTZ
  Basis Set:
  @DF-RHF Final Energy:  -345.03236805282927
    Total Energy =                       -345.0323680528294403
  Basis Set: CC-PVTZ
  Basis Set:
  Basis Set: CC-PVTZ
  Basis Set:
  @DF-RHF Final Energy:  -345.03305108475132
    Total Energy =                       -345.0330510847519463
  Basis Set: CC-PVTZ
  Basis Set:
  Basis Set: CC-PVTZ
  Basis Set:
  @DF-RHF Final Energy:  -345.03312895302537
    Total Energy =                       -345.0331289530255958
  Basis Set: CC-PVTZ
  Basis Set:
  Basis Set: CC-PVTZ
  Basis Set:
  @DF-RHF Final Energy:  -345.03315664679633
    Total Energy =                       -345.0331566467959306
  Basis Set: CC-PVTZ
  Basis Set:
  Basis Set: CC-PVTZ
  Basis Set:
  @DF-RHF Final Energy:  -345.03316849670603
    Total Energy =                       -345.0331684967061392
  Basis Set: CC-PVTZ
  Basis Set:
  Charge       = 0
  Multiplicity = 1
  Basis Set: CC-PVTZ
  Basis Set:

    Orbital Energies (a.u.)
    -----------------------

    Doubly Occupied:

       1A    -20.599087     2A    -20.530709     3A    -11.364973
       4A    -11.279551     5A    -11.234373     6A    -11.225414
       7A    -11.215395     8A     -1.473450     9A     -1.364607
      10A     -1.084410    11A     -0.998773    12A     -0.943884
      13A     -0.832444    14A     -0.777058    15A     -0.698923
      16A     -0.686236    17A     -0.675031    18A     -0.639059
      19A     -0.597515    20A     -0.574059    21A     -0.558136
      22A     -0.535184    23A     -0.525023    24A     -0.516630
      25A     -0.490770    26A     -0.483330    27A     -0.457638
      28A     -0.434179

  @DF-RHF Final Energy:  -345.03316874451542

   => Energetics <=

    Nuclear Repulsion Energy =            314.7894143796428921
    One-Electron Energy =               -1094.0534848764400522
    Two-Electron Energy =                 434.2309017522821932
    DFT Exchange-Correlation Energy =       0.0000000000000000
    Empirical Dispersion Energy =           0.0000000000000000
    PCM Polarization Energy =               0.0000000000000000
    EFP Energy =                            0.0000000000000000
    Total Energy =                       -345.0331687445149100
    Molecular point group: c1
  Basis Set: CC-PVTZ
  Basis Set:

  -Total Gradient:
     Atom            X                  Y                   Z
    ------   -----------------  -----------------  -----------------
       1        0.000128497025    -0.000269799783    -0.000750749200
       2       -0.000127466510     0.000221858020     0.001211409957
       3       -0.000282244357     0.000583641968    -0.000805577720
       4        0.000008680089     0.000063206256    -0.000022076480
       5        0.000001890421    -0.000000876440    -0.000065727113
       6        0.000277500175    -0.000561671984     0.000410295096
       7        0.000005801756    -0.000007661205    -0.000004444882
       8       -0.000003365798    -0.000004620275     0.000036850813
       9        0.000008632570     0.000004724746    -0.000002106461
      10       -0.000002264486    -0.000008781694    -0.000000355873
      11        0.000006231055     0.000012438014    -0.000002110784
      12        0.000000675697    -0.000001000416     0.000007700477
      13       -0.000007823583    -0.000013801412    -0.000000254526
      14       -0.000018317948    -0.000028985630    -0.000022232224
      15       -0.000000880552     0.000000212272     0.000005378269
      16       -0.000002093692     0.000002516769     0.000002337183
      17        0.000006548137     0.000008600793     0.000001663467

  **** Optimization is complete! (in 7 steps) ****
    Final optimized geometry and variables:
    Molecular point group: c1

    Geometry (in Angstrom), charge = 0, multiplicity = 1:

    O            1.770209335990    -0.769128035495     0.483817009309
    C            0.779733764208    -0.245863138611     0.098812690399
    C           -0.568998281186    -0.924840959967     0.085171127764
    O            0.757341328880     0.977576341278    -0.397885764787
    C           -1.794205063979    -0.016236683461     0.094543093858
    H           -0.574046395990    -1.557180999050    -0.798577999170
    H           -0.575463692735    -1.597197941188     0.933126236538
    C           -3.092093767925    -0.816150911952     0.128971180055
    H           -1.780675638920     0.623543638562    -0.778240283903
    H           -1.749984077639     0.640745492723     0.956842222467
    H           -3.178741335038    -1.460739667189    -0.739451771100
    H           -3.952298942142    -0.157627675758     0.138536807729
    H           -3.145611478391    -1.443677163920     1.012137421422
    C            1.986546594325     1.673206110791    -0.461327561976
    H            2.409211272220     1.789043217681     0.525417446443
    H            1.760461121147     2.637764481175    -0.886043729998
    H            2.690747741777     1.144991861358    -1.086599283507

  Mulliken Charges: (a.u.)
   Center  Symbol    Alpha    Beta     Spin     Total
       1     O     4.20259  4.20259  0.00000 -0.40518
       2     C     2.81347  2.81347  0.00000  0.37306
       3     C     3.08482  3.08482  0.00000 -0.16963
       4     O     4.14317  4.14317  0.00000 -0.28634
       5     C     3.08244  3.08244  0.00000 -0.16489
       6     H     0.44428  0.44428  0.00000  0.11144
       7     H     0.43662  0.43662  0.00000  0.12677
       8     C     3.15223  3.15223  0.00000 -0.30447
       9     H     0.44568  0.44568  0.00000  0.10863
      10     H     0.45035  0.45035  0.00000  0.09929
      11     H     0.45475  0.45475  0.00000  0.09049
      12     H     0.44607  0.44607  0.00000  0.10786
      13     H     0.45403  0.45403  0.00000  0.09193
      14     C     3.03603  3.03603  0.00000 -0.07206
      15     H     0.45342  0.45342  0.00000  0.09315
      16     H     0.44657  0.44657  0.00000  0.10686
      17     H     0.45347  0.45347  0.00000  0.09306

   Total alpha = 28.00000, Total beta = 28.00000, Total charge =  0.00000
