  ==> Input File <==

--------------------------------------------------------------------------
set {
	reference rhf
	basis cc-pvtz
}

set_num_threads( 4 )
memory 2 gb

molecule MOL {
0 1

H	 -0.000105	 1.988529	 0.748933
O	 -0.000098	 1.879786	 -0.188206
C	 -0.000014	 0.545691	 -0.532416
C	 -0.990219	 -0.225435	 0.342019
C	 1.426672	 -0.005516	 -0.509769
H	 -0.351559	 0.465595	 -1.550582
F	 -2.191859	 0.269813	 0.175734
F	 -1.034712	 -1.498359	 0.039703
F	 -0.687112	 -0.117519	 1.617894
F	 2.164074	 0.666157	 -1.359446
F	 1.477142	 -1.269804	 -0.845539
F	 1.971256	 0.124387	 0.680999

	symmetry c1
}
set optking {
	frozen_dihedral = ("
		6 3 2 1
	")
}

ee = optimize('scf')
oeprop('DIPOLE', 'QUADRUPOLE', 'MULLIKEN_CHARGES')
f=open( 'psi4out.xyz', 'w' )
f.write( "12  " )
f.write( str(ee) + "\n" )
f.write( MOL.save_string_xyz() )
f.close()
--------------------------------------------------------------------------

    Molecular point group: c1
  Charge       = 0
  Multiplicity = 1
  Basis Set: CC-PVTZ
  Basis Set:
  @DF-RHF Final Energy:  -786.58863728961171
    Total Energy =                       -786.5886372896113699
    Molecular point group: c1
  Basis Set: CC-PVTZ
  Basis Set:
  Basis Set: CC-PVTZ
  Basis Set:
  @DF-RHF Final Energy:  -786.58873892206793
    Total Energy =                       -786.5887389220681598
  Basis Set: CC-PVTZ
  Basis Set:
  Basis Set: CC-PVTZ
  Basis Set:
  @DF-RHF Final Energy:  -786.58876188827310
    Total Energy =                       -786.5887618882723018
  Basis Set: CC-PVTZ
  Basis Set:
  Basis Set: CC-PVTZ
  Basis Set:
  @DF-RHF Final Energy:  -786.58876366125730
    Total Energy =                       -786.5887636612568485
  Basis Set: CC-PVTZ
  Basis Set:
  Charge       = 0
  Multiplicity = 1
  Basis Set: CC-PVTZ
  Basis Set:

    Orbital Energies (a.u.)
    -----------------------

    Doubly Occupied:

       1A    -26.362317     2A    -26.360682     3A    -26.357250
       4A    -26.354740     5A    -26.354182     6A    -26.350806
       7A    -20.609357     8A    -11.523504     9A    -11.516581
      10A    -11.351676    11A     -1.773847    12A     -1.765064
      13A     -1.669898    14A     -1.665727    15A     -1.661251
      16A     -1.659004    17A     -1.439204    18A     -1.103529
      19A     -1.002245    20A     -0.945284    21A     -0.872339
      22A     -0.869134    23A     -0.860538    24A     -0.851467
      25A     -0.839731    26A     -0.820463    27A     -0.750165
      28A     -0.736313    29A     -0.729723    30A     -0.725509
      31A     -0.697106    32A     -0.694220    33A     -0.690699
      34A     -0.680600    35A     -0.676486    36A     -0.670973
      37A     -0.662181    38A     -0.658057    39A     -0.624753
      40A     -0.553406    41A     -0.509833

  @DF-RHF Final Energy:  -786.58876406110971

   => Energetics <=

    Nuclear Repulsion Energy =            670.8921253052778866
    One-Electron Energy =               -2428.9620923754391697
    Two-Electron Energy =                 971.4812030090515691
    DFT Exchange-Correlation Energy =       0.0000000000000000
    Empirical Dispersion Energy =           0.0000000000000000
    PCM Polarization Energy =               0.0000000000000000
    EFP Energy =                            0.0000000000000000
    Total Energy =                       -786.5887640611097140
    Molecular point group: c1
  Basis Set: CC-PVTZ
  Basis Set:

  -Total Gradient:
     Atom            X                  Y                   Z
    ------   -----------------  -----------------  -----------------
       1       -0.002474039220     0.000015974617     0.000054127843
       2        0.002604625199    -0.000037153945     0.000129658755
       3        0.001876934492     0.000228099515    -0.000920520946
       4        0.000022438801     0.000002499325     0.000010885130
       5        0.000009683446     0.000007004543    -0.000012405917
       6       -0.001973641611    -0.000183931972     0.000745980268
       7       -0.000016604877     0.000008156790     0.000008129430
       8       -0.000006706471    -0.000036026525     0.000011102301
       9        0.000000649192    -0.000007571972    -0.000032014222
      10       -0.000002528613    -0.000019106235    -0.000010978366
      11       -0.000005507243     0.000033452291     0.000014197625
      12       -0.000035303074    -0.000011396436     0.000001838101

  **** Optimization is complete! (in 5 steps) ****
    Final optimized geometry and variables:
    Molecular point group: c1

    Geometry (in Angstrom), charge = 0, multiplicity = 1:

    H           -0.196228085271     1.988472832784     0.780324161567
    O           -0.213305029274     1.872215736537    -0.155207155589
    C           -0.222543189829     0.536155515508    -0.495324584757
    C           -1.207906092501    -0.231704651394     0.387256574602
    C            1.202463749183    -0.018646250244    -0.478306697103
    H           -0.592053309897     0.448113337993    -1.506838677946
    F           -2.421010243424     0.219242194036     0.175766485012
    F           -1.206004860986    -1.515755792478     0.142020720267
    F           -0.939777006399    -0.056783733743     1.664847262089
    F            1.954920726476     0.695374266346    -1.277655094488
    F            1.248602578856    -1.262312889931    -0.889988619078
    F            1.728671716945     0.034222782189     0.724592551383

  Mulliken Charges: (a.u.)
   Center  Symbol    Alpha    Beta     Spin     Total
       1     H     0.38141  0.38141  0.00000  0.23719
       2     O     4.19007  4.19007  0.00000 -0.38014
       3     C     3.00367  3.00367  0.00000 -0.00734
       4     C     2.68624  2.68624  0.00000  0.62753
       5     C     2.68368  2.68368  0.00000  0.63264
       6     H     0.42641  0.42641  0.00000  0.14718
       7     F     4.60275  4.60275  0.00000 -0.20550
       8     F     4.60006  4.60006  0.00000 -0.20013
       9     F     4.61104  4.61104  0.00000 -0.22208
      10     F     4.60163  4.60163  0.00000 -0.20326
      11     F     4.60436  4.60436  0.00000 -0.20872
      12     F     4.60868  4.60868  0.00000 -0.21737

   Total alpha = 41.00000, Total beta = 41.00000, Total charge = -0.00000
