                              Psi4 1.0.54 Driver

  ==> Input File <==

--------------------------------------------------------------------------
set {
	reference rhf
	basis cc-pvtz
}

set_num_threads( 4 )
memory 2 gb

molecule MOL {
0 1

H	 2.979157	 -0.132286	 -0.883433
N	 2.433987	 -0.362316	 -0.080024
C	 1.263552	 0.494993	 0.021953
H	 3.025082	 -0.254785	 0.717710
C	 -0.016533	 -0.325589	 -0.026925
H	 1.280915	 1.180773	 -0.818522
H	 1.263064	 1.106893	 0.925038
C	 -1.280353	 0.525521	 0.047747
H	 -0.016686	 -0.912532	 -0.939714
H	 -0.014099	 -1.037598	 0.796369
C	 -2.560681	 -0.301323	 -0.007747
H	 -1.279957	 1.241025	 -0.770189
H	 -1.270445	 1.110526	 0.963468
H	 -2.617064	 -0.872870	 -0.928010
H	 -3.439525	 0.331102	 0.043462
H	 -2.609427	 -1.002736	 0.818585

	symmetry c1
}
set optking {
	frozen_dihedral = ("
		1 2 3 6
	")
}

ee,wfn = optimize('scf', return_wfn=True)
oeprop( wfn, 'DIPOLE', 'QUADRUPOLE', 'MULLIKEN_CHARGES')
f=open( 'psi4out.xyz', 'w' )
f.write( "16  " )
f.write( str(ee) + "\n" )
f.write( MOL.save_string_xyz() )
f.close()
--------------------------------------------------------------------------

    Molecular point group: c1
  Charge       = 0
  Multiplicity = 1
  Basis Set: CC-PVTZ
  Basis Set:
  @DF-RHF Final Energy:  -212.39670158272571
    Total Energy =                       -212.3967015827257114
    Molecular point group: c1
  Basis Set: CC-PVTZ
  Basis Set:
  Basis Set: CC-PVTZ
  Basis Set:
  @DF-RHF Final Energy:  -212.39724075112372
    Total Energy =                       -212.3972407511236611
  Basis Set: CC-PVTZ
  Basis Set:
  Basis Set: CC-PVTZ
  Basis Set:
  @DF-RHF Final Energy:  -212.39739480470547
    Total Energy =                       -212.3973948047055273
  Basis Set: CC-PVTZ
  Basis Set:
  Basis Set: CC-PVTZ
  Basis Set:
  @DF-RHF Final Energy:  -212.39739778383660
    Total Energy =                       -212.3973977838368796
  Basis Set: CC-PVTZ
  Basis Set:
  Charge       = 0
  Multiplicity = 1
  Basis Set: CC-PVTZ
  Basis Set:

    Orbital Energies (a.u.)
    -----------------------

    Doubly Occupied:

       1A    -15.524934     2A    -11.238954     3A    -11.210128
       4A    -11.203779     5A    -11.201646     6A     -1.174763
       7A     -1.058334     8A     -0.958825     9A     -0.842957
      10A     -0.787315    11A     -0.677469    12A     -0.623175
      13A     -0.611621    14A     -0.578184    15A     -0.551392
      16A     -0.533709    17A     -0.487316    18A     -0.477027
      19A     -0.465781    20A     -0.458713    21A     -0.379288

  @DF-RHF Final Energy:  -212.39739842891200

   => Energetics <=

    Nuclear Repulsion Energy =            186.0847760473547794
    One-Electron Energy =                -654.8737303377150738
    Two-Electron Energy =                 256.3915558614482961
    DFT Exchange-Correlation Energy =       0.0000000000000000
    Empirical Dispersion Energy =           0.0000000000000000
    PCM Polarization Energy =               0.0000000000000000
    EFP Energy =                            0.0000000000000000
    Total Energy =                       -212.3973984289119699
    Molecular point group: c1
  Basis Set: CC-PVTZ
  Basis Set:

  -Total Gradient:
     Atom            X                  Y                   Z
    ------   -----------------  -----------------  -----------------
       1       -0.000186697247    -0.000190057855    -0.000173457442
       2        0.000280156077     0.000214606184     0.000218093714
       3       -0.000283470262    -0.000232833284    -0.000232238532
       4        0.000019577693     0.000013918730     0.000023528206
       5        0.000062263910     0.000037743937     0.000025372927
       6        0.000149062351     0.000170938205     0.000137783377
       7       -0.000031883260    -0.000021997096     0.000002405708
       8        0.000006992730    -0.000012962057    -0.000007468802
       9        0.000016695774     0.000019065703     0.000005602919
      10        0.000002764916     0.000003235191    -0.000002271596
      11       -0.000034714462     0.000016520638     0.000005612738
      12        0.000007382129    -0.000006436835     0.000009546950
      13       -0.000003454568    -0.000009250297    -0.000006480474
      14        0.000003836857     0.000002407496     0.000001642869
      15       -0.000011677196    -0.000011060314    -0.000003090413
      16        0.000003164556     0.000006161653    -0.000004582150

  **** Optimization is complete! (in 5 steps) ****
    Final optimized geometry and variables:
    Molecular point group: c1

    Geometry (in Angstrom), charge = 0, multiplicity = 1:

    H            2.985471602555    -0.132975829372    -0.957420926964
    N            2.442032166053    -0.361007200148    -0.155450775950
    C            1.257883906948     0.485606061692    -0.034947150167
    H            3.034249358862    -0.293902037577     0.641714027165
    C           -0.026093079153    -0.333817252774    -0.021247955882
    H            1.221255109576     1.193964942364    -0.857317750240
    H            1.309436674981     1.082303905947     0.871536589464
    C           -1.284338436289     0.519214455249     0.103968620792
    H           -0.069086831928    -0.925976379136    -0.930731257086
    H            0.022968838061    -1.042926701263     0.800272413707
    C           -2.567263914761    -0.305567099932     0.115278102906
    H           -1.322912239151     1.229979693852    -0.717776226994
    H           -1.231406662407     1.111383070052     1.014156705659
    H           -2.668145102564    -0.882823047137    -0.797672163359
    H           -3.442509919799     0.327841387815     0.204755616570
    H           -2.576124118911    -1.002094319669     0.946942824677

  Mulliken Charges: (a.u.)
   Center  Symbol    Alpha    Beta     Spin     Total
       1     H     0.42565  0.42565  0.00000  0.14870
       2     N     3.69785  3.69785  0.00000 -0.39570
       3     C     3.04592  3.04592  0.00000 -0.09183
       4     H     0.42606  0.42606  0.00000  0.14788
       5     C     3.06125  3.06125  0.00000 -0.12251
       6     H     0.45769  0.45769  0.00000  0.08462
       7     H     0.45833  0.45833  0.00000  0.08335
       8     C     3.09178  3.09178  0.00000 -0.18356
       9     H     0.45670  0.45670  0.00000  0.08660
      10     H     0.45729  0.45729  0.00000  0.08543
      11     C     3.14890  3.14890  0.00000 -0.29779
      12     H     0.45683  0.45683  0.00000  0.08634
      13     H     0.45686  0.45686  0.00000  0.08629
      14     H     0.45472  0.45472  0.00000  0.09056
      15     H     0.44940  0.44940  0.00000  0.10119
      16     H     0.45478  0.45478  0.00000  0.09043

   Total alpha = 21.00000, Total beta = 21.00000, Total charge = -0.00000

*** Psi4 exiting successfully. Buy a developer a beer!
