  ==> Input File <==

--------------------------------------------------------------------------
set {
	reference rhf
	basis 6-31G*
}

set_num_threads( 1 )
memory 2 gb

molecule MOL {
0 1

H	 -3.202674	 -0.284171	 1.571187
C	 -3.282507	 -0.297082	 0.477075
C	 -2.671510	 0.891457	 -0.220541
O	 -3.820897	 -1.202965	 -0.071800
C	 -1.220012	 1.144545	 0.209990
H	 -2.748722	 0.737017	 -1.290539
H	 -3.277679	 1.759403	 0.036135
C	 -0.252658	 0.041456	 -0.226725
H	 -0.897702	 2.093430	 -0.208363
H	 -1.179248	 1.261464	 1.291852
C	 1.180775	 0.282413	 0.250794
H	 -0.266029	 -0.034465	 -1.312038
H	 -0.597733	 -0.921000	 0.146291
C	 2.148627	 -0.814315	 -0.201312
H	 1.516199	 1.249228	 -0.115937
H	 1.192670	 0.346017	 1.338083
C	 3.580890	 -0.659131	 0.322722
H	 2.166869	 -0.852443	 -1.289387
H	 1.762857	 -1.776509	 0.128956
C	 4.324889	 0.564933	 -0.213704
H	 4.142010	 -1.551473	 0.056605
H	 3.564836	 -0.624694	 1.410140
H	 4.342616	 0.565491	 -1.300421
H	 3.866655	 1.493402	 0.110242
H	 5.353900	 0.572371	 0.132816

	symmetry c1
}
set optking {
	frozen_dihedral = ("
		6 3 5 8,
		6 3 2 4,
		12 8 11 14,
		8 11 14 18,
		20 17 14 18
	")
}

ee = energy('scf')
oeprop('DIPOLE', 'QUADRUPOLE', 'MULLIKEN_CHARGES')
f=open( 'psi4out.xyz', 'w' )
f.write( "25  " )
f.write( str(ee) + "\n" )
f.write( MOL.save_string_xyz() )
f.close()
--------------------------------------------------------------------------

    Molecular point group: c1

    Geometry (in Angstrom), charge = 0, multiplicity = 1:

       Center              X                  Y                   Z               Mass
    ------------   -----------------  -----------------  -----------------  -----------------
           H         -3.206178434294    -0.273826148393     1.537294612059     1.007825032070
           C         -3.286011434294    -0.286737148393     0.443182612059    12.000000000000
           C         -2.675014434294     0.901801851607    -0.254433387941    12.000000000000
           O         -3.824401434294    -1.192620148393    -0.105692387941    15.994914619560
           C         -1.223516434294     1.154889851607     0.176097612059    12.000000000000
           H         -2.752226434294     0.747361851607    -1.324431387941     1.007825032070
           H         -3.281183434294     1.769747851607     0.002242612059     1.007825032070
           C         -0.256162434294     0.051800851607    -0.260617387941    12.000000000000
           H         -0.901206434294     2.103774851607    -0.242255387941     1.007825032070
           H         -1.182752434294     1.271808851607     1.257959612059     1.007825032070
           C          1.177270565706     0.292757851607     0.216901612059    12.000000000000
           H         -0.269533434294    -0.024120148393    -1.345930387941     1.007825032070
           H         -0.601237434294    -0.910655148393     0.112398612059     1.007825032070
           C          2.145122565706    -0.803970148393    -0.235204387941    12.000000000000
           H          1.512694565706     1.259572851607    -0.149829387941     1.007825032070
           H          1.189165565706     0.356361851607     1.304190612059     1.007825032070
           C          3.577385565706    -0.648786148393     0.288829612059    12.000000000000
           H          2.163364565706    -0.842098148393    -1.323279387941     1.007825032070
           H          1.759352565706    -1.766164148393     0.095063612059     1.007825032070
           C          4.321384565706     0.575277851607    -0.247596387941    12.000000000000
           H          4.138505565706    -1.541128148393     0.022712612059     1.007825032070
           H          3.561331565706    -0.614349148393     1.376247612059     1.007825032070
           H          4.339111565706     0.575835851607    -1.334313387941     1.007825032070
           H          3.863150565706     1.503746851607     0.076349612059     1.007825032070
           H          5.350395565706     0.582715851607     0.098923612059     1.007825032070

  Charge       = 0
  Multiplicity = 1
  Basis Set: 6-31G*
  Basis Set:

    Orbital Energies (a.u.)
    -----------------------

    Doubly Occupied:

       1A    -20.562063     2A    -11.326186     3A    -11.235350
       4A    -11.234651     5A    -11.223938     6A    -11.219889
       7A    -11.218031     8A    -11.217007     9A    -11.210709
      10A     -1.402043    11A     -1.104035    12A     -1.069746
      13A     -1.013404    14A     -0.942491    15A     -0.875290
      16A     -0.820653    17A     -0.788189    18A     -0.781283
      19A     -0.664513    20A     -0.661996    21A     -0.632979
      22A     -0.625892    23A     -0.601868    24A     -0.594341
      25A     -0.575440    26A     -0.549890    27A     -0.535866
      28A     -0.524909    29A     -0.508182    30A     -0.495186
      31A     -0.491528    32A     -0.479651    33A     -0.464843
      34A     -0.458844    35A     -0.441184    36A     -0.409619

  @DF-RHF Final Energy:  -387.12202753306099

   => Energetics <=

    Nuclear Repulsion Energy =            439.2758796052931984
    One-Electron Energy =               -1394.8724831016133976
    Two-Electron Energy =                 568.4745759632611453
    DFT Exchange-Correlation Energy =       0.0000000000000000
    Empirical Dispersion Energy =           0.0000000000000000
    PCM Polarization Energy =               0.0000000000000000
    EFP Energy =                            0.0000000000000000
    Total Energy =                       -387.1220275330590539

  Mulliken Charges: (a.u.)
   Center  Symbol    Alpha    Beta     Spin     Total
       1     H     0.43259  0.43259  0.00000  0.13483
       2     C     2.83083  2.83083  0.00000  0.33835
       3     C     3.20807  3.20807  0.00000 -0.41613
       4     O     4.23779  4.23779  0.00000 -0.47557
       5     C     3.16662  3.16662  0.00000 -0.33324
       6     H     0.39970  0.39970  0.00000  0.20060
       7     H     0.40669  0.40669  0.00000  0.18661
       8     C     3.15491  3.15491  0.00000 -0.30981
       9     H     0.41277  0.41277  0.00000  0.17446
      10     H     0.41969  0.41969  0.00000  0.16062
      11     C     3.15421  3.15421  0.00000 -0.30843
      12     H     0.41802  0.41802  0.00000  0.16396
      13     H     0.41822  0.41822  0.00000  0.16355
      14     C     3.15312  3.15312  0.00000 -0.30625
      15     H     0.42087  0.42087  0.00000  0.15825
      16     H     0.42377  0.42377  0.00000  0.15246
      17     C     3.15276  3.15276  0.00000 -0.30552
      18     H     0.42303  0.42303  0.00000  0.15394
      19     H     0.42058  0.42058  0.00000  0.15884
      20     C     3.24134  3.24134  0.00000 -0.48267
      21     H     0.41995  0.41995  0.00000  0.16009
      22     H     0.42323  0.42323  0.00000  0.15355
      23     H     0.42191  0.42191  0.00000  0.15618
      24     H     0.42067  0.42067  0.00000  0.15865
      25     H     0.41867  0.41867  0.00000  0.16267

   Total alpha = 36.00000, Total beta = 36.00000, Total charge = -0.00000
