  ==> Input File <==

--------------------------------------------------------------------------
set {
	reference rhf
	basis 6-31G*
}

set_num_threads( 4 )
memory 2 gb

molecule MOL {
0 1

H	 -1.780163	 -0.945727	 -1.090437
O	 -2.310168	 -0.871793	 -0.309793
C	 -2.026376	 0.340750	 0.341611
C	 -0.673256	 0.843270	 -0.132153
H	 -2.792215	 1.080697	 0.115987
H	 -2.013526	 0.200402	 1.421792
C	 0.486613	 -0.083066	 0.235839
H	 -0.715586	 0.970948	 -1.210718
H	 -0.508072	 1.829858	 0.297090
C	 1.840406	 0.433480	 -0.254303
H	 0.300215	 -1.068318	 -0.178947
H	 0.519509	 -0.203625	 1.318070
C	 3.000220	 -0.489290	 0.118523
H	 1.809207	 0.553576	 -1.335192
H	 2.021860	 1.424500	 0.157276
H	 2.864959	 -1.479103	 -0.307933
H	 3.946603	 -0.099227	 -0.243630
H	 3.080049	 -0.602997	 1.196117

	symmetry c1
}
set optking {
	frozen_dihedral = ("
		1 2 3 4
	")
}

ee = optimize('scf')
oeprop('DIPOLE', 'QUADRUPOLE', 'MULLIKEN_CHARGES')
f=open( 'psi4out.xyz', 'w' )
f.write( "18  " )
f.write( str(ee) + "\n" )
f.write( MOL.save_string_xyz() )
f.close()
--------------------------------------------------------------------------

    Molecular point group: c1
  Charge       = 0
  Multiplicity = 1
  Basis Set: 6-31G*
  Basis Set:
  @DF-RHF Final Energy:  -271.17548613319127
    Total Energy =                       -271.1754861331912139
    Molecular point group: c1
  Basis Set: 6-31G*
  Basis Set:
  Basis Set: 6-31G*
  Basis Set:
  @DF-RHF Final Energy:  -271.17693107692952
    Total Energy =                       -271.1769310769295771
  Basis Set: 6-31G*
  Basis Set:
  Basis Set: 6-31G*
  Basis Set:
  @DF-RHF Final Energy:  -271.17739175566749
    Total Energy =                       -271.1773917556677134
  Basis Set: 6-31G*
  Basis Set:
  Basis Set: 6-31G*
  Basis Set:
  @DF-RHF Final Energy:  -271.17739744914155
    Total Energy =                       -271.1773974491418358
  Basis Set: 6-31G*
  Basis Set:
  Basis Set: 6-31G*
  Basis Set:
  @DF-RHF Final Energy:  -271.17739872787376
    Total Energy =                       -271.1773987278738787
  Basis Set: 6-31G*
  Basis Set:
  Charge       = 0
  Multiplicity = 1
  Basis Set: 6-31G*
  Basis Set:

    Orbital Energies (a.u.)
    -----------------------

    Doubly Occupied:

       1A    -20.550170     2A    -11.266980     3A    -11.224528
       4A    -11.220993     5A    -11.220343     6A    -11.212290
       7A     -1.357393     8A     -1.084694     9A     -1.014412
      10A     -0.921148    11A     -0.834812    12A     -0.798016
      13A     -0.662782    14A     -0.656443    15A     -0.634320
      16A     -0.611647    17A     -0.576468    18A     -0.557465
      19A     -0.542360    20A     -0.499237    21A     -0.492065
      22A     -0.479093    23A     -0.470040    24A     -0.456571
      25A     -0.425755

  @DF-RHF Final Energy:  -271.17739913759283

   => Energetics <=

    Nuclear Repulsion Energy =            248.8933891486799439
    One-Electron Energy =                -860.6015250802570336
    Two-Electron Energy =                 340.5307367939843743
    DFT Exchange-Correlation Energy =       0.0000000000000000
    Empirical Dispersion Energy =           0.0000000000000000
    PCM Polarization Energy =               0.0000000000000000
    EFP Energy =                            0.0000000000000000
    Total Energy =                       -271.1773991375927153
    Molecular point group: c1
  Basis Set: 6-31G*
  Basis Set:

  -Total Gradient:
     Atom            X                  Y                   Z
    ------   -----------------  -----------------  -----------------
       1        0.001702665918    -0.001177469325     0.001259461310
       2       -0.002362449254     0.001768131650    -0.002116998906
       3        0.001332857760    -0.001408361472     0.001987985675
       4       -0.000709063469     0.000749147718    -0.001173949563
       5        0.000015303111     0.000024603754     0.000000862407
       6        0.000020925883     0.000037827231     0.000019397306
       7        0.000000136437     0.000021354531     0.000006447178
       8        0.000000543041    -0.000015649968     0.000014664780
       9        0.000003249181     0.000019099464     0.000007029819
      10       -0.000007097590    -0.000015940906    -0.000014409444
      11        0.000004765724     0.000010280842    -0.000005509616
      12        0.000008833990    -0.000016687026     0.000005036498
      13       -0.000003427161     0.000008241070     0.000016421110
      14       -0.000001947786    -0.000005527038    -0.000002803936
      15       -0.000003870167    -0.000001713137    -0.000004680191
      16       -0.000000450029     0.000004239804    -0.000004595450
      17       -0.000000357707     0.000004665487     0.000004146781
      18       -0.000000617883    -0.000006242679     0.000001494240

  **** Optimization is complete! (in 6 steps) ****
    Final optimized geometry and variables:
    Molecular point group: c1

    Geometry (in Angstrom), charge = 0, multiplicity = 1:

    H           -1.919200083075    -1.015684421336    -1.063208894841
    O           -2.412850544943    -0.877441332491    -0.268289926831
    C           -2.030770043438     0.335532778702     0.333104314550
    C           -0.668275993865     0.840577127962    -0.127127455580
    H           -2.783374054649     1.091415135577     0.121840335963
    H           -2.027362703427     0.171752002920     1.405014756061
    C            0.494247677718    -0.086304630282     0.237420853985
    H           -0.695831992403     0.994964642049    -1.206183843183
    H           -0.502929840064     1.821378510998     0.313065859052
    C            1.850319416556     0.434655533479    -0.241576794502
    H            0.322775853971    -1.076159011025    -0.178943149902
    H            0.518054551084    -0.216014157833     1.317694146141
    C            3.009323087104    -0.487778112335     0.134084003627
    H            1.826865276964     0.562835045635    -1.321902565820
    H            2.025148713938     1.423072734185     0.178045620107
    H            2.881319125983    -1.475188610219    -0.300307872637
    H            3.956767238854    -0.091825347828    -0.217936092724
    H            3.080682618168    -0.608519111797     1.211215172574

  Mulliken Charges: (a.u.)
   Center  Symbol    Alpha    Beta     Spin     Total
       1     H     0.28057  0.28057  0.00000  0.43886
       2     O     4.37566  4.37566  0.00000 -0.75133
       3     C     2.97791  2.97791  0.00000  0.04417
       4     C     3.18732  3.18732  0.00000 -0.37465
       5     H     0.42608  0.42608  0.00000  0.14785
       6     H     0.42152  0.42152  0.00000  0.15695
       7     C     3.15112  3.15112  0.00000 -0.30224
       8     H     0.42390  0.42390  0.00000  0.15221
       9     H     0.41717  0.41717  0.00000  0.16567
      10     C     3.15147  3.15147  0.00000 -0.30295
      11     H     0.42187  0.42187  0.00000  0.15627
      12     H     0.41994  0.41994  0.00000  0.16011
      13     C     3.23938  3.23938  0.00000 -0.47876
      14     H     0.42352  0.42352  0.00000  0.15296
      15     H     0.42236  0.42236  0.00000  0.15529
      16     H     0.42110  0.42110  0.00000  0.15780
      17     H     0.41855  0.41855  0.00000  0.16291
      18     H     0.42056  0.42056  0.00000  0.15888

   Total alpha = 25.00000, Total beta = 25.00000, Total charge =  0.00000
