                              Psi4 1.0.54 Driver

  ==> Input File <==

--------------------------------------------------------------------------
set {
	reference rhf
	basis cc-pvtz
}

set_num_threads( 4 )
memory 2 gb

molecule MOL {
0 1

H	 2.045048	 2.139976	 -0.894453
N	 1.230856	 1.566976	 -0.960432
C	 1.263552	 0.494993	 0.021953
H	 1.203925	 1.199151	 -1.888503
C	 -0.016533	 -0.325589	 -0.026925
H	 1.360841	 0.947585	 1.003120
H	 2.120127	 -0.168885	 -0.102663
C	 -1.280353	 0.525521	 0.047747
H	 -0.016686	 -0.912532	 -0.939714
H	 -0.014099	 -1.037598	 0.796369
C	 -2.560681	 -0.301323	 -0.007747
H	 -1.279957	 1.241025	 -0.770189
H	 -1.270445	 1.110526	 0.963468
H	 -2.617064	 -0.872870	 -0.928010
H	 -3.439525	 0.331102	 0.043462
H	 -2.609427	 -1.002736	 0.818585

	symmetry c1
}
set optking {
	frozen_dihedral = ("
		6 3 5 9
	")
}

ee,wfn = optimize('scf', return_wfn=True)
oeprop( wfn, 'DIPOLE', 'QUADRUPOLE', 'MULLIKEN_CHARGES')
f=open( 'psi4out.xyz', 'w' )
f.write( "16  " )
f.write( str(ee) + "\n" )
f.write( MOL.save_string_xyz() )
f.close()
--------------------------------------------------------------------------

    Molecular point group: c1
  Charge       = 0
  Multiplicity = 1
  Basis Set: CC-PVTZ
  Basis Set:
  @DF-RHF Final Energy:  -212.39848240125946
    Total Energy =                       -212.3984824012595141
    Molecular point group: c1
  Basis Set: CC-PVTZ
  Basis Set:
  Basis Set: CC-PVTZ
  Basis Set:
  @DF-RHF Final Energy:  -212.39884964096251
    Total Energy =                       -212.3988496409627942
  Basis Set: CC-PVTZ
  Basis Set:
  Basis Set: CC-PVTZ
  Basis Set:
  @DF-RHF Final Energy:  -212.39916400026962
    Total Energy =                       -212.3991640002695931
  Basis Set: CC-PVTZ
  Basis Set:
  Basis Set: CC-PVTZ
  Basis Set:
  @DF-RHF Final Energy:  -212.39917450692738
    Total Energy =                       -212.3991745069275225
  Basis Set: CC-PVTZ
  Basis Set:
  Charge       = 0
  Multiplicity = 1
  Basis Set: CC-PVTZ
  Basis Set:

    Orbital Energies (a.u.)
    -----------------------

    Doubly Occupied:

       1A    -15.527443     2A    -11.239077     3A    -11.209029
       4A    -11.203722     5A    -11.201275     6A     -1.179282
       7A     -1.054254     8A     -0.959678     9A     -0.847734
      10A     -0.781876    11A     -0.668077    12A     -0.624007
      13A     -0.614996    14A     -0.575527    15A     -0.563373
      16A     -0.520509    17A     -0.499654    18A     -0.468112
      19A     -0.462919    20A     -0.458521    21A     -0.382147

  @DF-RHF Final Energy:  -212.39917521859718

   => Energetics <=

    Nuclear Repulsion Energy =            189.1224881588219660
    One-Electron Energy =                -660.9609023019597771
    Two-Electron Energy =                 259.4392389245405752
    DFT Exchange-Correlation Energy =       0.0000000000000000
    Empirical Dispersion Energy =           0.0000000000000000
    PCM Polarization Energy =               0.0000000000000000
    EFP Energy =                            0.0000000000000000
    Total Energy =                       -212.3991752185972359
    Molecular point group: c1
  Basis Set: CC-PVTZ
  Basis Set:

  -Total Gradient:
     Atom            X                  Y                   Z
    ------   -----------------  -----------------  -----------------
       1        0.000013630828     0.000001926595    -0.000006861971
       2       -0.000030360504     0.000007902338     0.000032487331
       3       -0.001352513466     0.002235500837    -0.000775313458
       4       -0.000006720459    -0.000008218069    -0.000028572765
       5       -0.001144146209     0.002111930012    -0.001466805343
       6        0.001323695509    -0.002248409466     0.000919124427
       7       -0.000001245766     0.000023157551    -0.000012508049
       8        0.000023388098    -0.000033656407    -0.000023762444
       9        0.001200135118    -0.002109827715     0.001333412076
      10       -0.000016866118    -0.000007961810     0.000007153376
      11       -0.000014543904     0.000010777767     0.000044296815
      12        0.000020653496     0.000005831545    -0.000026269923
      13       -0.000022927748     0.000005029723     0.000005916775
      14        0.000014436210     0.000020438865     0.000003752085
      15       -0.000005254993    -0.000010741287     0.000006271539
      16       -0.000001360090    -0.000003680478    -0.000012320472

  **** Optimization is complete! (in 5 steps) ****
    Final optimized geometry and variables:
    Molecular point group: c1

    Geometry (in Angstrom), charge = 0, multiplicity = 1:

    H            2.402116423244     1.690340958374    -0.651870728113
    N            1.571328335365     1.148884370284    -0.761138767886
    C            1.506034367034     0.088224444770     0.231486512216
    H            1.586451342560     0.769764500821    -1.685343907536
    C            0.206227881109    -0.704895696872     0.149608193613
    H            1.591464080116     0.533779830513     1.217182420101
    H            2.336453985912    -0.613787352523     0.148069577704
    C           -1.065939816238     0.130845553226     0.246944347516
    H            0.201917189554    -1.293810357040    -0.766229108835
    H            0.217472464814    -1.433741533544     0.956796405623
    C           -2.331611400979    -0.720012342324     0.221196697029
    H           -1.090775159669     0.850366185932    -0.561122013329
    H           -1.038685755113     0.710171382646     1.166167838227
    H           -2.402283875877    -1.289045104725    -0.700322515342
    H           -3.219899184129    -0.103080644852     0.295432616486
    H           -2.350370752247    -1.426252747290     1.045063467058

  Mulliken Charges: (a.u.)
   Center  Symbol    Alpha    Beta     Spin     Total
       1     H     0.42906  0.42906  0.00000  0.14189
       2     N     3.68903  3.68903  0.00000 -0.37806
       3     C     3.03812  3.03812  0.00000 -0.07625
       4     H     0.43088  0.43088  0.00000  0.13825
       5     C     3.09353  3.09353  0.00000 -0.18706
       6     H     0.45601  0.45601  0.00000  0.08799
       7     H     0.46060  0.46060  0.00000  0.07880
       8     C     3.07488  3.07488  0.00000 -0.14976
       9     H     0.45632  0.45632  0.00000  0.08736
      10     H     0.45290  0.45290  0.00000  0.09420
      11     C     3.15029  3.15029  0.00000 -0.30057
      12     H     0.44787  0.44787  0.00000  0.10427
      13     H     0.45794  0.45794  0.00000  0.08411
      14     H     0.45667  0.45667  0.00000  0.08666
      15     H     0.44885  0.44885  0.00000  0.10231
      16     H     0.45707  0.45707  0.00000  0.08585

   Total alpha = 21.00000, Total beta = 21.00000, Total charge = -0.00000

*** Psi4 exiting successfully. Buy a developer a beer!
