  ==> Input File <==

--------------------------------------------------------------------------
set {
	reference rhf
	basis 6-31G*
}

set_num_threads( 1 )
memory 2 gb

molecule MOL {
0 1

H	 1.693012	 2.602603	 -2.444411
O	 2.563256	 2.243775	 -2.539221
C	 3.117294	 2.003672	 -1.270581
C	 2.497176	 0.805142	 -0.560858
H	 4.171270	 1.823571	 -1.439018
H	 3.037196	 2.892227	 -0.645414
C	 1.012281	 0.976753	 -0.231456
H	 2.633216	 -0.073844	 -1.185552
H	 3.053681	 0.630262	 0.358427
C	 0.432966	 -0.219936	 0.528246
H	 0.456788	 1.124675	 -1.153363
H	 0.875664	 1.878731	 0.365296
C	 -1.030233	 -0.062745	 0.957991
H	 0.534362	 -1.115020	 -0.082811
H	 1.036423	 -0.390484	 1.417321
C	 -2.037799	 -0.007733	 -0.193645
H	 -1.288180	 -0.898922	 1.604588
H	 -1.131173	 0.833153	 1.568740
C	 -3.489788	 0.042957	 0.286558
H	 -1.901712	 -0.879802	 -0.831679
H	 -1.844383	 0.860483	 -0.819019
C	 -4.216917	 1.317354	 -0.141063
H	 -4.025645	 -0.823308	 -0.095450
H	 -3.513059	 -0.038752	 1.371301
H	 -4.239342	 1.411634	 -1.223113
H	 -5.243387	 1.322503	 0.212445
H	 -3.726170	 2.201406	 0.256408

	symmetry c1
}
set optking {
	frozen_dihedral = ("
		14 10 7 4,
		14 10 13 16,
		10 7 4 8,
		8 4 3 2,
		10 13 16 20,
		4 3 2 1
	")
}

ee = energy('scf')
oeprop('DIPOLE', 'QUADRUPOLE', 'MULLIKEN_CHARGES')
f=open( 'psi4out.xyz', 'w' )
f.write( "27  " )
f.write( str(ee) + "\n" )
f.write( MOL.save_string_xyz() )
f.close()
--------------------------------------------------------------------------

    Molecular point group: c1

    Geometry (in Angstrom), charge = 0, multiplicity = 1:

       Center              X                  Y                   Z               Mass
    ------------   -----------------  -----------------  -----------------  -----------------
           H          1.793494301499     1.775618776647    -2.053286687551     1.007825032070
           O          2.663738301499     1.416790776647    -2.148096687551    15.994914619560
           C          3.217776301499     1.176687776647    -0.879456687551    12.000000000000
           C          2.597658301499    -0.021842223353    -0.169733687551    12.000000000000
           H          4.271752301499     0.996586776647    -1.047893687551     1.007825032070
           H          3.137678301499     2.065242776647    -0.254289687551     1.007825032070
           C          1.112763301499     0.149768776647     0.159668312449    12.000000000000
           H          2.733698301499    -0.900828223353    -0.794427687551     1.007825032070
           H          3.154163301499    -0.196722223353     0.749551312449     1.007825032070
           C          0.533448301499    -1.046920223353     0.919370312449    12.000000000000
           H          0.557270301499     0.297690776647    -0.762238687551     1.007825032070
           H          0.976146301499     1.051746776647     0.756420312449     1.007825032070
           C         -0.929750698501    -0.889729223353     1.349115312449    12.000000000000
           H          0.634844301499    -1.942004223353     0.308313312449     1.007825032070
           H          1.136905301499    -1.217468223353     1.808445312449     1.007825032070
           C         -1.937316698501    -0.834717223353     0.197479312449    12.000000000000
           H         -1.187697698501    -1.725906223353     1.995712312449     1.007825032070
           H         -1.030690698501     0.006168776647     1.959864312449     1.007825032070
           C         -3.389305698501    -0.784027223353     0.677682312449    12.000000000000
           H         -1.801229698501    -1.706786223353    -0.440554687551     1.007825032070
           H         -1.743900698501     0.033498776647    -0.427894687551     1.007825032070
           C         -4.116434698501     0.490369776647     0.250061312449    12.000000000000
           H         -3.925162698501    -1.650292223353     0.295674312449     1.007825032070
           H         -3.412576698501    -0.865736223353     1.762425312449     1.007825032070
           H         -4.138859698501     0.584649776647    -0.831988687551     1.007825032070
           H         -5.142904698501     0.495518776647     0.603569312449     1.007825032070
           H         -3.625687698501     1.374421776647     0.647532312449     1.007825032070

  Charge       = 0
  Multiplicity = 1
  Basis Set: 6-31G*
  Basis Set:

    Orbital Energies (a.u.)
    -----------------------

    Doubly Occupied:

       1A    -20.552231     2A    -11.267001     3A    -11.219702
       4A    -11.216915     5A    -11.216087     6A    -11.215136
       7A    -11.214435     8A    -11.212702     9A    -11.209944
      10A     -1.358982    11A     -1.095355    12A     -1.061613
      13A     -1.010960    14A     -0.947928    15A     -0.888911
      16A     -0.822075    17A     -0.801451    18A     -0.777106
      19A     -0.693674    20A     -0.649804    21A     -0.626941
      22A     -0.614209    23A     -0.613726    24A     -0.586248
      25A     -0.580873    26A     -0.551313    27A     -0.536031
      28A     -0.533343    29A     -0.507751    30A     -0.490970
      31A     -0.488840    32A     -0.474582    33A     -0.471068
      34A     -0.454271    35A     -0.451728    36A     -0.440338
      37A     -0.422609

  @DF-RHF Final Energy:  -388.27579268539012

   => Energetics <=

    Nuclear Repulsion Energy =            461.8032587079668474
    One-Electron Energy =               -1441.6044893885189140
    Two-Electron Energy =                 591.5254379951626333
    DFT Exchange-Correlation Energy =       0.0000000000000000
    Empirical Dispersion Energy =           0.0000000000000000
    PCM Polarization Energy =               0.0000000000000000
    EFP Energy =                            0.0000000000000000
    Total Energy =                       -388.2757926853894332

  Mulliken Charges: (a.u.)
   Center  Symbol    Alpha    Beta     Spin     Total
       1     H     0.27990  0.27990  0.00000  0.44021
       2     O     4.37096  4.37096  0.00000 -0.74192
       3     C     2.99737  2.99737  0.00000  0.00526
       4     C     3.16087  3.16087  0.00000 -0.32175
       5     H     0.41446  0.41446  0.00000  0.17109
       6     H     0.43206  0.43206  0.00000  0.13587
       7     C     3.16325  3.16325  0.00000 -0.32651
       8     H     0.41498  0.41498  0.00000  0.17004
       9     H     0.42435  0.42435  0.00000  0.15130
      10     C     3.15259  3.15259  0.00000 -0.30518
      11     H     0.42281  0.42281  0.00000  0.15438
      12     H     0.42556  0.42556  0.00000  0.14887
      13     C     3.15606  3.15606  0.00000 -0.31212
      14     H     0.42160  0.42160  0.00000  0.15680
      15     H     0.42167  0.42167  0.00000  0.15667
      16     C     3.15622  3.15622  0.00000 -0.31244
      17     H     0.42045  0.42045  0.00000  0.15910
      18     H     0.42413  0.42413  0.00000  0.15174
      19     C     3.15402  3.15402  0.00000 -0.30804
      20     H     0.42096  0.42096  0.00000  0.15807
      21     H     0.42065  0.42065  0.00000  0.15869
      22     C     3.24055  3.24055  0.00000 -0.48110
      23     H     0.42004  0.42004  0.00000  0.15992
      24     H     0.42007  0.42007  0.00000  0.15987
      25     H     0.42150  0.42150  0.00000  0.15701
      26     H     0.42024  0.42024  0.00000  0.15952
      27     H     0.42268  0.42268  0.00000  0.15465

   Total alpha = 37.00000, Total beta = 37.00000, Total charge = -0.00000
