  ==> Input File <==

--------------------------------------------------------------------------
set {
	reference rhf
	basis 6-31G*
}

set_num_threads( 4 )
memory 2 gb

molecule MOL {
0 1

H	 2.409642	 0.182841	 5.896944
C	 1.984642	 -0.647859	 5.342117
C	 0.938150	 -0.164325	 4.339010
H	 2.798956	 -1.160385	 4.838577
H	 1.552100	 -1.338836	 6.060628
C	 0.313165	 -1.312599	 3.543601
H	 1.397107	 0.541936	 3.654791
H	 0.154290	 0.374606	 4.868924
C	 -0.751531	 -0.860938	 2.543755
H	 1.089433	 -1.851627	 3.012093
H	 -0.144294	 -2.016279	 4.235415
C	 -0.201952	 -0.113076	 1.337974
H	 -1.281951	 -1.728751	 2.154748
H	 -1.507260	 -0.248690	 3.030790
C	 -1.181045	 0.701995	 0.511084
O	 0.951916	 -0.174825	 1.036009
C	 -2.285934	 -0.139295	 -0.145128
H	 -0.603273	 1.217732	 -0.246485
H	 -1.634785	 1.453848	 1.154140
C	 -3.651768	 0.085446	 0.506485
H	 -2.346596	 0.110469	 -1.202272
H	 -2.034737	 -1.195320	 -0.088721
C	 -4.759797	 -0.746382	 -0.137905
H	 -3.908762	 1.140117	 0.445781
H	 -3.588286	 -0.154158	 1.565709
H	 -4.868882	 -0.505166	 -1.191300
H	 -4.548009	 -1.809175	 -0.062213
H	 -5.715422	 -0.564821	 0.343442

	symmetry c1
}
set optking {
	frozen_dihedral = ("
		12 15 17 21
	")
}

ee = optimize('scf')
oeprop('DIPOLE', 'QUADRUPOLE', 'MULLIKEN_CHARGES')
f=open( 'psi4out.xyz', 'w' )
f.write( "28  " )
f.write( str(ee) + "\n" )
f.write( MOL.save_string_xyz() )
f.close()
--------------------------------------------------------------------------

    Molecular point group: c1
  Charge       = 0
  Multiplicity = 1
  Basis Set: 6-31G*
  Basis Set:
  @DF-RHF Final Energy:  -426.16365592643797
    Total Energy =                       -426.1636559264375137
    Molecular point group: c1
  Basis Set: 6-31G*
  Basis Set:
  Basis Set: 6-31G*
  Basis Set:
  @DF-RHF Final Energy:  -426.16421296076840
    Total Energy =                       -426.1642129607682818
  Basis Set: 6-31G*
  Basis Set:
  Basis Set: 6-31G*
  Basis Set:
  @DF-RHF Final Energy:  -426.16249182011109
    Total Energy =                       -426.1624918201107448
  Basis Set: 6-31G*
  Basis Set:
  Basis Set: 6-31G*
  Basis Set:
  @DF-RHF Final Energy:  -426.16436904941975
    Total Energy =                       -426.1643690494198609
  Basis Set: 6-31G*
  Basis Set:
  @DF-RHF Final Energy:  -426.16443719323888
    Total Energy =                       -426.1644371932388822
  Basis Set: 6-31G*
  Basis Set:
  @DF-RHF Final Energy:  -426.16445146566093
    Total Energy =                       -426.1644514656610454
  Basis Set: 6-31G*
  Basis Set:
  Basis Set: 6-31G*
  Basis Set:
  @DF-RHF Final Energy:  -426.16445404572789
    Total Energy =                       -426.1644540457283483
  Basis Set: 6-31G*
  Basis Set:
  Basis Set: 6-31G*
  Basis Set:
  @DF-RHF Final Energy:  -426.16445794182823
    Total Energy =                       -426.1644579418286867
  Basis Set: 6-31G*
  Basis Set:
  Charge       = 0
  Multiplicity = 1
  Basis Set: 6-31G*
  Basis Set:

    Orbital Energies (a.u.)
    -----------------------

    Doubly Occupied:

       1A    -20.548100     2A    -11.322195     3A    -11.232795
       4A    -11.230460     5A    -11.228408     6A    -11.227802
       7A    -11.217338     8A    -11.216140     9A    -11.210621
      10A    -11.204755    11A     -1.393413    12A     -1.093761
      13A     -1.076425    14A     -1.021775    15A     -0.990867
      16A     -0.908114    17A     -0.874002    18A     -0.812229
      19A     -0.796665    20A     -0.724895    21A     -0.668957
      22A     -0.651920    23A     -0.623176    24A     -0.614306
      25A     -0.610508    26A     -0.591755    27A     -0.576714
      28A     -0.572020    29A     -0.546455    30A     -0.533239
      31A     -0.521208    32A     -0.514056    33A     -0.500332
      34A     -0.481646    35A     -0.478727    36A     -0.476870
      37A     -0.465618    38A     -0.462333    39A     -0.454722
      40A     -0.392744

  @DF-RHF Final Energy:  -426.16445849602712

   => Energetics <=

    Nuclear Repulsion Energy =            536.9357543618872342
    One-Electron Energy =               -1642.0642901998330672
    Two-Electron Energy =                 678.9640773419187099
    DFT Exchange-Correlation Energy =       0.0000000000000000
    Empirical Dispersion Energy =           0.0000000000000000
    PCM Polarization Energy =               0.0000000000000000
    EFP Energy =                            0.0000000000000000
    Total Energy =                       -426.1644584960272368
    Molecular point group: c1
  Basis Set: 6-31G*
  Basis Set:

  -Total Gradient:
     Atom            X                  Y                   Z
    ------   -----------------  -----------------  -----------------
       1        0.000005870821    -0.000000206041    -0.000001948865
       2        0.000002907606     0.000002015618    -0.000006792515
       3       -0.000003233699     0.000006716157    -0.000005253426
       4       -0.000001656614    -0.000005439967     0.000001367718
       5       -0.000000664415     0.000005844251     0.000001303468
       6        0.000000767405     0.000001972497    -0.000015285001
       7       -0.000005346308    -0.000011426963     0.000011748129
       8       -0.000002755750     0.000003098419     0.000007925100
       9       -0.000055177236    -0.000042952782    -0.000050438726
      10        0.000005201155    -0.000017075063     0.000000751088
      11        0.000012039254     0.000005689106     0.000001595659
      12        0.000610484491    -0.000062688419    -0.000724189306
      13        0.000018825907     0.000018906013     0.000030654958
      14       -0.000005769186     0.000012995092     0.000005426782
      15       -0.000614344054    -0.000067509448     0.000922422369
      16       -0.000006007709     0.000008312980     0.000023780363
      17       -0.000887163361     0.000973525186    -0.000016055449
      18       -0.000002270109     0.000003755921     0.000005922584
      19        0.000018084050    -0.000006470463     0.000000658538
      20       -0.000038832574    -0.000001646401     0.000033619011
      21        0.000920753629    -0.000851764046    -0.000195621920
      22        0.000003966270     0.000014239481    -0.000011933464
      23        0.000010620968     0.000002647937    -0.000002509051
      24        0.000001474758     0.000008624316    -0.000004539473
      25        0.000005579568     0.000000322958    -0.000010322114
      26       -0.000003056233    -0.000002867462    -0.000007165919
      27       -0.000002978708    -0.000007607368    -0.000001154750
      28        0.000012680075     0.000008988493     0.000006034214

  **** Optimization is complete! (in 9 steps) ****
    Final optimized geometry and variables:
    Molecular point group: c1

    Geometry (in Angstrom), charge = 0, multiplicity = 1:

    H            3.675565129043     0.195250043820     3.825279606746
    C            3.036856539698    -0.536597580684     3.340506839290
    C            2.007132437811     0.141263435511     2.437574705323
    H            3.674608033195    -1.205481703783     2.770132363117
    H            2.554686194494    -1.121990488777     4.118855841257
    C            1.083720135175    -0.863358379277     1.744610273608
    H            2.520237589088     0.735733709875     1.689733659699
    H            1.406986238513     0.829405705469     3.030955757460
    C            0.032004460131    -0.215860541439     0.843878717117
    H            1.676238626092    -1.555712730707     1.156284999684
    H            0.569765293533    -1.451836422404     2.501401133829
    C            0.574641931983     0.355635688467    -0.456816806151
    H           -0.730410936360    -0.945545680673     0.575990315192
    H           -0.496885027383     0.574245791181     1.373200136484
    C           -0.392760048235     1.131140883063    -1.335425336071
    O            1.705074845014     0.181835125929    -0.800222144754
    C           -1.412416535856     0.215804907245    -2.062294736266
    H            0.212550137284     1.665752661467    -2.055661753376
    H           -0.919350298593     1.868010919289    -0.734890317378
    C           -2.838721696613     0.306951091467    -1.515254840655
    H           -1.418085875003     0.471425627110    -3.117001151913
    H           -1.076064093998    -0.817904325965    -2.021381641571
    C           -3.812099009715    -0.616459809118    -2.245978644623
    H           -3.184199415166     1.335122307523    -1.596295457651
    H           -2.842374559793     0.068253424700    -0.454187447077
    H           -3.855219690340    -0.380736478454    -3.305412696688
    H           -3.513175234256    -1.656521408448    -2.151449222025
    H           -4.816353446969    -0.523154324275    -1.845097000230

  Mulliken Charges: (a.u.)
   Center  Symbol    Alpha    Beta     Spin     Total
       1     H     0.41942  0.41942  0.00000  0.16117
       2     C     3.24025  3.24025  0.00000 -0.48051
       3     C     3.15612  3.15612  0.00000 -0.31224
       4     H     0.41862  0.41862  0.00000  0.16276
       5     H     0.42406  0.42406  0.00000  0.15188
       6     C     3.14829  3.14829  0.00000 -0.29658
       7     H     0.40780  0.40780  0.00000  0.18439
       8     H     0.42814  0.42814  0.00000  0.14371
       9     C     3.21232  3.21232  0.00000 -0.42463
      10     H     0.40852  0.40852  0.00000  0.18297
      11     H     0.42231  0.42231  0.00000  0.15538
      12     C     2.73777  2.73777  0.00000  0.52446
      13     H     0.40448  0.40448  0.00000  0.19104
      14     H     0.41118  0.41118  0.00000  0.17764
      15     C     3.20149  3.20149  0.00000 -0.40297
      16     O     4.26541  4.26541  0.00000 -0.53082
      17     C     3.16369  3.16369  0.00000 -0.32738
      18     H     0.39761  0.39761  0.00000  0.20478
      19     H     0.41220  0.41220  0.00000  0.17561
      20     C     3.15506  3.15506  0.00000 -0.31013
      21     H     0.41116  0.41116  0.00000  0.17768
      22     H     0.41482  0.41482  0.00000  0.17035
      23     C     3.24088  3.24088  0.00000 -0.48175
      24     H     0.41987  0.41987  0.00000  0.16026
      25     H     0.42177  0.42177  0.00000  0.15646
      26     H     0.41946  0.41946  0.00000  0.16108
      27     H     0.42025  0.42025  0.00000  0.15950
      28     H     0.41706  0.41706  0.00000  0.16588

   Total alpha = 40.00000, Total beta = 40.00000, Total charge = -0.00000
