  ==> Input File <==

--------------------------------------------------------------------------
set {
	reference rhf
	basis cc-pvtz
}

set_num_threads( 4 )
memory 2 gb

molecule MOL {
0 1

H	 0.965108	 1.328518	 -1.805509
O	 1.214233	 1.567580	 -0.930731
C	 0.706474	 0.636793	 -0.025501
C	 -0.793473	 0.591216	 0.050087
H	 1.104486	 0.905157	 0.946029
H	 1.077678	 -0.362103	 -0.247117
C	 -1.534243	 -0.493009	 -0.013340
H	 -1.266611	 1.552628	 0.164437
H	 -1.101195	 -1.466332	 -0.144046
H	 -2.604242	 -0.437780	 0.050785

	symmetry c1
}
set optking {
	frozen_dihedral = ("
		5 3 4 7
	")
}

ee = optimize('scf')
oeprop('DIPOLE', 'QUADRUPOLE', 'MULLIKEN_CHARGES')
f=open( 'psi4out.xyz', 'w' )
f.write( "10  " )
f.write( str(ee) + "\n" )
f.write( MOL.save_string_xyz() )
f.close()
--------------------------------------------------------------------------

    Molecular point group: c1
  Charge       = 0
  Multiplicity = 1
  Basis Set: CC-PVTZ
  Basis Set:
  @DF-RHF Final Energy:  -191.99854800166833
    Total Energy =                       -191.9985480016681549
    Molecular point group: c1
  Basis Set: CC-PVTZ
  Basis Set:
  Basis Set: CC-PVTZ
  Basis Set:
  @DF-RHF Final Energy:  -191.99892196371212
    Total Energy =                       -191.9989219637120641
  Basis Set: CC-PVTZ
  Basis Set:
  Basis Set: CC-PVTZ
  Basis Set:
  @DF-RHF Final Energy:  -191.99899408993517
    Total Energy =                       -191.9989940899349961
  Basis Set: CC-PVTZ
  Basis Set:
  Basis Set: CC-PVTZ
  Basis Set:
  @DF-RHF Final Energy:  -191.99899878568533
    Total Energy =                       -191.9989987856853304
  Basis Set: CC-PVTZ
  Basis Set:
  Charge       = 0
  Multiplicity = 1
  Basis Set: CC-PVTZ
  Basis Set:

    Orbital Energies (a.u.)
    -----------------------

    Doubly Occupied:

       1A    -20.552339     2A    -11.275938     3A    -11.231028
       4A    -11.224504     5A     -1.370984     6A     -1.068038
       7A     -0.924700     8A     -0.778620     9A     -0.708112
      10A     -0.626539    11A     -0.616854    12A     -0.612320
      13A     -0.531033    14A     -0.494131    15A     -0.450113
      16A     -0.377049

  @DF-RHF Final Energy:  -191.99899923853019

   => Energetics <=

    Nuclear Repulsion Energy =            117.6021063623206118
    One-Electron Energy =                -493.5176066658202672
    Two-Electron Energy =                 183.9165010649693670
    DFT Exchange-Correlation Energy =       0.0000000000000000
    Empirical Dispersion Energy =           0.0000000000000000
    PCM Polarization Energy =               0.0000000000000000
    EFP Energy =                            0.0000000000000000
    Total Energy =                       -191.9989992385302742
    Molecular point group: c1
  Basis Set: CC-PVTZ
  Basis Set:

  -Total Gradient:
     Atom            X                  Y                   Z
    ------   -----------------  -----------------  -----------------
       1       -0.000004282923    -0.000011251309     0.000015412846
       2        0.000014260524     0.000025562697     0.000024470444
       3        0.000003992408     0.001199843006     0.000080439961
       4       -0.000084237957    -0.000158938342    -0.001389454520
       5        0.000019674314    -0.000994117942     0.000264432922
       6       -0.000006859942    -0.000009204919     0.000017684401
       7        0.000053225765    -0.000043701461     0.000987304707
       8        0.000006047774    -0.000005566865     0.000003845089
       9       -0.000002655914     0.000003587342     0.000003786415
      10        0.000000835953    -0.000006212208    -0.000007922266

  **** Optimization is complete! (in 5 steps) ****
    Final optimized geometry and variables:
    Molecular point group: c1

    Geometry (in Angstrom), charge = 0, multiplicity = 1:

    H            0.940717837084     0.742995875070    -1.518148631350
    O            1.241001139700     0.949775816582    -0.651275816644
    C            0.741599520684     0.007702469895     0.257665613236
    C           -0.758669446038    -0.004810123213     0.306372576678
    H            1.136781326799     0.289368701697     1.225421346663
    H            1.113632525623    -0.988097853616     0.034856267941
    C           -1.497539262461    -1.091544852302     0.252296027416
    H           -1.225449119896     0.960030349103     0.411543469754
    H           -1.058844252969    -2.067528104313     0.144213454341
    H           -2.568234853968    -1.048001531916     0.318382247622

  Mulliken Charges: (a.u.)
   Center  Symbol    Alpha    Beta     Spin     Total
       1     H     0.39365  0.39365  0.00000  0.21270
       2     O     4.20043  4.20043  0.00000 -0.40085
       3     C     2.94869  2.94869  0.00000  0.10262
       4     C     3.08363  3.08363  0.00000 -0.16726
       5     H     0.45841  0.45841  0.00000  0.08319
       6     H     0.46923  0.46923  0.00000  0.06154
       7     C     3.17212  3.17212  0.00000 -0.34424
       8     H     0.41772  0.41772  0.00000  0.16457
       9     H     0.42977  0.42977  0.00000  0.14046
      10     H     0.42636  0.42636  0.00000  0.14728

   Total alpha = 16.00000, Total beta = 16.00000, Total charge = -0.00000
