  ==> Input File <==

--------------------------------------------------------------------------
set {
	reference rhf
	basis 6-31G*
}

set_num_threads( 4 )
memory 2 gb

molecule MOL {
0 1

H	 2.612987	 1.638072	 2.139937
O	 1.678345	 1.529849	 2.246422
C	 1.117919	 1.028062	 1.124582
C	 1.862338	 0.727818	 -0.008996
C	 -0.249503	 0.814644	 1.130886
H	 2.926383	 0.894656	 -0.011816
C	 1.239531	 0.214857	 -1.134453
H	 -0.825678	 1.046129	 2.005822
C	 -0.865228	 0.300799	 0.000000
H	 1.826083	 -0.013643	 -2.005730
C	 -0.126583	 -0.001609	 -1.136980
C	 -2.333960	 0.069074	 0.000000
H	 -0.612401	 -0.399969	 -2.010076
O	 -2.847347	 -1.003763	 0.000000
H	 -2.943845	 0.977528	 0.000000

	symmetry c1
}
set optking {
	frozen_dihedral = ("
		11 9 12 14
	")
}

ee = optimize('scf')
oeprop('DIPOLE', 'QUADRUPOLE', 'MULLIKEN_CHARGES')
f=open( 'psi4out.xyz', 'w' )
f.write( "15  " )
f.write( str(ee) + "\n" )
f.write( MOL.save_string_xyz() )
f.close()
--------------------------------------------------------------------------

    Molecular point group: c1
  Charge       = 0
  Multiplicity = 1
  Basis Set: 6-31G*
  Basis Set:
  @DF-RHF Final Energy:  -418.27486505637700
    Total Energy =                       -418.2748650563763704
    Molecular point group: c1
  Basis Set: 6-31G*
  Basis Set:
  Basis Set: 6-31G*
  Basis Set:
  @DF-RHF Final Energy:  -418.27467344622119
    Total Energy =                       -418.2746734462216409
  Basis Set: 6-31G*
  Basis Set:
  Basis Set: 6-31G*
  Basis Set:
  @DF-RHF Final Energy:  -418.27475041859486
    Total Energy =                       -418.2747504185952039
  Basis Set: 6-31G*
  Basis Set:
  Basis Set: 6-31G*
  Basis Set:
  @DF-RHF Final Energy:  -418.27539742740964
    Total Energy =                       -418.2753974274093025
  Basis Set: 6-31G*
  Basis Set:
  Basis Set: 6-31G*
  Basis Set:
  @DF-RHF Final Energy:  -418.27543807793143
    Total Energy =                       -418.2754380779314261
  Basis Set: 6-31G*
  Basis Set:
  Charge       = 0
  Multiplicity = 1
  Basis Set: 6-31G*
  Basis Set:

    Orbital Energies (a.u.)
    -----------------------

    Doubly Occupied:

       1A    -20.603563     2A    -20.572229     3A    -11.336267
       4A    -11.314213     5A    -11.256914     6A    -11.251639
       7A    -11.243169     8A    -11.241176     9A    -11.239357
      10A     -1.423272    11A     -1.411401    12A     -1.168077
      13A     -1.048804    14A     -1.023470    15A     -0.899524
      16A     -0.842488    17A     -0.816671    18A     -0.738541
      19A     -0.699749    20A     -0.671103    21A     -0.668856
      22A     -0.635780    23A     -0.613485    24A     -0.601420
      25A     -0.582395    26A     -0.542440    27A     -0.531144
      28A     -0.512704    29A     -0.491280    30A     -0.423281
      31A     -0.353623    32A     -0.324072

  @DF-RHF Final Energy:  -418.27543935810979

   => Energetics <=

    Nuclear Repulsion Energy =            401.6884861744962336
    One-Electron Energy =               -1365.7636396970174246
    Two-Electron Energy =                 545.7997141644109433
    DFT Exchange-Correlation Energy =       0.0000000000000000
    Empirical Dispersion Energy =           0.0000000000000000
    PCM Polarization Energy =               0.0000000000000000
    EFP Energy =                            0.0000000000000000
    Total Energy =                       -418.2754393581102477
    Molecular point group: c1
  Basis Set: 6-31G*
  Basis Set:

  -Total Gradient:
     Atom            X                  Y                   Z
    ------   -----------------  -----------------  -----------------
       1        0.000003586862     0.000009734301     0.000016020831
       2        0.000034265991     0.000001122563    -0.000000726254
       3       -0.000191265852     0.000011212944     0.000090782047
       4        0.000011248960    -0.000112225527    -0.000149986200
       5        0.000128892744     0.000072035382     0.000028163531
       6       -0.000004555523     0.000016182394     0.000001631003
       7        0.000110287114     0.000048453625     0.000057341143
       8       -0.000004003748    -0.000002258819    -0.000000259967
       9        0.000783111716    -0.006166974047     0.004360180126
      10       -0.000007146529    -0.000012269297    -0.000008185337
      11       -0.000635960164     0.004183750599    -0.001354775098
      12       -0.000249209094     0.002123678228    -0.008384402058
      13        0.000005854894    -0.000005242104    -0.000000602887
      14       -0.000000144914    -0.000172023767     0.005349545304
      15        0.000015037537     0.000004823525    -0.000004726189

  **** Optimization is complete! (in 6 steps) ****
    Final optimized geometry and variables:
    Molecular point group: c1

    Geometry (in Angstrom), charge = 0, multiplicity = 1:

    H            2.671183479456     1.225324125850     1.861986611123
    O            1.734596336880     1.122561069357     1.957594679232
    C            1.188424243884     0.613852878496     0.832584017728
    C            1.938253953261     0.321340111814    -0.296031965325
    C           -0.181781038781     0.397523898164     0.832205834734
    H            3.000261259349     0.499536380235    -0.299406358473
    C            1.314170182316    -0.194846904355    -1.420215646576
    H           -0.745458100068     0.646841122512     1.713102057761
    C           -0.789161651500    -0.146758730359    -0.286009234070
    H            1.900082963246    -0.412782245201    -2.294843473448
    C           -0.048196349621    -0.431593947143    -1.426372556195
    C           -2.276425814957    -0.336469758122    -0.289147019131
    H           -0.528392367462    -0.843125452469    -2.294830405130
    O           -2.809966664610    -1.396815963026    -0.320776577247
    H           -2.867464478129     0.581041305230    -0.218940154918

  Mulliken Charges: (a.u.)
   Center  Symbol    Alpha    Beta     Spin     Total
       1     H     0.27002  0.27002  0.00000  0.45996
       2     O     4.37665  4.37665  0.00000 -0.75330
       3     C     2.79087  2.79087  0.00000  0.41827
       4     C     3.14125  3.14125  0.00000 -0.28249
       5     C     3.13087  3.13087  0.00000 -0.26173
       6     H     0.40037  0.40037  0.00000  0.19926
       7     C     3.08944  3.08944  0.00000 -0.17888
       8     H     0.38552  0.38552  0.00000  0.22895
       9     C     3.02308  3.02308  0.00000 -0.04617
      10     H     0.39328  0.39328  0.00000  0.21343
      11     C     3.11424  3.11424  0.00000 -0.22847
      12     C     2.84948  2.84948  0.00000  0.30104
      13     H     0.38935  0.38935  0.00000  0.22131
      14     O     4.22418  4.22418  0.00000 -0.44835
      15     H     0.42141  0.42141  0.00000  0.15717

   Total alpha = 32.00000, Total beta = 32.00000, Total charge = -0.00000
