  ==> Input File <==

--------------------------------------------------------------------------
set {
	reference rhf
	basis cc-pvtz
}

set_num_threads( 4 )
memory 2 gb

molecule MOL {
0 1

H	 -2.644180	 -0.653737	 1.272255
C	 -2.092774	 -0.380414	 0.391915
O	 -0.808934	 -0.154049	 0.752536
F	 -2.163230	 -1.351640	 -0.507133
F	 -2.627232	 0.691260	 -0.169301
C	 0.085006	 0.250800	 -0.215074
C	 1.370439	 -0.548013	 -0.012993
Cl	 0.421658	 1.987697	 -0.091007
H	 -0.272219	 0.063284	 -1.212508
F	 1.265535	 -1.731453	 -0.562073
F	 1.571548	 -0.715356	 1.272646
F	 2.412406	 0.055746	 -0.515020

	symmetry c1
}
set optking {
	frozen_dihedral = ("
		10 7 6 9
	")
}

ee = optimize('scf')
oeprop('DIPOLE', 'QUADRUPOLE', 'MULLIKEN_CHARGES')
f=open( 'psi4out.xyz', 'w' )
f.write( "12  " )
f.write( str(ee) + "\n" )
f.write( MOL.save_string_xyz() )
f.close()
--------------------------------------------------------------------------

    Molecular point group: c1
  Charge       = 0
  Multiplicity = 1
  Basis Set: CC-PVTZ
  Basis Set:
  @DF-RHF Final Energy: -1146.61643587068238
    Total Energy =                      -1146.6164358706814710
    Molecular point group: c1
  Basis Set: CC-PVTZ
  Basis Set:
  Basis Set: CC-PVTZ
  Basis Set:
  @DF-RHF Final Energy: -1146.61731111086124
    Total Energy =                      -1146.6173111108619196
  Basis Set: CC-PVTZ
  Basis Set:
  Basis Set: CC-PVTZ
  Basis Set:
  @DF-RHF Final Energy: -1146.61799957047015
    Total Energy =                      -1146.6179995704703742
  Basis Set: CC-PVTZ
  Basis Set:
  Basis Set: CC-PVTZ
  Basis Set:
  @DF-RHF Final Energy: -1146.61803696859852
    Total Energy =                      -1146.6180369685987444
  Basis Set: CC-PVTZ
  Basis Set:
  Basis Set: CC-PVTZ
  Basis Set:
  @DF-RHF Final Energy: -1146.61804351103001
    Total Energy =                      -1146.6180435110291000
  Basis Set: CC-PVTZ
  Basis Set:
  Basis Set: CC-PVTZ
  Basis Set:
  @DF-RHF Final Energy: -1146.61804485515313
    Total Energy =                      -1146.6180448551549489
  Basis Set: CC-PVTZ
  Basis Set:
  Charge       = 0
  Multiplicity = 1
  Basis Set: CC-PVTZ
  Basis Set:

    Orbital Energies (a.u.)
    -----------------------

    Doubly Occupied:

       1A   -104.857547     2A    -26.354785     3A    -26.353955
       4A    -26.352628     5A    -26.342794     6A    -26.342620
       7A    -20.639947     8A    -11.520767     9A    -11.483120
      10A    -11.401145    11A    -10.583094    12A     -8.049901
      13A     -8.047893    14A     -8.047832    15A     -1.768030
      16A     -1.724139    17A     -1.663812    18A     -1.659962
      19A     -1.644242    20A     -1.485593    21A     -1.178316
      22A     -1.053436    23A     -0.989785    24A     -0.924349
      25A     -0.864277    26A     -0.857685    27A     -0.852232
      28A     -0.829163    29A     -0.817380    30A     -0.794271
      31A     -0.732275    32A     -0.731568    33A     -0.712133
      34A     -0.708210    35A     -0.684379    36A     -0.681237
      37A     -0.665049    38A     -0.663806    39A     -0.649824
      40A     -0.638185    41A     -0.598264    42A     -0.581569
      43A     -0.526044    44A     -0.478162    45A     -0.470739

  @DF-RHF Final Energy: -1146.61804548039231

   => Energetics <=

    Nuclear Repulsion Energy =            737.7481669684646022
    One-Electron Energy =               -3058.7201481538786538
    Two-Electron Energy =                1174.3539357050217404
    DFT Exchange-Correlation Energy =       0.0000000000000000
    Empirical Dispersion Energy =           0.0000000000000000
    PCM Polarization Energy =               0.0000000000000000
    EFP Energy =                            0.0000000000000000
    Total Energy =                      -1146.6180454803920838
    Molecular point group: c1
  Basis Set: CC-PVTZ
  Basis Set:

  -Total Gradient:
     Atom            X                  Y                   Z
    ------   -----------------  -----------------  -----------------
       1       -0.000023018069    -0.000014409764    -0.000009793236
       2        0.000045752292    -0.000048555935     0.000052549908
       3       -0.000113688376     0.000029030894    -0.000006178592
       4       -0.000017931347     0.000008063999    -0.000003663174
       5       -0.000036311424     0.000005422384    -0.000022121888
       6        0.004724808383     0.006305846204    -0.004058777214
       7       -0.003167329350    -0.003155971915     0.006253973023
       8        0.000032066869     0.000047126137     0.000043535476
       9       -0.003480503922    -0.004867033595     0.002362548933
      10        0.001852483514     0.001703452990    -0.004513022362
      11       -0.000027767715    -0.000000760321    -0.000072238977
      12        0.000211439171    -0.000012210997    -0.000026811901

  **** Optimization is complete! (in 7 steps) ****
    Final optimized geometry and variables:
    Molecular point group: c1

    Geometry (in Angstrom), charge = 0, multiplicity = 1:

    H           -2.650771403405    -0.680552231600     1.230723761513
    C           -2.090733664275    -0.388123867520     0.361900618117
    O           -0.810590889156    -0.171998728922     0.738638763038
    F           -2.154381904248    -1.340234040023    -0.558934278272
    F           -2.621008525725     0.695186906448    -0.181104959782
    C            0.095057606218     0.260000767458    -0.214096890912
    C            1.378462181758    -0.549502422284     0.004822161083
    CL           0.391745818687     1.996511180155    -0.066439305120
    H           -0.268245269558     0.042893820976    -1.202967984973
    F            1.212332949035    -1.741994658502    -0.522092360937
    F            1.670547193790    -0.682542159141     1.267234114354
    F            2.398597810150     0.001407889816    -0.602554899569

  Mulliken Charges: (a.u.)
   Center  Symbol    Alpha    Beta     Spin     Total
       1     H     0.45202  0.45202  0.00000  0.09596
       2     C     2.74031  2.74031  0.00000  0.51937
       3     O     4.15605  4.15605  0.00000 -0.31211
       4     F     4.61852  4.61852  0.00000 -0.23703
       5     F     4.61517  4.61517  0.00000 -0.23033
       6     C     2.94275  2.94275  0.00000  0.11450
       7     C     2.66941  2.66941  0.00000  0.66118
       8    CL     8.57044  8.57044  0.00000 -0.14089
       9     H     0.43043  0.43043  0.00000  0.13914
      10     F     4.60620  4.60620  0.00000 -0.21240
      11     F     4.59800  4.59800  0.00000 -0.19600
      12     F     4.60070  4.60070  0.00000 -0.20140

   Total alpha = 45.00000, Total beta = 45.00000, Total charge = -0.00000
