  ==> Input File <==

--------------------------------------------------------------------------
set {
	reference rhf
	basis 6-31G*
}

set_num_threads( 4 )
memory 2 gb

molecule MOL {
0 1

H	 0.957514	 -5.286026	 -1.978284
O	 1.865988	 -5.100799	 -2.166529
C	 1.975727	 -3.839604	 -2.775953
C	 1.745440	 -2.682945	 -1.809602
H	 2.982067	 -3.790488	 -3.171606
H	 1.292280	 -3.763918	 -3.620910
C	 0.331305	 -2.631585	 -1.226119
H	 2.470447	 -2.757689	 -1.003287
H	 1.952785	 -1.753635	 -2.337577
C	 0.115918	 -1.429151	 -0.302766
H	 0.137703	 -3.549340	 -0.677840
H	 -0.394428	 -2.592495	 -2.038599
C	 -1.309753	 -1.282496	 0.241564
H	 0.814740	 -1.487387	 0.529763
H	 0.370699	 -0.523365	 -0.848969
C	 -2.037799	 -0.007733	 -0.193645
H	 -1.890610	 -2.142323	 -0.085726
H	 -1.285946	 -1.330893	 1.329189
C	 -3.489788	 0.042957	 0.286558
H	 -2.017067	 0.064384	 -1.280144
H	 -1.513726	 0.868678	 0.179924
C	 -4.216917	 1.317354	 -0.141063
H	 -4.025645	 -0.823308	 -0.095450
H	 -3.513059	 -0.038752	 1.371301
H	 -4.239342	 1.411634	 -1.223113
H	 -5.243387	 1.322503	 0.212445
H	 -3.726170	 2.201406	 0.256408

	symmetry c1
}
set optking {
	frozen_dihedral = ("
		14 10 13 16
	")
}

ee = optimize('scf')
oeprop('DIPOLE', 'QUADRUPOLE', 'MULLIKEN_CHARGES')
f=open( 'psi4out.xyz', 'w' )
f.write( "27  " )
f.write( str(ee) + "\n" )
f.write( MOL.save_string_xyz() )
f.close()
--------------------------------------------------------------------------

    Molecular point group: c1
  Charge       = 0
  Multiplicity = 1
  Basis Set: 6-31G*
  Basis Set:
  @DF-RHF Final Energy:  -388.27753408705206
    Total Energy =                       -388.2775340870518903
    Molecular point group: c1
  Basis Set: 6-31G*
  Basis Set:
  Basis Set: 6-31G*
  Basis Set:
  @DF-RHF Final Energy:  -388.27796388318541
    Total Energy =                       -388.2779638831856346
  Basis Set: 6-31G*
  Basis Set:
  Basis Set: 6-31G*
  Basis Set:
  @DF-RHF Final Energy:  -388.27804705539643
    Total Energy =                       -388.2780470553964278
  Basis Set: 6-31G*
  Basis Set:
  Basis Set: 6-31G*
  Basis Set:
  @DF-RHF Final Energy:  -388.27807053804065
    Total Energy =                       -388.2780705380407653
  Basis Set: 6-31G*
  Basis Set:
  Basis Set: 6-31G*
  Basis Set:
  @DF-RHF Final Energy:  -388.27807530499643
    Total Energy =                       -388.2780753049963778
  Basis Set: 6-31G*
  Basis Set:
  Charge       = 0
  Multiplicity = 1
  Basis Set: 6-31G*
  Basis Set:

    Orbital Energies (a.u.)
    -----------------------

    Doubly Occupied:

       1A    -20.552189     2A    -11.267114     3A    -11.220823
       4A    -11.216728     5A    -11.215917     6A    -11.215282
       7A    -11.215151     8A    -11.214685     9A    -11.209480
      10A     -1.358997    11A     -1.093769    12A     -1.062546
      13A     -1.010666    14A     -0.950370    15A     -0.883055
      16A     -0.820919    17A     -0.793444    18A     -0.790069
      19A     -0.693986    20A     -0.651437    21A     -0.635726
      22A     -0.615256    23A     -0.603355    24A     -0.581840
      25A     -0.579190    26A     -0.554269    27A     -0.537572
      28A     -0.522130    29A     -0.507696    30A     -0.501152
      31A     -0.477565    32A     -0.476337    33A     -0.470790
      34A     -0.462943    35A     -0.453178    36A     -0.441285
      37A     -0.421209

  @DF-RHF Final Energy:  -388.27807472971489

   => Energetics <=

    Nuclear Repulsion Energy =            453.3838308413658638
    One-Electron Energy =               -1424.7675731182059735
    Two-Electron Energy =                 583.1056675471255630
    DFT Exchange-Correlation Energy =       0.0000000000000000
    Empirical Dispersion Energy =           0.0000000000000000
    PCM Polarization Energy =               0.0000000000000000
    EFP Energy =                            0.0000000000000000
    Total Energy =                       -388.2780747297146036
    Molecular point group: c1
  Basis Set: 6-31G*
  Basis Set:

  -Total Gradient:
     Atom            X                  Y                   Z
    ------   -----------------  -----------------  -----------------
       1       -0.000007644769    -0.000004271104     0.000007735422
       2       -0.000021497321    -0.000009823445    -0.000000017737
       3        0.000033652257     0.000006186699     0.000028738685
       4        0.000012351594    -0.000001174213     0.000008567395
       5        0.000001892963     0.000003259013    -0.000000859351
       6       -0.000000869087     0.000001470302     0.000002653075
       7        0.000010954631     0.000013205733     0.000012309976
       8        0.000018861165     0.000006402046    -0.000012598158
       9       -0.000008621159    -0.000005443444    -0.000004328467
      10       -0.000060064137    -0.000416642553     0.000008405404
      11       -0.000005370578     0.000006568338    -0.000026296330
      12        0.000009453099     0.000044368009    -0.000002869718
      13       -0.000086704862    -0.000017132641    -0.000304368261
      14        0.000039150231     0.000293789633     0.000013311385
      15       -0.000009884245    -0.000021304181    -0.000020130124
      16        0.000092214953     0.000110952961     0.000228806224
      17       -0.000018559123     0.000001700463     0.000009818677
      18        0.000004898835     0.000033850597     0.000012167722
      19       -0.000000190987    -0.000007743281     0.000020627410
      20        0.000022804252    -0.000011125482     0.000008843074
      21       -0.000025824787    -0.000015384892     0.000023745143
      22       -0.000000365538    -0.000015908323    -0.000027043196
      23        0.000003444806    -0.000006569188     0.000017177896
      24       -0.000003731299     0.000013631870     0.000003353853
      25        0.000000064443     0.000009873634    -0.000006496690
      26        0.000000637601    -0.000007747838    -0.000006283252
      27       -0.000001052945    -0.000004988712     0.000005029946

  **** Optimization is complete! (in 6 steps) ****
    Final optimized geometry and variables:
    Molecular point group: c1

    Geometry (in Angstrom), charge = 0, multiplicity = 1:

    H            1.461849364555    -3.484667408203    -1.064118120542
    O            2.378934713926    -3.323864491881    -1.232227829099
    C            2.536074429026    -2.064262130599    -1.834218427933
    C            2.304940000059    -0.904892412834    -0.871182061575
    H            3.554426491076    -2.038312050470    -2.200084421952
    H            1.879645629618    -1.970266848174    -2.698560814449
    C            0.876812057040    -0.821453849505    -0.329324370682
    H            3.004389297232    -0.998343237706    -0.044472258496
    H            2.548823864617     0.020852940526    -1.389872715050
    C            0.653552024239     0.376434462060     0.597071641270
    H            0.639341814300    -1.732763689859     0.215847781617
    H            0.174708938902    -0.764573516786    -1.161280788036
    C           -0.788024754777     0.475942342401     1.144635202650
    H            1.361424410722     0.320475165745     1.419648518846
    H            0.901693913311     1.286496983314     0.055493497816
    C           -1.520402090343     1.749024407287     0.713721881278
    H           -1.364008750350    -0.387302349368     0.817985478128
    H           -0.775695292037     0.428823988892     2.230433522752
    C           -2.954087942749     1.831738931997     1.239152678808
    H           -1.531917888903     1.805376081227    -0.374053058000
    H           -0.961048991198     2.617942465843     1.056431046549
    C           -3.678860378652     3.104247075526     0.801708990679
    H           -3.513290214519     0.962911978223     0.898060951232
    H           -2.942596552698     1.778725082371     2.325829940542
    H           -3.736746456385     3.170077232418    -0.281171555039
    H           -4.692622948071     3.133024288343     1.189072379102
    H           -3.163286988044     3.991410847991     1.158550039243

  Mulliken Charges: (a.u.)
   Center  Symbol    Alpha    Beta     Spin     Total
       1     H     0.27991  0.27991  0.00000  0.44018
       2     O     4.37094  4.37094  0.00000 -0.74187
       3     C     2.99720  2.99720  0.00000  0.00559
       4     C     3.16212  3.16212  0.00000 -0.32423
       5     H     0.41441  0.41441  0.00000  0.17118
       6     H     0.43209  0.43209  0.00000  0.13583
       7     C     3.16337  3.16337  0.00000 -0.32674
       8     H     0.41494  0.41494  0.00000  0.17013
       9     H     0.42406  0.42406  0.00000  0.15189
      10     C     3.15408  3.15408  0.00000 -0.30817
      11     H     0.42456  0.42456  0.00000  0.15088
      12     H     0.42488  0.42488  0.00000  0.15025
      13     C     3.15558  3.15558  0.00000 -0.31117
      14     H     0.41873  0.41873  0.00000  0.16254
      15     H     0.42025  0.42025  0.00000  0.15951
      16     C     3.15246  3.15246  0.00000 -0.30493
      17     H     0.42212  0.42212  0.00000  0.15576
      18     H     0.42007  0.42007  0.00000  0.15986
      19     C     3.15218  3.15218  0.00000 -0.30437
      20     H     0.42476  0.42476  0.00000  0.15049
      21     H     0.42306  0.42306  0.00000  0.15387
      22     C     3.23917  3.23917  0.00000 -0.47834
      23     H     0.42335  0.42335  0.00000  0.15330
      24     H     0.42281  0.42281  0.00000  0.15438
      25     H     0.42201  0.42201  0.00000  0.15597
      26     H     0.41924  0.41924  0.00000  0.16151
      27     H     0.42165  0.42165  0.00000  0.15669

   Total alpha = 37.00000, Total beta = 37.00000, Total charge =  0.00000
