                              Psi4 1.0.54 Driver

  ==> Input File <==

--------------------------------------------------------------------------
set {
	reference rhf
	basis cc-pvtz
}

set_num_threads( 4 )
memory 2 gb

molecule MOL {
0 1

H	 -2.498963	 -0.741158	 -0.729149
O	 -2.346257	 -0.289210	 0.080372
C	 -1.183935	 0.486039	 -0.009831
C	 0.062853	 -0.375310	 0.027457
H	 -1.178881	 1.094526	 -0.908634
H	 -1.184406	 1.155156	 0.838676
O	 1.172093	 0.457955	 -0.054438
H	 0.052476	 -1.081302	 -0.804627
H	 0.076323	 -0.955658	 0.947560
C	 1.999034	 0.216236	 -1.144833
H	 1.468679	 0.355162	 -2.084353
H	 2.818626	 0.918392	 -1.100868
H	 2.400780	 -0.794023	 -1.122516

	symmetry c1
}
set optking {
	frozen_dihedral = ("
		10 7 4 8
	")
}

ee,wfn = optimize('scf', return_wfn=True)
oeprop( wfn, 'DIPOLE', 'QUADRUPOLE', 'MULLIKEN_CHARGES')
f=open( 'psi4out.xyz', 'w' )
f.write( "13  " )
f.write( str(ee) + "\n" )
f.write( MOL.save_string_xyz() )
f.close()
--------------------------------------------------------------------------

    Molecular point group: c1
  Charge       = 0
  Multiplicity = 1
  Basis Set: CC-PVTZ
  Basis Set:
  @DF-RHF Final Energy:  -268.05810162690403
    Total Energy =                       -268.0581016269042038
    Molecular point group: c1
  Basis Set: CC-PVTZ
  Basis Set:
  Basis Set: CC-PVTZ
  Basis Set:
  @DF-RHF Final Energy:  -268.05848073663958
    Total Energy =                       -268.0584807366395808
  Basis Set: CC-PVTZ
  Basis Set:
  Basis Set: CC-PVTZ
  Basis Set:
  @DF-RHF Final Energy:  -268.05858539261015
    Total Energy =                       -268.0585853926101549
  Basis Set: CC-PVTZ
  Basis Set:
  Basis Set: CC-PVTZ
  Basis Set:
  @DF-RHF Final Energy:  -268.05858687781415
    Total Energy =                       -268.0585868778143777
  Basis Set: CC-PVTZ
  Basis Set:
  Charge       = 0
  Multiplicity = 1
  Basis Set: CC-PVTZ
  Basis Set:

    Orbital Energies (a.u.)
    -----------------------

    Doubly Occupied:

       1A    -20.553390     2A    -20.553386     3A    -11.269407
       4A    -11.269201     5A    -11.267473     6A     -1.387991
       7A     -1.369205     8A     -1.018246     9A     -0.918997
      10A     -0.841875    11A     -0.712103    12A     -0.669576
      13A     -0.663294    14A     -0.643952    15A     -0.590717
      16A     -0.576421    17A     -0.549989    18A     -0.491098
      19A     -0.472916    20A     -0.465173    21A     -0.409912

  @DF-RHF Final Energy:  -268.05858704810760

   => Energetics <=

    Nuclear Repulsion Energy =            190.8522532193857444
    One-Electron Energy =                -744.4330369162896659
    Two-Electron Energy =                 285.5221966487964664
    DFT Exchange-Correlation Energy =       0.0000000000000000
    Empirical Dispersion Energy =           0.0000000000000000
    PCM Polarization Energy =               0.0000000000000000
    EFP Energy =                            0.0000000000000000
    Total Energy =                       -268.0585870481074835
    Molecular point group: c1
  Basis Set: CC-PVTZ
  Basis Set:

  -Total Gradient:
     Atom            X                  Y                   Z
    ------   -----------------  -----------------  -----------------
       1        0.000002856081     0.000017349333     0.000008635454
       2       -0.000004898118    -0.000020428890     0.000004631299
       3        0.000011122098    -0.000004369292    -0.000008544250
       4       -0.000408767749     0.000639898863    -0.000565323169
       5        0.000006327389     0.000000080942     0.000007976321
       6       -0.000010103787     0.000003371524    -0.000002985568
       7        0.000365797857    -0.000554267443     0.000517618761
       8        0.000267829778    -0.000393827183     0.000319791049
       9       -0.000004343345     0.000015189988     0.000000174962
      10       -0.000219105439     0.000298596127    -0.000288210061
      11        0.000002693732    -0.000002552999     0.000006652720
      12       -0.000006974953    -0.000001798257     0.000001455430
      13       -0.000002433539     0.000002757287    -0.000001872949

  **** Optimization is complete! (in 5 steps) ****
    Final optimized geometry and variables:
    Molecular point group: c1

    Geometry (in Angstrom), charge = 0, multiplicity = 1:

    H           -2.468407962595    -0.785721020915    -0.465229194177
    O           -2.300341992464    -0.287603447439     0.313607090689
    C           -1.112110720995     0.440392659830     0.177980985002
    C            0.109594912824    -0.458613024616     0.243836281121
    H           -1.099350163059     1.012130861116    -0.745968510680
    H           -1.079265591615     1.145039279536     0.996547351080
    O            1.267748777402     0.320070511622     0.193371353609
    H            0.087106076343    -1.178748700638    -0.571512911453
    H            0.092102924099    -1.021475244202     1.170629779411
    C            2.149906393115     0.048141336289    -0.846722014952
    H            1.677731548074     0.174519358008    -1.818172539630
    H            2.971434095706     0.745466608176    -0.769654420994
    H            2.544869602290    -0.962750892166    -0.783487318553

  Mulliken Charges: (a.u.)
   Center  Symbol    Alpha    Beta     Spin     Total
       1     H     0.39498  0.39498  0.00000  0.21004
       2     O     4.20129  4.20129  0.00000 -0.40258
       3     C     2.97035  2.97035  0.00000  0.05930
       4     C     2.97528  2.97528  0.00000  0.04943
       5     H     0.47061  0.47061  0.00000  0.05879
       6     H     0.45282  0.45282  0.00000  0.09436
       7     O     4.18159  4.18159  0.00000 -0.36317
       8     H     0.48007  0.48007  0.00000  0.03985
       9     H     0.45384  0.45384  0.00000  0.09232
      10     C     3.02984  3.02984  0.00000 -0.05967
      11     H     0.47354  0.47354  0.00000  0.05292
      12     H     0.44790  0.44790  0.00000  0.10420
      13     H     0.46790  0.46790  0.00000  0.06421

   Total alpha = 21.00000, Total beta = 21.00000, Total charge = -0.00000

*** Psi4 exiting successfully. Buy a developer a beer!
