  ==> Input File <==

--------------------------------------------------------------------------
set {
	reference rhf
	basis 6-31G*
}

set_num_threads( 4 )
memory 2 gb

molecule MOL {
0 1

H	 -4.236494	 0.538104	 0.039757
O	 -3.517110	 -0.026191	 -0.205115
C	 -2.306886	 0.532354	 0.237577
C	 -1.177863	 -0.397191	 -0.171080
H	 -2.156308	 1.517575	 -0.201710
H	 -2.315015	 0.655684	 1.319734
C	 0.198102	 0.111031	 0.262842
H	 -1.208843	 -0.518759	 -1.250427
H	 -1.368741	 -1.376554	 0.258909
C	 1.331804	 -0.827780	 -0.158768
H	 0.361943	 1.100838	 -0.156218
H	 0.217265	 0.229072	 1.345532
C	 2.723619	 -0.410569	 0.329459
H	 1.342964	 -0.912588	 -1.244120
H	 1.116806	 -1.824343	 0.220779
C	 3.813219	 -0.452816	 -0.743537
H	 3.012821	 -1.068315	 1.145437
H	 2.671210	 0.590835	 0.752082
H	 3.879965	 -1.439984	 -1.193073
H	 3.628383	 0.261203	 -1.539270
H	 4.783663	 -0.219063	 -0.316510

	symmetry c1
}
set optking {
	frozen_dihedral = ("
		16 13 10 14
	")
}

ee = optimize('scf')
oeprop('DIPOLE', 'QUADRUPOLE', 'MULLIKEN_CHARGES')
f=open( 'psi4out.xyz', 'w' )
f.write( "21  " )
f.write( str(ee) + "\n" )
f.write( MOL.save_string_xyz() )
f.close()
--------------------------------------------------------------------------

    Molecular point group: c1
  Charge       = 0
  Multiplicity = 1
  Basis Set: 6-31G*
  Basis Set:
  @DF-RHF Final Energy:  -310.20894448992811
    Total Energy =                       -310.2089444899282284
    Molecular point group: c1
  Basis Set: 6-31G*
  Basis Set:
  Basis Set: 6-31G*
  Basis Set:
  @DF-RHF Final Energy:  -310.20938996682520
    Total Energy =                       -310.2093899668249151
  Basis Set: 6-31G*
  Basis Set:
  Basis Set: 6-31G*
  Basis Set:
  @DF-RHF Final Energy:  -310.20946174811144
    Total Energy =                       -310.2094617481114938
  Basis Set: 6-31G*
  Basis Set:
  Basis Set: 6-31G*
  Basis Set:
  @DF-RHF Final Energy:  -310.20946359137031
    Total Energy =                       -310.2094635913701381
  Basis Set: 6-31G*
  Basis Set:
  Charge       = 0
  Multiplicity = 1
  Basis Set: 6-31G*
  Basis Set:

    Orbital Energies (a.u.)
    -----------------------

    Doubly Occupied:

       1A    -20.551879     2A    -11.267151     3A    -11.216593
       4A    -11.214501     5A    -11.212982     6A    -11.210551
       7A    -11.208322     8A     -1.358707     9A     -1.084819
      10A     -1.033499    11A     -0.956609    12A     -0.867427
      13A     -0.803218    14A     -0.790487    15A     -0.692317
      16A     -0.661808    17A     -0.626034    18A     -0.599351
      19A     -0.585053    20A     -0.563266    21A     -0.543779
      22A     -0.521722    23A     -0.506990    24A     -0.486111
      25A     -0.477480    26A     -0.463077    27A     -0.455155
      28A     -0.441989    29A     -0.434017

  @DF-RHF Final Energy:  -310.20946395661690

   => Energetics <=

    Nuclear Repulsion Energy =            309.1970597692692309
    One-Electron Energy =               -1033.1432595624564783
    Two-Electron Energy =                 413.7367358365701762
    DFT Exchange-Correlation Energy =       0.0000000000000000
    Empirical Dispersion Energy =           0.0000000000000000
    PCM Polarization Energy =               0.0000000000000000
    EFP Energy =                            0.0000000000000000
    Total Energy =                       -310.2094639566170713
    Molecular point group: c1
  Basis Set: 6-31G*
  Basis Set:

  -Total Gradient:
     Atom            X                  Y                   Z
    ------   -----------------  -----------------  -----------------
       1        0.000002363103     0.000001130087     0.000000475879
       2        0.000002939101    -0.000000684250    -0.000003191489
       3        0.000000734736    -0.000001601880     0.000000062687
       4       -0.000012986601     0.000011339476    -0.000008260101
       5       -0.000001341001     0.000000421897    -0.000000357489
       6       -0.000000875910    -0.000000022209     0.000001357364
       7       -0.000018168100    -0.000013469462    -0.000025772224
       8        0.000002869537    -0.000003545127     0.000001698382
       9       -0.000000926765     0.000001526829     0.000003842220
      10       -0.001142611592     0.004129793132    -0.000495842529
      11        0.000004020960    -0.000010954335     0.000006236444
      12        0.000010467055    -0.000022094535    -0.000001615931
      13        0.000814511981    -0.003373172376     0.000745877658
      14        0.000753995158    -0.002688684891     0.000237264568
      15        0.000005457604     0.000012711443     0.000028259060
      16       -0.000431927513     0.001973404440    -0.000490209814
      17        0.000006175037    -0.000009073282     0.000007292473
      18        0.000016775104    -0.000010512548    -0.000021582204
      19       -0.000018917165     0.000001084886     0.000020585942
      20        0.000006189298     0.000004606866     0.000001525004
      21        0.000001255974    -0.000002204161    -0.000007645901

  **** Optimization is complete! (in 5 steps) ****
    Final optimized geometry and variables:
    Molecular point group: c1

    Geometry (in Angstrom), charge = 0, multiplicity = 1:

    H           -4.309418299311     0.772476636879     0.086601448773
    O           -3.594614607051     0.205227868411    -0.164801302213
    C           -2.382847513451     0.734364433639     0.308713221082
    C           -1.261182636572    -0.198735299827    -0.112022120347
    H           -2.213413144965     1.729395401942    -0.100542095572
    H           -2.403285025064     0.827197502573     1.393734179827
    C            0.115180917834     0.278205987303     0.352001849572
    H           -1.280397083886    -0.290463179237    -1.194594441930
    H           -1.470077310790    -1.186883689436     0.288633135912
    C            1.248321849925    -0.655224708206    -0.076692140365
    H            0.308337651404     1.275287768786    -0.041016139269
    H            0.122622668542     0.371947609903     1.437003641326
    C            2.642365619307    -0.207165423677     0.412294545171
    H            1.251412960809    -0.752141599766    -1.160132168279
    H            1.038442447741    -1.655414923967     0.295668869721
    C            3.712413713880    -0.250192070713    -0.678885990025
    H            2.954927407840    -0.819517968591     1.253237762191
    H            2.582957558964     0.810291110960     0.791975090219
    H            3.823964399139    -1.252688310752    -1.082931992898
    H            3.452153320075     0.409165390812    -1.501996838399
    H            4.679494817079     0.061363366962    -0.295898312268

  Mulliken Charges: (a.u.)
   Center  Symbol    Alpha    Beta     Spin     Total
       1     H     0.28117  0.28117  0.00000  0.43766
       2     O     4.37174  4.37174  0.00000 -0.74348
       3     C     2.98978  2.98978  0.00000  0.02043
       4     C     3.15998  3.15998  0.00000 -0.31996
       5     H     0.43284  0.43284  0.00000  0.13431
       6     H     0.43282  0.43282  0.00000  0.13435
       7     C     3.16163  3.16163  0.00000 -0.32326
       8     H     0.41467  0.41467  0.00000  0.17067
       9     H     0.41468  0.41468  0.00000  0.17065
      10     C     3.15413  3.15413  0.00000 -0.30825
      11     H     0.42344  0.42344  0.00000  0.15312
      12     H     0.42296  0.42296  0.00000  0.15407
      13     C     3.15453  3.15453  0.00000 -0.30907
      14     H     0.41999  0.41999  0.00000  0.16001
      15     H     0.42048  0.42048  0.00000  0.15904
      16     C     3.23983  3.23983  0.00000 -0.47966
      17     H     0.42007  0.42007  0.00000  0.15985
      18     H     0.42146  0.42146  0.00000  0.15709
      19     H     0.42135  0.42135  0.00000  0.15729
      20     H     0.42176  0.42176  0.00000  0.15647
      21     H     0.42066  0.42066  0.00000  0.15868

   Total alpha = 29.00000, Total beta = 29.00000, Total charge =  0.00000
