  ==> Input File <==

--------------------------------------------------------------------------
set {
	reference rhf
	basis cc-pvtz
}

set_num_threads( 4 )
memory 2 gb

molecule MOL {
0 1

H	 -2.824513	 0.140268	 -0.762834
O	 -2.313989	 -0.142475	 -0.025864
C	 -0.943808	 -0.065018	 -0.330000
H	 -0.812293	 -0.225641	 -1.398673
C	 -0.231030	 -1.182113	 0.407592
C	 -0.353797	 1.300461	 0.050970
H	 -0.312800	 -0.992012	 1.473041
H	 -0.738841	 -2.119564	 0.220514
C	 1.246176	 -1.268044	 -0.015480
H	 -0.539537	 2.008579	 -0.751815
H	 -0.889989	 1.662858	 0.920677
C	 1.153605	 1.231851	 0.356834
H	 1.823096	 -1.684665	 0.802361
H	 1.352335	 -1.958223	 -0.845114
C	 1.826409	 0.100723	 -0.416008
H	 1.622968	 2.181508	 0.128734
H	 1.301983	 1.066493	 1.419367
H	 2.897299	 0.112407	 -0.249665
H	 1.683458	 0.265621	 -1.480024

	symmetry c1
}
set optking {
	frozen_dihedral = ("
		1 2 3 4
	")
}

ee = optimize('scf')
oeprop('DIPOLE', 'QUADRUPOLE', 'MULLIKEN_CHARGES')
f=open( 'psi4out.xyz', 'w' )
f.write( "19  " )
f.write( str(ee) + "\n" )
f.write( MOL.save_string_xyz() )
f.close()
--------------------------------------------------------------------------

    Molecular point group: c1
  Charge       = 0
  Multiplicity = 1
  Basis Set: CC-PVTZ
  Basis Set:
  @DF-RHF Final Energy:  -309.16247991796598
    Total Energy =                       -309.1624799179656407
    Molecular point group: c1
  Basis Set: CC-PVTZ
  Basis Set:
  Basis Set: CC-PVTZ
  Basis Set:
  @DF-RHF Final Energy:  -309.16255985776201
    Total Energy =                       -309.1625598577620622
  Basis Set: CC-PVTZ
  Basis Set:
  Basis Set: CC-PVTZ
  Basis Set:
  @DF-RHF Final Energy:  -309.16259130394803
    Total Energy =                       -309.1625913039480338
  Basis Set: CC-PVTZ
  Basis Set:
  Charge       = 0
  Multiplicity = 1
  Basis Set: CC-PVTZ
  Basis Set:

    Orbital Energies (a.u.)
    -----------------------

    Doubly Occupied:

       1A    -20.542757     2A    -11.268075     3A    -11.213382
       4A    -11.212902     5A    -11.212373     6A    -11.207773
       7A    -11.206553     8A     -1.362395     9A     -1.109058
      10A     -1.001410    11A     -0.989266    12A     -0.842239
      13A     -0.834832    14A     -0.731629    15A     -0.710602
      16A     -0.658361    17A     -0.627949    18A     -0.590916
      19A     -0.569572    20A     -0.546191    21A     -0.537005
      22A     -0.517292    23A     -0.497679    24A     -0.489143
      25A     -0.462331    26A     -0.449838    27A     -0.430386
      28A     -0.409740

  @DF-RHF Final Energy:  -309.16259179255695

   => Energetics <=

    Nuclear Repulsion Energy =            331.7020689816759500
    One-Electron Energy =               -1077.2660180723109988
    Two-Electron Energy =                 436.4013572980782101
    DFT Exchange-Correlation Energy =       0.0000000000000000
    Empirical Dispersion Energy =           0.0000000000000000
    PCM Polarization Energy =               0.0000000000000000
    EFP Energy =                            0.0000000000000000
    Total Energy =                       -309.1625917925568956
    Molecular point group: c1
  Basis Set: CC-PVTZ
  Basis Set:

  -Total Gradient:
     Atom            X                  Y                   Z
    ------   -----------------  -----------------  -----------------
       1       -0.000052445558    -0.001398382660    -0.000505422850
       2        0.000096942031     0.002037045779     0.000544259380
       3        0.000039492471    -0.001862319648     0.000154829749
       4       -0.000114808998     0.001264279054    -0.000189229185
       5        0.000027507254     0.000009270633     0.000025813730
       6       -0.000038311840    -0.000000932136    -0.000016218211
       7       -0.000009882309     0.000000074451     0.000005436992
       8       -0.000008202974     0.000005536475    -0.000002224797
       9       -0.000003397483     0.000017594004    -0.000006768289
      10       -0.000022780386    -0.000005420021    -0.000006412397
      11       -0.000007004716    -0.000008712891    -0.000014501349
      12        0.000013442838    -0.000040093833     0.000027239613
      13        0.000011937079     0.000008192564    -0.000011592593
      14        0.000015585712     0.000016630024    -0.000011300120
      15        0.000026249306     0.000005749573     0.000005995387
      16        0.000009487675    -0.000015722875    -0.000008047343
      17        0.000010014353     0.000000536627     0.000008503469
      18        0.000005123034    -0.000010540789     0.000001790753
      19        0.000001052506    -0.000022784331    -0.000002151938

  **** Optimization is complete! (in 4 steps) ****
    Final optimized geometry and variables:
    Molecular point group: c1

    Geometry (in Angstrom), charge = 0, multiplicity = 1:

    H           -2.832188430018     0.172461995431    -0.741936661421
    O           -2.317598648174    -0.122595025569    -0.014630532033
    C           -0.945590742711    -0.067731866906    -0.328786899991
    H           -0.822886249043    -0.223712923285    -1.398185510543
    C           -0.227135389401    -1.184343036556     0.406081573957
    C           -0.354217144437     1.299315589679     0.046704036326
    H           -0.313142352009    -0.997536401491     1.471913766195
    H           -0.730420695102    -2.123624331165     0.215865153028
    C            1.252437259557    -1.264525109245    -0.011081129055
    H           -0.538362578296     2.002741313536    -0.759918597153
    H           -0.898223999341     1.664694700125     0.909180652361
    C            1.151362321518     1.233448421194     0.360054464202
    H            1.828106866079    -1.677466793922     0.809523117625
    H            1.364191968618    -1.956237393783    -0.838932287583
    C            1.829336276579     0.105204508574    -0.411861835097
    H            1.619973327002     2.184491848055     0.135777632655
    H            1.296293639119     1.066393062186     1.422972377907
    H            2.900241590462     0.119129264286    -0.245469012079
    H            1.686217850648     0.269223663469    -1.476222275870

  Mulliken Charges: (a.u.)
   Center  Symbol    Alpha    Beta     Spin     Total
       1     H     0.39453  0.39453  0.00000  0.21094
       2     O     4.20271  4.20271  0.00000 -0.40542
       3     C     2.92592  2.92592  0.00000  0.14815
       4     H     0.46638  0.46638  0.00000  0.06723
       5     C     3.09668  3.09668  0.00000 -0.19335
       6     C     3.11384  3.11384  0.00000 -0.22768
       7     H     0.45301  0.45301  0.00000  0.09399
       8     H     0.44242  0.44242  0.00000  0.11517
       9     C     3.11322  3.11322  0.00000 -0.22644
      10     H     0.45416  0.45416  0.00000  0.09167
      11     H     0.44477  0.44477  0.00000  0.11045
      12     C     3.10065  3.10065  0.00000 -0.20130
      13     H     0.44729  0.44729  0.00000  0.10543
      14     H     0.44792  0.44792  0.00000  0.10416
      15     C     3.10285  3.10285  0.00000 -0.20569
      16     H     0.44279  0.44279  0.00000  0.11442
      17     H     0.45290  0.45290  0.00000  0.09420
      18     H     0.44299  0.44299  0.00000  0.11401
      19     H     0.45497  0.45497  0.00000  0.09006

   Total alpha = 28.00000, Total beta = 28.00000, Total charge = -0.00000
