  ==> Input File <==

--------------------------------------------------------------------------
set {
	reference rhf
	basis cc-pvtz
}

set_num_threads( 4 )
memory 2 gb

molecule MOL {
0 1

H	 -2.724000	 -0.001000	 -0.006000
C	 -1.718000	 -0.000000	 0.393000
O	 -0.854000	 -0.001000	 -0.700000
H	 -1.599000	 0.883000	 1.015000
H	 -1.599000	 -0.882000	 1.016000
C	 0.535000	 0.000000	 -0.462000
C	 1.006000	 1.270000	 0.245000
C	 1.008000	 -1.269000	 0.245000
H	 0.956000	 0.000000	 -1.460000
H	 0.611000	 2.147000	 -0.255000
H	 2.091000	 1.325000	 0.223000
H	 0.700000	 1.300000	 1.285000
H	 0.614000	 -2.147000	 -0.255000
H	 2.092000	 -1.322000	 0.225000
H	 0.700000	 -1.299000	 1.286000

	symmetry c1
}
ee = optimize('scf')
oeprop('DIPOLE', 'QUADRUPOLE', 'MULLIKEN_CHARGES')
f=open( 'psi4out.xyz', 'w' )
f.write( "15  " )
f.write( str(ee) + "\n" )
f.write( MOL.save_string_xyz() )
f.close()
--------------------------------------------------------------------------

    Molecular point group: c1
  Charge       = 0
  Multiplicity = 1
  Basis Set: CC-PVTZ
  Basis Set:
  @DF-RHF Final Energy:  -232.22613432062732
    Total Energy =                       -232.2261343206274091
    Molecular point group: c1
  Basis Set: CC-PVTZ
  Basis Set:
  Basis Set: CC-PVTZ
  Basis Set:
  @DF-RHF Final Energy:  -232.22617514174644
    Total Energy =                       -232.2261751417464666
  Basis Set: CC-PVTZ
  Basis Set:
  Basis Set: CC-PVTZ
  Basis Set:
  @DF-RHF Final Energy:  -232.22617405682377
    Total Energy =                       -232.2261740568237087
  Basis Set: CC-PVTZ
  Basis Set:
  Charge       = 0
  Multiplicity = 1
  Basis Set: CC-PVTZ
  Basis Set:

    Orbital Energies (a.u.)
    -----------------------

    Doubly Occupied:

       1A    -20.541888     2A    -11.272613     3A    -11.258474
       4A    -11.208673     5A    -11.208656     6A     -1.373568
       7A     -1.051635     8A     -0.940214     9A     -0.931680
      10A     -0.781482    11A     -0.675583    12A     -0.642370
      13A     -0.635228    14A     -0.574015    15A     -0.565840
      16A     -0.552805    17A     -0.533734    18A     -0.497793
      19A     -0.497479    20A     -0.444829    21A     -0.409683

  @DF-RHF Final Energy:  -232.22617976039552

   => Energetics <=

    Nuclear Repulsion Energy =            199.0326257426463883
    One-Electron Energy =                -709.3211353639260324
    Two-Electron Energy =                 278.0623298608842333
    DFT Exchange-Correlation Energy =       0.0000000000000000
    Empirical Dispersion Energy =           0.0000000000000000
    PCM Polarization Energy =               0.0000000000000000
    EFP Energy =                            0.0000000000000000
    Total Energy =                       -232.2261797603954392
    Molecular point group: c1
  Basis Set: CC-PVTZ
  Basis Set:

  -Total Gradient:
     Atom            X                  Y                   Z
    ------   -----------------  -----------------  -----------------
       1        0.000040748423     0.000001102131    -0.000009500963
       2       -0.000018717116     0.000005967701     0.000113102458
       3        0.000006632412    -0.000003849541    -0.000062406349
       4       -0.000003507438    -0.000012448802    -0.000018979768
       5       -0.000000933638     0.000011348886    -0.000022880735
       6        0.000154575989    -0.000004188701     0.000016968765
       7       -0.000055614586     0.000005956428     0.000004482453
       8       -0.000064050958    -0.000005639930     0.000009631451
       9       -0.000029653375    -0.000000217155    -0.000018929602
      10        0.000009749232    -0.000018651145     0.000011619205
      11       -0.000037650342    -0.000011638834    -0.000007966154
      12        0.000006058107     0.000007342844    -0.000005003028
      13        0.000010786300     0.000021970478     0.000015315309
      14       -0.000029083569     0.000010206644    -0.000006098731
      15        0.000010660556    -0.000007261004    -0.000019354312

  **** Optimization is complete! (in 4 steps) ****
    Final optimized geometry and variables:
    Molecular point group: c1

    Geometry (in Angstrom), charge = 0, multiplicity = 1:

    H           -2.698798624273    -0.000845599140     0.036017437040
    C           -1.694290279639    -0.000482939719     0.434278242348
    O           -0.828717385693    -0.000607711494    -0.655022127930
    H           -1.576854381629     0.881100303061     1.056504198455
    H           -1.576400480378    -0.881657686412     1.057000702648
    C            0.557891914166     0.000077874850    -0.420098868790
    C            1.032057375722     1.266770852505     0.283411304810
    C            1.033191601131    -1.265747970862     0.284191180651
    H            0.977961907958    -0.000039909961    -1.418177044818
    H            0.645965421938     2.144587232571    -0.220007494840
    H            2.114779024692     1.313281913618     0.266208438464
    H            0.720512236706     1.300555910949     1.320899561457
    H            0.647960884341    -2.144223111396    -0.218723177937
    H            2.115970396066    -1.311266224260     0.267125999927
    H            0.721584808473    -1.299204245093     1.321650961086

  Mulliken Charges: (a.u.)
   Center  Symbol    Alpha    Beta     Spin     Total
       1     H     0.44075  0.44075  0.00000  0.11849
       2     C     3.03890  3.03890  0.00000 -0.07781
       3     O     4.18304  4.18304  0.00000 -0.36609
       4     H     0.47039  0.47039  0.00000  0.05922
       5     H     0.47039  0.47039  0.00000  0.05922
       6     C     2.93319  2.93319  0.00000  0.13361
       7     C     3.15866  3.15866  0.00000 -0.31731
       8     C     3.15865  3.15865  0.00000 -0.31730
       9     H     0.44701  0.44701  0.00000  0.10599
      10     H     0.44386  0.44386  0.00000  0.11229
      11     H     0.44966  0.44966  0.00000  0.10067
      12     H     0.45599  0.45599  0.00000  0.08803
      13     H     0.44386  0.44386  0.00000  0.11229
      14     H     0.44967  0.44967  0.00000  0.10066
      15     H     0.45598  0.45598  0.00000  0.08803

   Total alpha = 21.00000, Total beta = 21.00000, Total charge = -0.00000
