                              Psi4 1.0.54 Driver

  ==> Input File <==

--------------------------------------------------------------------------
set {
	reference rhf
	basis cc-pvtz
}

set_num_threads( 4 )
memory 2 gb

molecule MOL {
0 1

H	 -4.230259	 0.539112	 0.036360
O	 -3.515113	 -0.019339	 -0.206321
C	 -2.302264	 0.528872	 0.237390
C	 -1.175688	 -0.398187	 -0.171891
H	 -2.148018	 1.514076	 -0.197759
H	 -2.310727	 0.646384	 1.319032
C	 0.196029	 0.106276	 0.266738
H	 -1.201873	 -0.515469	 -1.250677
H	 -1.365975	 -1.378728	 0.252664
C	 1.330220	 -0.826136	 -0.155230
H	 0.359542	 1.097229	 -0.145561
H	 0.212134	 0.218135	 1.348778
C	 2.719700	 -0.407669	 0.328325
H	 1.339388	 -0.911200	 -1.239363
H	 1.119001	 -1.821953	 0.224128
C	 3.879658	 -1.077054	 -0.405010
H	 2.797915	 -0.639073	 1.386172
H	 2.817300	 0.671855	 0.247477
H	 3.804730	 -2.158298	 -0.347059
H	 3.909700	 -0.803632	 -1.452877
H	 4.828535	 -0.788968	 0.032952

	symmetry c1
}
set optking {
	frozen_dihedral = ("
		16 13 10 14
	")
}

ee,wfn = optimize('scf', return_wfn=True)
oeprop( wfn, 'DIPOLE', 'QUADRUPOLE', 'MULLIKEN_CHARGES')
f=open( 'psi4out.xyz', 'w' )
f.write( "21  " )
f.write( str(ee) + "\n" )
f.write( MOL.save_string_xyz() )
f.close()
--------------------------------------------------------------------------

    Molecular point group: c1
  Charge       = 0
  Multiplicity = 1
  Basis Set: CC-PVTZ
  Basis Set:
  @DF-RHF Final Energy:  -310.33335442459952
    Total Energy =                       -310.3333544245995768
    Molecular point group: c1
  Basis Set: CC-PVTZ
  Basis Set:
  Basis Set: CC-PVTZ
  Basis Set:
  @DF-RHF Final Energy:  -310.33371919590166
    Total Energy =                       -310.3337191959015513
  Basis Set: CC-PVTZ
  Basis Set:
  Basis Set: CC-PVTZ
  Basis Set:
  @DF-RHF Final Energy:  -310.33375049976252
    Total Energy =                       -310.3337504997628002
  Basis Set: CC-PVTZ
  Basis Set:
  Basis Set: CC-PVTZ
  Basis Set:
  @DF-RHF Final Energy:  -310.33375170600772
    Total Energy =                       -310.3337517060078881
  Basis Set: CC-PVTZ
  Basis Set:
  Charge       = 0
  Multiplicity = 1
  Basis Set: CC-PVTZ
  Basis Set:

    Orbital Energies (a.u.)
    -----------------------

    Doubly Occupied:

       1A    -20.545444     2A    -11.265065     3A    -11.213873
       4A    -11.212633     5A    -11.210839     6A    -11.209040
       7A    -11.206112     8A     -1.363309     9A     -1.087382
      10A     -1.035869    11A     -0.957916    12A     -0.868141
      13A     -0.802576    14A     -0.791128    15A     -0.695853
      16A     -0.664750    17A     -0.632446    18A     -0.598403
      19A     -0.582233    20A     -0.564418    21A     -0.549185
      22A     -0.521360    23A     -0.508818    24A     -0.485094
      25A     -0.477804    26A     -0.462878    27A     -0.459717
      28A     -0.444600    29A     -0.437435

  @DF-RHF Final Energy:  -310.33375193358250

   => Energetics <=

    Nuclear Repulsion Energy =            309.4166748760298447
    One-Electron Energy =               -1033.7922240758744010
    Two-Electron Energy =                 414.0417972662618808
    DFT Exchange-Correlation Energy =       0.0000000000000000
    Empirical Dispersion Energy =           0.0000000000000000
    PCM Polarization Energy =               0.0000000000000000
    EFP Energy =                            0.0000000000000000
    Total Energy =                       -310.3337519335826187
    Molecular point group: c1
  Basis Set: CC-PVTZ
  Basis Set:

  -Total Gradient:
     Atom            X                  Y                   Z
    ------   -----------------  -----------------  -----------------
       1        0.000001523710     0.000001620078     0.000001466072
       2        0.000008902506    -0.000006665462    -0.000003775100
       3        0.000010719903     0.000004771805     0.000004031737
       4       -0.000004160436     0.000001191348    -0.000005393017
       5       -0.000001147192     0.000000112164    -0.000000104757
       6        0.000000091436     0.000000485467     0.000000489897
       7       -0.000015833904    -0.000004118610    -0.000001147444
       8       -0.000000094934     0.000001034109    -0.000000271758
       9        0.000003336572    -0.000001769823     0.000002839006
      10       -0.001067653797     0.004517761054    -0.001011506485
      11       -0.000002272103    -0.000006212815    -0.000003592487
      12        0.000006105026    -0.000005130859     0.000001107845
      13        0.000166454698    -0.003158300364     0.002316450757
      14        0.000866734703    -0.003080691532     0.000292557233
      15        0.000000848422     0.000003624975     0.000015526075
      16        0.000026725605     0.001735899641    -0.001597390129
      17        0.000000955264     0.000003342408     0.000004148953
      18        0.000000006886    -0.000007021530    -0.000007588979
      19       -0.000001882183    -0.000001479535     0.000003787946
      20        0.000008110329     0.000007102410    -0.000011278549
      21       -0.000007470518    -0.000005554927    -0.000000356817

  **** Optimization is complete! (in 5 steps) ****
    Final optimized geometry and variables:
    Molecular point group: c1

    Geometry (in Angstrom), charge = 0, multiplicity = 1:

    H           -4.310067713751     0.870113388984     0.038255472663
    O           -3.601342625141     0.303611956016    -0.204442909864
    C           -2.383366643662     0.832652779613     0.248235459318
    C           -1.267372127841    -0.106815969379    -0.161620677902
    H           -2.213813127057     1.818333361433    -0.180055209193
    H           -2.395219553751     0.943598219766     1.330527997491
    C            0.108328829917     0.376766877968     0.285851121253
    H           -1.290115666504    -0.217660037795    -1.241120383943
    H           -1.472189414808    -1.087084288519     0.256689496051
    C            1.238343431709    -0.557490998905    -0.133074535024
    H            0.295799259833     1.366978211718    -0.122449407229
    H            0.120202159515     0.486883785486     1.367971901145
    C            2.616104973087    -0.117314222216     0.361841799478
    H            1.257096601442    -0.660277814648    -1.215096775991
    H            1.032401088561    -1.556625001918     0.244518221885
    C            3.764990965968    -0.805244347556    -0.368068582439
    H            2.693374653943    -0.299988148939     1.429545199824
    H            2.716557630589     0.957111981315     0.231078637989
    H            3.705381353307    -1.884550271324    -0.270089726874
    H            3.746881692406    -0.569777725060    -1.426650008998
    H            4.725140975623    -0.491414292066     0.025281160370

  Mulliken Charges: (a.u.)
   Center  Symbol    Alpha    Beta     Spin     Total
       1     H     0.39760  0.39760  0.00000  0.20480
       2     O     4.19431  4.19431  0.00000 -0.38863
       3     C     2.96369  2.96369  0.00000  0.07262
       4     C     3.08478  3.08478  0.00000 -0.16955
       5     H     0.47480  0.47480  0.00000  0.05039
       6     H     0.47493  0.47493  0.00000  0.05014
       7     C     3.10013  3.10013  0.00000 -0.20025
       8     H     0.45086  0.45086  0.00000  0.09828
       9     H     0.45088  0.45088  0.00000  0.09824
      10     C     3.08696  3.08696  0.00000 -0.17393
      11     H     0.45525  0.45525  0.00000  0.08950
      12     H     0.45524  0.45524  0.00000  0.08952
      13     C     3.08374  3.08374  0.00000 -0.16747
      14     H     0.45447  0.45447  0.00000  0.09107
      15     H     0.45378  0.45378  0.00000  0.09245
      16     C     3.14973  3.14973  0.00000 -0.29946
      17     H     0.45324  0.45324  0.00000  0.09353
      18     H     0.45682  0.45682  0.00000  0.08636
      19     H     0.45486  0.45486  0.00000  0.09027
      20     H     0.45502  0.45502  0.00000  0.08997
      21     H     0.44892  0.44892  0.00000  0.10216

   Total alpha = 29.00000, Total beta = 29.00000, Total charge =  0.00000

*** Psi4 exiting successfully. Buy a developer a beer!
