  ==> Input File <==

--------------------------------------------------------------------------
set {
	reference rhf
	basis 6-31G*
}

set_num_threads( 4 )
memory 2 gb

molecule MOL {
0 1

O	 3.225979	 0.970355	 -0.599647
C	 2.701189	 0.057885	 -0.047330
C	 1.245376	 -0.013843	 0.345420
O	 3.347903	 -1.046386	 0.304773
C	 0.455112	 1.231400	 -0.050772
H	 0.838542	 -0.913825	 -0.103701
H	 1.208210	 -0.175333	 1.419774
C	 -0.998893	 1.219485	 0.433193
H	 0.482531	 1.345121	 -1.130325
H	 0.957290	 2.103070	 0.354729
C	 -1.883438	 0.145884	 -0.207175
H	 -1.431207	 2.195402	 0.224832
H	 -1.019646	 1.105716	 1.516076
C	 -3.347647	 0.245583	 0.225435
H	 -1.822183	 0.231698	 -1.291012
H	 -1.510341	 -0.844814	 0.042401
C	 -3.867098	 1.683416	 0.279641
H	 -3.465648	 -0.215381	 1.204630
H	 -3.965642	 -0.333170	 -0.459275
C	 -5.328890	 1.774483	 0.716187
H	 -3.250049	 2.263407	 0.962651
H	 -3.754003	 2.144453	 -0.699355
H	 -5.667794	 2.805469	 0.744826
H	 -5.468967	 1.352736	 1.707501
H	 -5.976633	 1.232330	 0.032980
C	 4.728119	 -1.109107	 -0.004993
H	 4.882018	 -1.033965	 -1.071845
H	 5.068212	 -2.067527	 0.355250
H	 5.265056	 -0.311663	 0.488280

	symmetry c1
}
set optking {
	frozen_dihedral = ("
		17 14 11 15
	")
}

ee = optimize('scf')
oeprop('DIPOLE', 'QUADRUPOLE', 'MULLIKEN_CHARGES')
f=open( 'psi4out.xyz', 'w' )
f.write( "29  " )
f.write( str(ee) + "\n" )
f.write( MOL.save_string_xyz() )
f.close()
--------------------------------------------------------------------------

    Molecular point group: c1
  Charge       = 0
  Multiplicity = 1
  Basis Set: 6-31G*
  Basis Set:
  @DF-RHF Final Energy:  -501.03762991454562
    Total Energy =                       -501.0376299145445955
    Molecular point group: c1
  Basis Set: 6-31G*
  Basis Set:
  Basis Set: 6-31G*
  Basis Set:
  @DF-RHF Final Energy:  -501.03830733902123
    Total Energy =                       -501.0383073390210029
  Basis Set: 6-31G*
  Basis Set:
  Basis Set: 6-31G*
  Basis Set:
  @DF-RHF Final Energy:  -501.04016541607405
    Total Energy =                       -501.0401654160741600
  Basis Set: 6-31G*
  Basis Set:
  Basis Set: 6-31G*
  Basis Set:
  @DF-RHF Final Energy:  -501.04038723565975
    Total Energy =                       -501.0403872356596366
  Basis Set: 6-31G*
  Basis Set:
  @DF-RHF Final Energy:  -501.04036061533134
    Total Energy =                       -501.0403606153317924
  @DF-RHF Final Energy:  -501.04032347060172
    Total Energy =                       -501.0403234706018338
  Basis Set: 6-31G*
  Basis Set:
  @DF-RHF Final Energy:  -501.04040378194225
    Total Energy =                       -501.0404037819423593
  Basis Set: 6-31G*
  Basis Set:
  Basis Set: 6-31G*
  Basis Set:
  @DF-RHF Final Energy:  -501.04038758818797
    Total Energy =                       -501.0403875881872864
  Basis Set: 6-31G*
  Basis Set:
  Basis Set: 6-31G*
  Basis Set:
  @DF-RHF Final Energy:  -501.04040815325459
    Total Energy =                       -501.0404081532545888
  Basis Set: 6-31G*
  Basis Set:
  Charge       = 0
  Multiplicity = 1
  Basis Set: 6-31G*
  Basis Set:

    Orbital Energies (a.u.)
    -----------------------

    Doubly Occupied:

       1A    -20.603395     2A    -20.545221     3A    -11.372056
       4A    -11.280678     5A    -11.234747     6A    -11.219280
       7A    -11.217611     8A    -11.216236     9A    -11.215311
      10A    -11.214730    11A    -11.208777    12A     -1.469099
      13A     -1.362541    14A     -1.097715    15A     -1.065510
      16A     -1.017621    17A     -0.976863    18A     -0.929416
      19A     -0.862284    20A     -0.817902    21A     -0.774228
      22A     -0.760724    23A     -0.701004    24A     -0.682132
      25A     -0.672164    26A     -0.640478    27A     -0.629315
      28A     -0.611478    29A     -0.593650    30A     -0.580956
      31A     -0.566793    32A     -0.554983    33A     -0.541200
      34A     -0.524940    35A     -0.522535    36A     -0.498099
      37A     -0.493309    38A     -0.486576    39A     -0.476430
      40A     -0.457127    41A     -0.452987    42A     -0.448658
      43A     -0.442764    44A     -0.437225

  @DF-RHF Final Energy:  -501.04040850047920

   => Energetics <=

    Nuclear Repulsion Energy =            614.0150374927474104
    One-Electron Energy =               -1899.1573948680074864
    Two-Electron Energy =                 784.1019488747801915
    DFT Exchange-Correlation Energy =       0.0000000000000000
    Empirical Dispersion Energy =           0.0000000000000000
    PCM Polarization Energy =               0.0000000000000000
    EFP Energy =                            0.0000000000000000
    Total Energy =                       -501.0404085004797707
    Molecular point group: c1
  Basis Set: 6-31G*
  Basis Set:

  -Total Gradient:
     Atom            X                  Y                   Z
    ------   -----------------  -----------------  -----------------
       1       -0.000012448559    -0.000019161787    -0.000035405866
       2        0.000022654096     0.000059906382     0.000105317061
       3        0.000005086446    -0.000009583479    -0.000029282640
       4       -0.000007173293    -0.000015908955    -0.000023956588
       5        0.000004732678    -0.000022896600    -0.000040234004
       6       -0.000002508187     0.000010922330    -0.000003109508
       7        0.000004286042    -0.000004701832    -0.000001243252
       8        0.000031077382    -0.000011893261     0.000021717063
       9        0.000003389754     0.000000426970     0.000005697207
      10        0.000014631660     0.000002872838     0.000002239119
      11        0.000710145054     0.005744489934     0.002002498665
      12        0.000030123539    -0.000019997496    -0.000012702441
      13       -0.000022704274     0.000007140846     0.000008471600
      14       -0.001664686977    -0.001380983731    -0.004730593095
      15       -0.000191101737    -0.004554726881    -0.000475713913
      16        0.000001828340     0.000014138425     0.000005053850
      17        0.001115058973     0.000202577437     0.003192853784
      18       -0.000005425658     0.000003561819    -0.000018261762
      19       -0.000012804791    -0.000005792187    -0.000004076784
      20       -0.000000173889     0.000003691564     0.000031532280
      21       -0.000020522798     0.000003292722     0.000002621362
      22        0.000008528708    -0.000014653371    -0.000005242367
      23       -0.000006871646     0.000003529500     0.000008089930
      24       -0.000010157291    -0.000005933832    -0.000003095637
      25        0.000008571797     0.000008173284    -0.000000578952
      26       -0.000003513247     0.000001288357    -0.000001887149
      27        0.000001450733    -0.000000307810    -0.000000526731
      28       -0.000000321418    -0.000000203921    -0.000000509038
      29       -0.000001151448     0.000000732741     0.000000327806

  **** Optimization is complete! (in 10 steps) ****
    Final optimized geometry and variables:
    Molecular point group: c1

    Geometry (in Angstrom), charge = 0, multiplicity = 1:

    O            3.215624153846     0.419501431751    -0.767572488855
    C            2.651413697097    -0.440996755141    -0.172363687032
    C            1.192566299948    -0.432367631841     0.215684989386
    O            3.250250634021    -1.551926940204     0.238565655101
    C            0.456922322934     0.823209050725    -0.247892438952
    H            0.751415035476    -1.337590510339    -0.187659710843
    H            1.145759459704    -0.535670530700     1.296786149639
    C           -0.999086959382     0.903312906219     0.226847924168
    H            0.494074536941     0.882231176587    -1.331549856536
    H            0.995815633036     1.690905685305     0.116887386865
    C           -1.929069820590    -0.130954127473    -0.412178036104
    H           -1.363924179538     1.901179936288     0.005261305244
    H           -1.032768838809     0.801584627577     1.311141962957
    C           -3.378846190644    -0.131392143616     0.100442345917
    H           -1.926274228564    -0.017097670306    -1.495097822639
    H           -1.531038188325    -1.128036971526    -0.238374440253
    C           -4.039840454458     1.242734755635     0.241508995771
    H           -3.406000620603    -0.619231039690     1.073862069469
    H           -3.977181430290    -0.752339059237    -0.562134469031
    C           -5.513302246892     1.141276399839     0.636127728493
    H           -3.513574379973     1.830536975164     0.987250543726
    H           -3.956011277228     1.789599914459    -0.696141782813
    H           -5.959268238455     2.124723878192     0.748350775070
    H           -5.630591353023     0.615724891334     1.579885914503
    H           -6.084861084815     0.602210855952    -0.114047195257
    C            4.627621063507    -1.687659368243    -0.060295395455
    H            4.787945831192    -1.673209758379    -1.128751541376
    H            4.926145141042    -2.639886056081     0.349752040649
    H            5.195852218075    -0.889252098708     0.394895399291

  Mulliken Charges: (a.u.)
   Center  Symbol    Alpha    Beta     Spin     Total
       1     O     4.28597  4.28597  0.00000 -0.57194
       2     C     2.60474  2.60474  0.00000  0.79052
       3     C     3.20969  3.20969  0.00000 -0.41937
       4     O     4.30747  4.30747  0.00000 -0.61495
       5     C     3.15393  3.15393  0.00000 -0.30785
       6     H     0.39897  0.39897  0.00000  0.20206
       7     H     0.40123  0.40123  0.00000  0.19755
       8     C     3.15968  3.15968  0.00000 -0.31936
       9     H     0.41287  0.41287  0.00000  0.17426
      10     H     0.40864  0.40864  0.00000  0.18272
      11     C     3.15633  3.15633  0.00000 -0.31265
      12     H     0.41484  0.41484  0.00000  0.17031
      13     H     0.42449  0.42449  0.00000  0.15103
      14     C     3.15033  3.15033  0.00000 -0.30066
      15     H     0.42217  0.42217  0.00000  0.15566
      16     H     0.42270  0.42270  0.00000  0.15460
      17     C     3.15524  3.15524  0.00000 -0.31048
      18     H     0.42471  0.42471  0.00000  0.15059
      19     H     0.42140  0.42140  0.00000  0.15720
      20     C     3.23919  3.23919  0.00000 -0.47838
      21     H     0.42006  0.42006  0.00000  0.15988
      22     H     0.42330  0.42330  0.00000  0.15340
      23     H     0.41915  0.41915  0.00000  0.16170
      24     H     0.42203  0.42203  0.00000  0.15593
      25     H     0.42176  0.42176  0.00000  0.15648
      26     C     3.09240  3.09240  0.00000 -0.18481
      27     H     0.40907  0.40907  0.00000  0.18185
      28     H     0.40851  0.40851  0.00000  0.18299
      29     H     0.40913  0.40913  0.00000  0.18173

   Total alpha = 44.00000, Total beta = 44.00000, Total charge = -0.00000
