  ==> Input File <==

--------------------------------------------------------------------------
set {
	reference rhf
	basis 6-31G*
}

set_num_threads( 4 )
memory 2 gb

molecule MOL {
0 1

H	 1.996344	 2.097120	 1.055687
N	 1.134142	 1.594085	 0.971568
C	 1.267428	 0.496480	 0.024474
H	 0.446014	 2.250258	 0.654029
C	 -0.016086	 -0.325158	 -0.029487
H	 2.083102	 -0.134761	 0.363952
H	 1.527456	 0.828743	 -0.983676
C	 -1.282277	 0.529072	 0.046735
H	 -0.012495	 -0.908639	 -0.945788
H	 -0.015903	 -1.041248	 0.791956
C	 -2.563920	 -0.301775	 -0.006060
H	 -1.284084	 1.244622	 -0.773004
H	 -1.271387	 1.115393	 0.963286
H	 -2.621848	 -0.873522	 -0.927727
H	 -3.445135	 0.329952	 0.047812
H	 -2.609542	 -1.004582	 0.821105

	symmetry c1
}
set optking {
	frozen_dihedral = ("
		6 3 5 9
	")
}

ee = optimize('scf')
oeprop('DIPOLE', 'QUADRUPOLE', 'MULLIKEN_CHARGES')
f=open( 'psi4out.xyz', 'w' )
f.write( "16  " )
f.write( str(ee) + "\n" )
f.write( MOL.save_string_xyz() )
f.close()
--------------------------------------------------------------------------

    Molecular point group: c1
  Charge       = 0
  Multiplicity = 1
  Basis Set: 6-31G*
  Basis Set:
  @DF-RHF Final Energy:  -212.31195238503807
    Total Energy =                       -212.3119523850378982
    Molecular point group: c1
  Basis Set: 6-31G*
  Basis Set:
  Basis Set: 6-31G*
  Basis Set:
  @DF-RHF Final Energy:  -212.31252812613982
    Total Energy =                       -212.3125281261395685
  Basis Set: 6-31G*
  Basis Set:
  Basis Set: 6-31G*
  Basis Set:
  @DF-RHF Final Energy:  -212.31358386184880
    Total Energy =                       -212.3135838618488265
  Basis Set: 6-31G*
  Basis Set:
  Basis Set: 6-31G*
  Basis Set:
  @DF-RHF Final Energy:  -212.31363692075720
    Total Energy =                       -212.3136369207572898
  Basis Set: 6-31G*
  Basis Set:
  Basis Set: 6-31G*
  Basis Set:
  @DF-RHF Final Energy:  -212.31366610171685
    Total Energy =                       -212.3136661017169899
  Basis Set: 6-31G*
  Basis Set:
  Basis Set: 6-31G*
  Basis Set:
  @DF-RHF Final Energy:  -212.31366973880165
    Total Energy =                       -212.3136697388015932
  Basis Set: 6-31G*
  Basis Set:
  Charge       = 0
  Multiplicity = 1
  Basis Set: 6-31G*
  Basis Set:

    Orbital Energies (a.u.)
    -----------------------

    Doubly Occupied:

       1A    -15.532233     2A    -11.240717     3A    -11.211562
       4A    -11.209509     5A    -11.206228     6A     -1.176306
       7A     -1.054388     8A     -0.958843     9A     -0.851599
      10A     -0.777024    11A     -0.664152    12A     -0.648081
      13A     -0.595445    14A     -0.583782    15A     -0.546056
      16A     -0.524166    17A     -0.511911    18A     -0.471040
      19A     -0.465258    20A     -0.451540    21A     -0.380047

  @DF-RHF Final Energy:  -212.31366982528331

   => Energetics <=

    Nuclear Repulsion Energy =            189.4188893710009154
    One-Electron Energy =                -661.3453432154888105
    Two-Electron Energy =                 259.6127840192044118
    DFT Exchange-Correlation Energy =       0.0000000000000000
    Empirical Dispersion Energy =           0.0000000000000000
    PCM Polarization Energy =               0.0000000000000000
    EFP Energy =                            0.0000000000000000
    Total Energy =                       -212.3136698252835117
    Molecular point group: c1
  Basis Set: 6-31G*
  Basis Set:

  -Total Gradient:
     Atom            X                  Y                   Z
    ------   -----------------  -----------------  -----------------
       1       -0.000000848223    -0.000000380766     0.000000070049
       2        0.000006363364     0.000001259453    -0.000007127962
       3        0.000493543284    -0.000906869886    -0.007059809988
       4        0.000003378861    -0.000000028572     0.000002581062
       5        0.003058478665    -0.004671382706     0.004350977553
       6       -0.000882387280     0.001481075712     0.005315457390
       7       -0.000003144905    -0.000005721712    -0.000003559886
       8        0.000001235150    -0.000002717524     0.000015170729
       9       -0.002671178607     0.004100964032    -0.002610464401
      10        0.000002630123     0.000007617899    -0.000002189920
      11       -0.000003434282    -0.000001506913     0.000000991210
      12        0.000007103470    -0.000007928655    -0.000000451258
      13       -0.000013199901     0.000003483740     0.000001088200
      14       -0.000002318923     0.000002280714    -0.000002678645
      15        0.000000750132     0.000000446165     0.000002731864
      16        0.000003029076    -0.000000590980    -0.000002785997

  **** Optimization is complete! (in 7 steps) ****
    Final optimized geometry and variables:
    Molecular point group: c1

    Geometry (in Angstrom), charge = 0, multiplicity = 1:

    H            2.403309189722     1.590961066068     0.868403762771
    N            1.492856644317     1.186943470511     0.763430040749
    C            1.533875971417     0.093518385011    -0.202407242286
    H            0.887907716693     1.921596653490     0.452117068811
    C            0.243922535263    -0.735305308983    -0.185390525656
    H            2.355096352533    -0.541730239139     0.111809776698
    H            1.740835051651     0.432506306168    -1.218842874880
    C           -1.042917897704     0.096134398727    -0.149169208887
    H            0.215069696484    -1.331603284816    -1.095429446178
    H            0.254816030206    -1.412100237555     0.663475491298
    C           -2.298786601074    -0.769401371187    -0.249594730433
    H           -1.037369683656     0.812331180845    -0.970651226869
    H           -1.078001250083     0.671818032107     0.769573087296
    H           -2.317811717462    -1.331216049805    -1.179317035372
    H           -3.198580797853    -0.163026461965    -0.210990955492
    H           -2.346382979475    -1.483223838762     0.567943457907

  Mulliken Charges: (a.u.)
   Center  Symbol    Alpha    Beta     Spin     Total
       1     H     0.33211  0.33211  0.00000  0.33578
       2     N     3.92352  3.92352  0.00000 -0.84704
       3     C     3.06620  3.06620  0.00000 -0.13241
       4     H     0.33300  0.33300  0.00000  0.33399
       5     C     3.14573  3.14573  0.00000 -0.29147
       6     H     0.41896  0.41896  0.00000  0.16209
       7     H     0.43267  0.43267  0.00000  0.13466
       8     C     3.16129  3.16129  0.00000 -0.32258
       9     H     0.42605  0.42605  0.00000  0.14789
      10     H     0.41797  0.41797  0.00000  0.16406
      11     C     3.23856  3.23856  0.00000 -0.47713
      12     H     0.42866  0.42866  0.00000  0.14268
      13     H     0.41161  0.41161  0.00000  0.17677
      14     H     0.42299  0.42299  0.00000  0.15403
      15     H     0.41997  0.41997  0.00000  0.16006
      16     H     0.42069  0.42069  0.00000  0.15861

   Total alpha = 21.00000, Total beta = 21.00000, Total charge = -0.00000
