  ==> Input File <==

--------------------------------------------------------------------------
set {
	reference rhf
	basis 6-31G*
}

set_num_threads( 1 )
memory 2 gb

molecule MOL {
0 1

H	 2.550365	 -0.910898	 0.752572
N	 2.434251	 -0.367735	 -0.081097
C	 1.267428	 0.496480	 0.024474
H	 2.322966	 -1.017219	 -0.836545
C	 -0.016086	 -0.325158	 -0.029487
H	 1.288818	 1.183521	 -0.816092
H	 1.267576	 1.109062	 0.929528
C	 -1.282277	 0.529072	 0.046735
H	 -0.012495	 -0.908639	 -0.945788
H	 -0.015903	 -1.041248	 0.791956
C	 -2.563920	 -0.301775	 -0.006060
H	 -1.284084	 1.244622	 -0.773004
H	 -1.271387	 1.115393	 0.963286
H	 -2.621848	 -0.873522	 -0.927727
H	 -3.445135	 0.329952	 0.047812
H	 -2.609542	 -1.004582	 0.821105

	symmetry c1
}
set optking {
	frozen_dihedral = ("
		6 3 5 9,
		12 8 5 9
	")
}

ee = energy('scf')
oeprop('DIPOLE', 'QUADRUPOLE', 'MULLIKEN_CHARGES')
f=open( 'psi4out.xyz', 'w' )
f.write( "16  " )
f.write( str(ee) + "\n" )
f.write( MOL.save_string_xyz() )
f.close()
--------------------------------------------------------------------------

    Molecular point group: c1

    Geometry (in Angstrom), charge = 0, multiplicity = 1:

       Center              X                  Y                   Z               Mass
    ------------   -----------------  -----------------  -----------------  -----------------
           H          2.562841642793    -0.895223942423     0.762156250433     1.007825032070
           N          2.446727642793    -0.352060942423    -0.071512749567    14.003074004780
           C          1.279904642793     0.512154057577     0.034058250433    12.000000000000
           H          2.335442642793    -1.001544942423    -0.826960749567     1.007825032070
           C         -0.003609357207    -0.309483942423    -0.019902749567    12.000000000000
           H          1.301294642793     1.199195057577    -0.806507749567     1.007825032070
           H          1.280052642793     1.124736057577     0.939112250433     1.007825032070
           C         -1.269800357207     0.544746057577     0.056319250433    12.000000000000
           H         -0.000018357207    -0.892964942423    -0.936203749567     1.007825032070
           H         -0.003426357207    -1.025573942423     0.801540250433     1.007825032070
           C         -2.551443357207    -0.286100942423     0.003524250433    12.000000000000
           H         -1.271607357207     1.260296057577    -0.763419749567     1.007825032070
           H         -1.258910357207     1.131067057577     0.972870250433     1.007825032070
           H         -2.609371357207    -0.857847942423    -0.918142749567     1.007825032070
           H         -3.432658357207     0.345626057577     0.057396250433     1.007825032070
           H         -2.597065357207    -0.988907942423     0.830689250433     1.007825032070

  Charge       = 0
  Multiplicity = 1
  Basis Set: 6-31G*
  Basis Set:

    Orbital Energies (a.u.)
    -----------------------

    Doubly Occupied:

       1A    -15.531208     2A    -11.241021     3A    -11.217406
       4A    -11.212717     5A    -11.210550     6A     -1.178707
       7A     -1.061484     8A     -0.959318     9A     -0.847805
      10A     -0.797929    11A     -0.679100    12A     -0.625072
      13A     -0.595882    14A     -0.590124    15A     -0.553754
      16A     -0.529016    17A     -0.501025    18A     -0.488979
      19A     -0.474052    20A     -0.467024    21A     -0.372303

  @DF-RHF Final Energy:  -212.31441150960970

   => Energetics <=

    Nuclear Repulsion Energy =            186.8253596084735761
    One-Electron Energy =                -656.0106397361281552
    Two-Electron Energy =                 256.8708686180452219
    DFT Exchange-Correlation Energy =       0.0000000000000000
    Empirical Dispersion Energy =           0.0000000000000000
    PCM Polarization Energy =               0.0000000000000000
    EFP Energy =                            0.0000000000000000
    Total Energy =                       -212.3144115096093287

  Mulliken Charges: (a.u.)
   Center  Symbol    Alpha    Beta     Spin     Total
       1     H     0.33513  0.33513  0.00000  0.32973
       2     N     3.91798  3.91798  0.00000 -0.83597
       3     C     3.06225  3.06225  0.00000 -0.12451
       4     H     0.33410  0.33410  0.00000  0.33181
       5     C     3.15662  3.15662  0.00000 -0.31325
       6     H     0.41836  0.41836  0.00000  0.16327
       7     H     0.41885  0.41885  0.00000  0.16229
       8     C     3.15614  3.15614  0.00000 -0.31228
       9     H     0.42715  0.42715  0.00000  0.14570
      10     H     0.42725  0.42725  0.00000  0.14550
      11     C     3.23857  3.23857  0.00000 -0.47714
      12     H     0.42214  0.42214  0.00000  0.15572
      13     H     0.42274  0.42274  0.00000  0.15453
      14     H     0.42172  0.42172  0.00000  0.15657
      15     H     0.41904  0.41904  0.00000  0.16192
      16     H     0.42194  0.42194  0.00000  0.15611

   Total alpha = 21.00000, Total beta = 21.00000, Total charge = -0.00000
