  ==> Input File <==

--------------------------------------------------------------------------
set {
	reference rhf
	basis 6-31G*
}

set_num_threads( 1 )
memory 2 gb

molecule MOL {
0 1

H	 2.591676	 2.013956	 0.335017
O	 3.341076	 1.666752	 -0.126416
C	 3.569581	 0.339145	 0.272707
C	 2.296526	 -0.392807	 0.682954
H	 4.014582	 -0.152864	 -0.582615
H	 4.299028	 0.304448	 1.081090
C	 1.610392	 0.196299	 1.917880
H	 1.607055	 -0.382855	 -0.157223
H	 2.550466	 -1.434387	 0.872673
C	 0.366442	 -0.592717	 2.336045
H	 1.334867	 1.227545	 1.715435
H	 2.315923	 0.217373	 2.748615
C	 -0.310611	 -0.095324	 3.618441
H	 -0.354907	 -0.582199	 1.520942
H	 0.648375	 -1.634001	 2.477264
C	 -0.940683	 1.296465	 3.516404
H	 -1.085791	 -0.807401	 3.893865
H	 0.411638	 -0.105492	 4.433358
C	 -1.693803	 1.704292	 4.784443
H	 -1.625606	 1.319294	 2.669958
H	 -0.174733	 2.039748	 3.308671
C	 -2.318285	 3.095807	 4.687624
H	 -2.472460	 0.973294	 4.991381
H	 -1.013370	 1.672671	 5.632910
H	 -3.028881	 3.150441	 3.867690
H	 -2.846178	 3.354855	 5.600235
H	 -1.560203	 3.855246	 4.517540

	symmetry c1
}
set optking {
	frozen_dihedral = ("
		14 10 7 4,
		14 10 13 16,
		10 7 4 8,
		8 4 3 2,
		10 13 16 20,
		20 16 19 22
	")
}

ee = energy('scf')
oeprop('DIPOLE', 'QUADRUPOLE', 'MULLIKEN_CHARGES')
f=open( 'psi4out.xyz', 'w' )
f.write( "27  " )
f.write( str(ee) + "\n" )
f.write( MOL.save_string_xyz() )
f.close()
--------------------------------------------------------------------------

    Molecular point group: c1

    Geometry (in Angstrom), charge = 0, multiplicity = 1:

       Center              X                  Y                   Z               Mass
    ------------   -----------------  -----------------  -----------------  -----------------
           H          1.899703856600     1.180820271068    -2.040084281589     1.007825032070
           O          2.649103856600     0.833616271068    -2.501517281589    15.994914619560
           C          2.877608856600    -0.493990728932    -2.102394281589    12.000000000000
           C          1.604553856600    -1.225942728932    -1.692147281589    12.000000000000
           H          3.322609856600    -0.985999728932    -2.957716281589     1.007825032070
           H          3.607055856600    -0.528687728932    -1.294011281589     1.007825032070
           C          0.918419856600    -0.636836728932    -0.457221281589    12.000000000000
           H          0.915082856600    -1.215990728932    -2.532324281589     1.007825032070
           H          1.858493856600    -2.267522728932    -1.502428281589     1.007825032070
           C         -0.325530143400    -1.425852728932    -0.039056281589    12.000000000000
           H          0.642894856600     0.394409271068    -0.659666281589     1.007825032070
           H          1.623950856600    -0.615762728932     0.373513718411     1.007825032070
           C         -1.002583143400    -0.928459728932     1.243339718411    12.000000000000
           H         -1.046879143400    -1.415334728932    -0.854159281589     1.007825032070
           H         -0.043597143400    -2.467136728932     0.102162718411     1.007825032070
           C         -1.632655143400     0.463329271068     1.141302718411    12.000000000000
           H         -1.777763143400    -1.640536728932     1.518763718411     1.007825032070
           H         -0.280334143400    -0.938627728932     2.058256718411     1.007825032070
           C         -2.385775143400     0.871156271068     2.409341718411    12.000000000000
           H         -2.317578143400     0.486158271068     0.294856718411     1.007825032070
           H         -0.866705143400     1.206612271068     0.933569718411     1.007825032070
           C         -3.010257143400     2.262671271068     2.312522718411    12.000000000000
           H         -3.164432143400     0.140158271068     2.616279718411     1.007825032070
           H         -1.705342143400     0.839535271068     3.257808718411     1.007825032070
           H         -3.720853143400     2.317305271068     1.492588718411     1.007825032070
           H         -3.538150143400     2.521719271068     3.225133718411     1.007825032070
           H         -2.252175143400     3.022110271068     2.142438718411     1.007825032070

  Charge       = 0
  Multiplicity = 1
  Basis Set: 6-31G*
  Basis Set:

    Orbital Energies (a.u.)
    -----------------------

    Doubly Occupied:

       1A    -20.548916     2A    -11.265715     3A    -11.226139
       4A    -11.221933     5A    -11.221464     6A    -11.218499
       7A    -11.217808     8A    -11.216764     9A    -11.210695
      10A     -1.357099    11A     -1.098989    12A     -1.064780
      13A     -1.013821    14A     -0.950581    15A     -0.891410
      16A     -0.824623    17A     -0.805515    18A     -0.781776
      19A     -0.675126    20A     -0.658757    21A     -0.646282
      22A     -0.617400    23A     -0.609044    24A     -0.584940
      25A     -0.579334    26A     -0.561757    27A     -0.541957
      28A     -0.530825    29A     -0.507772    30A     -0.496273
      31A     -0.489298    32A     -0.479663    33A     -0.468964
      34A     -0.463415    35A     -0.451721    36A     -0.438654
      37A     -0.428903

  @DF-RHF Final Energy:  -388.27943775708889

   => Energetics <=

    Nuclear Repulsion Energy =            460.2175968386945897
    One-Electron Energy =               -1438.2607811562206734
    Two-Electron Energy =                 589.7637465604361751
    DFT Exchange-Correlation Energy =       0.0000000000000000
    Empirical Dispersion Energy =           0.0000000000000000
    PCM Polarization Energy =               0.0000000000000000
    EFP Energy =                            0.0000000000000000
    Total Energy =                       -388.2794377570899087

  Mulliken Charges: (a.u.)
   Center  Symbol    Alpha    Beta     Spin     Total
       1     H     0.27717  0.27717  0.00000  0.44567
       2     O     4.37811  4.37811  0.00000 -0.75622
       3     C     2.98103  2.98103  0.00000  0.03795
       4     C     3.17957  3.17957  0.00000 -0.35915
       5     H     0.41788  0.41788  0.00000  0.16423
       6     H     0.43078  0.43078  0.00000  0.13845
       7     C     3.16100  3.16100  0.00000 -0.32201
       8     H     0.41565  0.41565  0.00000  0.16870
       9     H     0.41921  0.41921  0.00000  0.16158
      10     C     3.15215  3.15215  0.00000 -0.30430
      11     H     0.42979  0.42979  0.00000  0.14043
      12     H     0.41927  0.41927  0.00000  0.16145
      13     C     3.15371  3.15371  0.00000 -0.30742
      14     H     0.42204  0.42204  0.00000  0.15592
      15     H     0.42018  0.42018  0.00000  0.15964
      16     C     3.15302  3.15302  0.00000 -0.30605
      17     H     0.42058  0.42058  0.00000  0.15884
      18     H     0.42317  0.42317  0.00000  0.15365
      19     C     3.15129  3.15129  0.00000 -0.30258
      20     H     0.42411  0.42411  0.00000  0.15178
      21     H     0.42333  0.42333  0.00000  0.15335
      22     C     3.23937  3.23937  0.00000 -0.47874
      23     H     0.42267  0.42267  0.00000  0.15466
      24     H     0.42267  0.42267  0.00000  0.15467
      25     H     0.42161  0.42161  0.00000  0.15678
      26     H     0.41879  0.41879  0.00000  0.16241
      27     H     0.42184  0.42184  0.00000  0.15632

   Total alpha = 37.00000, Total beta = 37.00000, Total charge =  0.00000
