  ==> Input File <==

--------------------------------------------------------------------------
set {
	reference rhf
	basis cc-pvtz
}

set_num_threads( 4 )
memory 2 gb

molecule MOL {
0 1

H	 -0.788679	 -2.513385	 0.260963
N	 -0.047143	 -1.855477	 0.147583
C	 -0.561396	 -0.500007	 0.035200
H	 0.454500	 -2.115834	 -0.675767
C	 0.575129	 0.507849	 -0.048832
H	 -1.154621	 -0.295337	 0.920306
H	 -1.222511	 -0.365611	 -0.822284
C	 1.951750	 -0.141983	 0.035101
H	 0.478254	 1.061643	 -0.975981
H	 0.467676	 1.231891	 0.755499
H	 2.101550	 -0.848142	 -0.774949
H	 2.738260	 0.600794	 -0.026526
H	 2.078939	 -0.679792	 0.968824

	symmetry c1
}
set optking {
	frozen_dihedral = ("
		6 3 5 9
	")
}

ee = optimize('scf')
oeprop('DIPOLE', 'QUADRUPOLE', 'MULLIKEN_CHARGES')
f=open( 'psi4out.xyz', 'w' )
f.write( "13  " )
f.write( str(ee) + "\n" )
f.write( MOL.save_string_xyz() )
f.close()
--------------------------------------------------------------------------

    Molecular point group: c1
  Charge       = 0
  Multiplicity = 1
  Basis Set: CC-PVTZ
  Basis Set:
  @DF-RHF Final Energy:  -173.33986070856992
    Total Energy =                       -173.3398607085698302
    Molecular point group: c1
  Basis Set: CC-PVTZ
  Basis Set:
  Basis Set: CC-PVTZ
  Basis Set:
  @DF-RHF Final Energy:  -173.34047741269274
    Total Energy =                       -173.3404774126927919
  Basis Set: CC-PVTZ
  Basis Set:
  Basis Set: CC-PVTZ
  Basis Set:
  @DF-RHF Final Energy:  -173.34280244298060
    Total Energy =                       -173.3428024429805419
  Basis Set: CC-PVTZ
  Basis Set:
  Basis Set: CC-PVTZ
  Basis Set:
  @DF-RHF Final Energy:  -173.34298824797077
    Total Energy =                       -173.3429882479707942
  Basis Set: CC-PVTZ
  Basis Set:
  Basis Set: CC-PVTZ
  Basis Set:
  @DF-RHF Final Energy:  -173.34300196209148
    Total Energy =                       -173.3430019620915061
  Basis Set: CC-PVTZ
  Basis Set:
  Basis Set: CC-PVTZ
  Basis Set:
  @DF-RHF Final Energy:  -173.34300424282910
    Total Energy =                       -173.3430042428288971
  Basis Set: CC-PVTZ
  Basis Set:
  Charge       = 0
  Multiplicity = 1
  Basis Set: CC-PVTZ
  Basis Set:

    Orbital Energies (a.u.)
    -----------------------

    Doubly Occupied:

       1A    -15.526848     2A    -11.239287     3A    -11.210520
       4A    -11.199888     5A     -1.177348     6A     -1.026134
       7A     -0.906736     8A     -0.785930     9A     -0.669364
      10A     -0.631695    11A     -0.591267    12A     -0.560828
      13A     -0.537152    14A     -0.489796    15A     -0.474292
      16A     -0.459511    17A     -0.380952

  @DF-RHF Final Energy:  -173.34300480716311

   => Energetics <=

    Nuclear Repulsion Energy =            133.8533238485494223
    One-Electron Energy =                -498.6575629948551978
    Two-Electron Energy =                 191.4612343391426634
    DFT Exchange-Correlation Energy =       0.0000000000000000
    Empirical Dispersion Energy =           0.0000000000000000
    PCM Polarization Energy =               0.0000000000000000
    EFP Energy =                            0.0000000000000000
    Total Energy =                       -173.3430048071631404
    Molecular point group: c1
  Basis Set: CC-PVTZ
  Basis Set:

  -Total Gradient:
     Atom            X                  Y                   Z
    ------   -----------------  -----------------  -----------------
       1       -0.000002763425     0.000011760056    -0.000003268049
       2        0.000002909882     0.000007593081    -0.000000401741
       3        0.000872365494    -0.000913443722     0.001150170040
       4        0.000006213003    -0.000000431059    -0.000005263971
       5        0.000842136202    -0.001055442403    -0.001051237738
       6       -0.000877994331     0.000928718277    -0.000794752688
       7        0.000004697589    -0.000002193016     0.000000331876
       8        0.000000941819     0.000007005558     0.000010995686
       9       -0.000845194492     0.001026199807     0.000701053246
      10        0.000001029248    -0.000007159238    -0.000000948872
      11       -0.000003308158    -0.000004272800    -0.000003728164
      12       -0.000000778832    -0.000000203256    -0.000004555194
      13       -0.000000253999     0.000001868716     0.000001605570

  **** Optimization is complete! (in 7 steps) ****
    Final optimized geometry and variables:
    Molecular point group: c1

    Geometry (in Angstrom), charge = 0, multiplicity = 1:

    H           -1.380885177012    -1.967235633909     0.281815766686
    N           -0.601694385413    -1.372786659425     0.094977452660
    C           -1.035519483766     0.014187939351     0.004872779830
    H           -0.197355756200    -1.684267568398    -0.762668648984
    C            0.127503777948     1.034234962502    -0.083157275179
    H           -1.621159257747     0.223890759877     0.891194068125
    H           -1.704788422017     0.179306006440    -0.838087066202
    C            1.539241783220     0.462477474544     0.018218751472
    H            0.037531489925     1.594192980181    -1.008003085791
    H            0.001362839424     1.765715578723     0.707837566986
    H            1.761719550506    -0.218450620371    -0.795278274583
    H            2.263983381134     1.267978934324    -0.025107550799
    H            1.683843133110    -0.077183687010     0.943839751819

  Mulliken Charges: (a.u.)
   Center  Symbol    Alpha    Beta     Spin     Total
       1     H     0.42929  0.42929  0.00000  0.14142
       2     N     3.68485  3.68485  0.00000 -0.36969
       3     C     3.03356  3.03356  0.00000 -0.06711
       4     H     0.43131  0.43131  0.00000  0.13739
       5     C     3.09206  3.09206  0.00000 -0.18412
       6     H     0.45645  0.45645  0.00000  0.08710
       7     H     0.46274  0.46274  0.00000  0.07452
       8     C     3.14657  3.14657  0.00000 -0.29313
       9     H     0.45317  0.45317  0.00000  0.09366
      10     H     0.45348  0.45348  0.00000  0.09304
      11     H     0.46017  0.46017  0.00000  0.07966
      12     H     0.45085  0.45085  0.00000  0.09830
      13     H     0.44552  0.44552  0.00000  0.10897

   Total alpha = 17.00000, Total beta = 17.00000, Total charge = -0.00000
