  ==> Input File <==

--------------------------------------------------------------------------
set {
	reference rhf
	basis 6-31G*
}

set_num_threads( 4 )
memory 2 gb

molecule MOL {
0 1

O	 -1.487788	 1.240889	 -0.102860
C	 -1.083277	 0.139568	 0.115197
C	 0.323299	 -0.082943	 0.642902
C	 -1.933017	 -1.084621	 -0.143902
C	 1.355627	 -0.005344	 -0.493127
H	 0.396251	 -1.044647	 1.143147
H	 0.528637	 0.693580	 1.371677
C	 0.738223	 0.466158	 -1.808325
H	 2.161863	 0.668281	 -0.211197
H	 1.800122	 -0.986437	 -0.623597
H	 1.484834	 0.506814	 -2.594843
H	 0.307409	 1.458227	 -1.708214
H	 -0.049708	 -0.206742	 -2.133004
H	 -1.393885	 -1.806447	 -0.750509
H	 -2.850323	 -0.799888	 -0.640100
H	 -2.169004	 -1.571158	 0.798858

	symmetry c1
}
set optking {
	frozen_dihedral = ("
		9 5 3 2
	")
}

ee = optimize('scf')
oeprop('DIPOLE', 'QUADRUPOLE', 'MULLIKEN_CHARGES')
f=open( 'psi4out.xyz', 'w' )
f.write( "16  " )
f.write( str(ee) + "\n" )
f.write( MOL.save_string_xyz() )
f.close()
--------------------------------------------------------------------------

    Molecular point group: c1
  Charge       = 0
  Multiplicity = 1
  Basis Set: 6-31G*
  Basis Set:
  @DF-RHF Final Energy:  -270.01806899379756
    Total Energy =                       -270.0180689937976126
    Molecular point group: c1
  Basis Set: 6-31G*
  Basis Set:
  Basis Set: 6-31G*
  Basis Set:
  @DF-RHF Final Energy:  -270.02059385981829
    Total Energy =                       -270.0205938598182911
  Basis Set: 6-31G*
  Basis Set:
  Basis Set: 6-31G*
  Basis Set:
  @DF-RHF Final Energy:  -270.02102550421887
    Total Energy =                       -270.0210255042186418
  Basis Set: 6-31G*
  Basis Set:
  Basis Set: 6-31G*
  Basis Set:
  @DF-RHF Final Energy:  -270.02198140865232
    Total Energy =                       -270.0219814086522092
  Basis Set: 6-31G*
  Basis Set:
  @DF-RHF Final Energy:  -270.02205586195754
    Total Energy =                       -270.0220558619574263
  @DF-RHF Final Energy:  -270.02207923027595
    Total Energy =                       -270.0220792302759492
  Basis Set: 6-31G*
  Basis Set:
  @DF-RHF Final Energy:  -270.02209749382138
    Total Energy =                       -270.0220974938214340
  Basis Set: 6-31G*
  Basis Set:
  Basis Set: 6-31G*
  Basis Set:
  @DF-RHF Final Energy:  -270.02211034887375
    Total Energy =                       -270.0221103488737526
  Basis Set: 6-31G*
  Basis Set:
  Basis Set: 6-31G*
  Basis Set:
  @DF-RHF Final Energy:  -270.02211245563501
    Total Energy =                       -270.0221124556350674
  Basis Set: 6-31G*
  Basis Set:
  Charge       = 0
  Multiplicity = 1
  Basis Set: 6-31G*
  Basis Set:

    Orbital Energies (a.u.)
    -----------------------

    Doubly Occupied:

       1A    -20.548063     2A    -11.325132     3A    -11.234367
       4A    -11.229807     5A    -11.228139     6A    -11.215647
       7A     -1.393974     8A     -1.076760     9A     -1.010061
      10A     -0.950862    11A     -0.834156    12A     -0.724864
      13A     -0.654588    14A     -0.643280    15A     -0.621746
      16A     -0.609487    17A     -0.576105    18A     -0.557737
      19A     -0.540199    20A     -0.506679    21A     -0.503537
      22A     -0.475181    23A     -0.473271    24A     -0.397787

  @DF-RHF Final Energy:  -270.02211294128853

   => Energetics <=

    Nuclear Repulsion Energy =            242.9871631843980708
    One-Electron Energy =                -847.3556948599983798
    Two-Electron Energy =                 334.3464187343117260
    DFT Exchange-Correlation Energy =       0.0000000000000000
    Empirical Dispersion Energy =           0.0000000000000000
    PCM Polarization Energy =               0.0000000000000000
    EFP Energy =                            0.0000000000000000
    Total Energy =                       -270.0221129412885261
    Molecular point group: c1
  Basis Set: 6-31G*
  Basis Set:

  -Total Gradient:
     Atom            X                  Y                   Z
    ------   -----------------  -----------------  -----------------
       1       -0.000006879321     0.000036767600     0.000004848403
       2        0.000277319895     0.002428793782     0.000288558267
       3       -0.000735715225    -0.002946112549    -0.000684333067
       4       -0.000007338385     0.000020557101     0.000045027371
       5        0.002130414503    -0.002089522848     0.001810935882
       6       -0.000003345845     0.000008639594    -0.000019031647
       7        0.000001875874    -0.000001674237    -0.000011278521
       8        0.000009432253    -0.000022490284    -0.000006884471
       9       -0.001672190061     0.002556297358    -0.001405053549
      10       -0.000003853561     0.000003344844     0.000000589052
      11        0.000001382699     0.000000695203     0.000007323657
      12       -0.000009419990     0.000006930672     0.000002155784
      13        0.000000337019     0.000011367473    -0.000002769762
      14        0.000000865682    -0.000000138217    -0.000008663822
      15        0.000005061737    -0.000003655913    -0.000010640648
      16        0.000012052729    -0.000009799581    -0.000010782930

  **** Optimization is complete! (in 10 steps) ****
    Final optimized geometry and variables:
    Molecular point group: c1

    Geometry (in Angstrom), charge = 0, multiplicity = 1:

    O           -1.234087630390     1.121395923201     0.424888837125
    C           -0.757310399509     0.029037643103     0.481138347746
    C            0.685907785026    -0.177848913065     0.910484621310
    C           -1.568561469742    -1.204586679846     0.148351186312
    C            1.725525404107    -0.130365621677    -0.251322150587
    H            0.775408365415    -1.120148021047     1.441212205791
    H            0.901119046209     0.615318465499     1.615590722635
    C            1.198683367237     0.343314445953    -1.610288227388
    H            2.516714069409     0.550753334394     0.040689427544
    H            2.178602811136    -1.108715485480    -0.369076292325
    H            2.014442181881     0.386266104202    -2.324787198244
    H            0.758380311566     1.331079727293    -1.542880143805
    H            0.447857600862    -0.327444257153    -2.017099480906
    H           -1.016683022023    -1.873501520964    -0.504558157209
    H           -2.502346260402    -0.919812401433    -0.316485928726
    H           -1.778910331912    -1.752030663310     1.063768066885

  Mulliken Charges: (a.u.)
   Center  Symbol    Alpha    Beta     Spin     Total
       1     O     4.26164  4.26164  0.00000 -0.52327
       2     C     2.73729  2.73729  0.00000  0.52543
       3     C     3.20526  3.20526  0.00000 -0.41053
       4     C     3.28896  3.28896  0.00000 -0.57792
       5     C     3.15636  3.15636  0.00000 -0.31272
       6     H     0.41406  0.41406  0.00000  0.17188
       7     H     0.39909  0.39909  0.00000  0.20182
       8     C     3.25319  3.25319  0.00000 -0.50639
       9     H     0.41145  0.41145  0.00000  0.17709
      10     H     0.41679  0.41679  0.00000  0.16643
      11     H     0.41587  0.41587  0.00000  0.16826
      12     H     0.40385  0.40385  0.00000  0.19230
      13     H     0.42190  0.42190  0.00000  0.15619
      14     H     0.41095  0.41095  0.00000  0.17809
      15     H     0.39723  0.39723  0.00000  0.20554
      16     H     0.40610  0.40610  0.00000  0.18781

   Total alpha = 24.00000, Total beta = 24.00000, Total charge =  0.00000
