  ==> Input File <==

--------------------------------------------------------------------------
set {
	reference rhf
	basis 6-31G*
}

set_num_threads( 1 )
memory 2 gb

molecule MOL {
0 1

H	 -2.646374	 -0.642757	 1.268656
C	 -2.083525	 -0.384536	 0.393091
O	 -0.807605	 -0.127164	 0.768327
F	 -2.118945	 -1.383102	 -0.486752
F	 -2.621877	 0.670592	 -0.209486
C	 0.084052	 0.273579	 -0.209957
C	 1.360636	 0.703610	 0.501076
Cl	 -0.581412	 1.611576	 -1.160818
H	 0.328318	 -0.521855	 -0.892154
F	 2.266220	 1.088321	 -0.373026
F	 1.844513	 -0.327288	 1.164816
F	 1.149705	 1.681041	 1.348490

	symmetry c1
}
set optking {
	frozen_dihedral = ("
		10 7 6 9,
		6 3 2 4
	")
}

ee = energy('scf')
oeprop('DIPOLE', 'QUADRUPOLE', 'MULLIKEN_CHARGES')
f=open( 'psi4out.xyz', 'w' )
f.write( "12  " )
f.write( str(ee) + "\n" )
f.write( MOL.save_string_xyz() )
f.close()
--------------------------------------------------------------------------

    Molecular point group: c1

    Geometry (in Angstrom), charge = 0, multiplicity = 1:

       Center              X                  Y                   Z               Mass
    ------------   -----------------  -----------------  -----------------  -----------------
           H         -2.464936873935    -1.148911949115     1.226685834770     1.007825032070
           C         -1.902087873935    -0.890690949115     0.351120834770    12.000000000000
           O         -0.626167873935    -0.633318949115     0.726356834770    15.994914619560
           F         -1.937507873935    -1.889256949115    -0.528722165230    18.998403224000
           F         -2.440439873935     0.164437050885    -0.251456165230    18.998403224000
           C          0.265489126065    -0.232575949115    -0.251927165230    12.000000000000
           C          1.542073126065     0.197455050885     0.459105834770    12.000000000000
          CL         -0.399974873935     1.105421050885    -1.202788165230    34.968852682000
           H          0.509755126065    -1.028009949115    -0.934124165230     1.007825032070
           F          2.447657126065     0.582166050885    -0.414996165230    18.998403224000
           F          2.025950126065    -0.833442949115     1.122845834770    18.998403224000
           F          1.331142126065     1.174886050885     1.306519834770    18.998403224000

  Charge       = 0
  Multiplicity = 1
  Basis Set: 6-31G*
  Basis Set:

    Orbital Energies (a.u.)
    -----------------------

    Doubly Occupied:

       1A   -104.833227     2A    -26.360019     3A    -26.358322
       4A    -26.357377     5A    -26.343448     6A    -26.336089
       7A    -20.649421     8A    -11.528288     9A    -11.487163
      10A    -11.398561    11A    -10.569374    12A     -8.038625
      13A     -8.035092    14A     -8.034944    15A     -1.760828
      16A     -1.714352    17A     -1.657313    18A     -1.655957
      19A     -1.634785    20A     -1.485479    21A     -1.177209
      22A     -1.053486    23A     -0.984066    24A     -0.919088
      25A     -0.855577    26A     -0.851202    27A     -0.845497
      28A     -0.812815    29A     -0.809401    30A     -0.788829
      31A     -0.731187    32A     -0.725137    33A     -0.711214
      34A     -0.693318    35A     -0.679993    36A     -0.674207
      37A     -0.657887    38A     -0.655887    39A     -0.644958
      40A     -0.636217    41A     -0.601439    42A     -0.564992
      43A     -0.527778    44A     -0.465113    45A     -0.456489

  @DF-RHF Final Energy: -1146.29395849346656

   => Energetics <=

    Nuclear Repulsion Energy =            747.3687612751258484
    One-Electron Energy =               -3077.8021510544090233
    Two-Electron Energy =                1184.1394312858185458
    DFT Exchange-Correlation Energy =       0.0000000000000000
    Empirical Dispersion Energy =           0.0000000000000000
    PCM Polarization Energy =               0.0000000000000000
    EFP Energy =                            0.0000000000000000
    Total Energy =                      -1146.2939584934645154

  Mulliken Charges: (a.u.)
   Center  Symbol    Alpha    Beta     Spin     Total
       1     H     0.40155  0.40155  0.00000  0.19689
       2     C     2.55438  2.55438  0.00000  0.89123
       3     O     4.30821  4.30821  0.00000 -0.61642
       4     F     4.68915  4.68915  0.00000 -0.37830
       5     F     4.68007  4.68007  0.00000 -0.36014
       6     C     3.04421  3.04421  0.00000 -0.08843
       7     C     2.43114  2.43114  0.00000  1.13771
       8    CL     8.50141  8.50141  0.00000 -0.00283
       9     H     0.37015  0.37015  0.00000  0.25971
      10     F     4.67448  4.67448  0.00000 -0.34895
      11     F     4.67699  4.67699  0.00000 -0.35398
      12     F     4.66824  4.66824  0.00000 -0.33649

   Total alpha = 45.00000, Total beta = 45.00000, Total charge =  0.00000
