  ==> Input File <==

--------------------------------------------------------------------------
set {
	reference rhf
	basis 6-31G*
}

set_num_threads( 4 )
memory 2 gb

molecule MOL {
0 1

H	 -2.161554	 -1.174543	 -0.204463
O	 -2.347518	 -0.290803	 0.079804
C	 -1.184022	 0.487508	 -0.006784
C	 0.062599	 -0.378592	 0.031606
H	 -1.176523	 1.099369	 -0.904519
H	 -1.187323	 1.153111	 0.844927
O	 1.171513	 0.459272	 -0.058250
H	 0.050699	 -1.089204	 -0.797170
H	 0.078739	 -0.954914	 0.954740
C	 2.397842	 -0.198080	 -0.002151
H	 2.508049	 -0.905315	 -0.822092
H	 3.173794	 0.550865	 -0.078850
H	 2.517602	 -0.735921	 0.936026

	symmetry c1
}
set optking {
	frozen_dihedral = ("
		1 2 3 5
	")
}

ee = optimize('scf')
oeprop('DIPOLE', 'QUADRUPOLE', 'MULLIKEN_CHARGES')
f=open( 'psi4out.xyz', 'w' )
f.write( "13  " )
f.write( str(ee) + "\n" )
f.write( MOL.save_string_xyz() )
f.close()
--------------------------------------------------------------------------

    Molecular point group: c1
  Charge       = 0
  Multiplicity = 1
  Basis Set: 6-31G*
  Basis Set:
  @DF-RHF Final Energy:  -267.94707310863129
    Total Energy =                       -267.9470731086312867
    Molecular point group: c1
  Basis Set: 6-31G*
  Basis Set:
  Basis Set: 6-31G*
  Basis Set:
  @DF-RHF Final Energy:  -267.94722876772198
    Total Energy =                       -267.9472287677219242
  Basis Set: 6-31G*
  Basis Set:
  Basis Set: 6-31G*
  Basis Set:
  @DF-RHF Final Energy:  -267.94726610924567
    Total Energy =                       -267.9472661092457315
  Basis Set: 6-31G*
  Basis Set:
  Charge       = 0
  Multiplicity = 1
  Basis Set: 6-31G*
  Basis Set:

    Orbital Energies (a.u.)
    -----------------------

    Doubly Occupied:

       1A    -20.568061     2A    -20.557712     3A    -11.280099
       4A    -11.274329     5A    -11.268395     6A     -1.394510
       7A     -1.363125     8A     -1.022267     9A     -0.916142
      10A     -0.851453    11A     -0.697622    12A     -0.683736
      13A     -0.670512    14A     -0.627317    15A     -0.605457
      16A     -0.578717    17A     -0.546581    18A     -0.498068
      19A     -0.472946    20A     -0.439418    21A     -0.427499

  @DF-RHF Final Energy:  -267.94726670071475

   => Energetics <=

    Nuclear Repulsion Energy =            190.3731911216655419
    One-Electron Energy =                -743.1529835256086471
    Two-Electron Energy =                 284.8325257032285549
    DFT Exchange-Correlation Energy =       0.0000000000000000
    Empirical Dispersion Energy =           0.0000000000000000
    PCM Polarization Energy =               0.0000000000000000
    EFP Energy =                            0.0000000000000000
    Total Energy =                       -267.9472667007145787
    Molecular point group: c1
  Basis Set: 6-31G*
  Basis Set:

  -Total Gradient:
     Atom            X                  Y                   Z
    ------   -----------------  -----------------  -----------------
       1        0.000665226514    -0.000743279911     0.002701843474
       2       -0.001186212973     0.001373281716    -0.003020139476
       3        0.001610300634    -0.002539997006    -0.000932780253
       4       -0.000064420278     0.000019804530     0.000039620871
       5       -0.001097730970     0.001861126576     0.001256816684
       6        0.000024952563     0.000000018449    -0.000000345538
       7        0.000033274654    -0.000021471901    -0.000019934815
       8        0.000011085515     0.000015911823     0.000005030251
       9       -0.000029067269     0.000002848544    -0.000010100833
      10        0.000000742796     0.000056820781    -0.000026223735
      11        0.000010115307    -0.000007209105     0.000003581766
      12        0.000031125482    -0.000015479521     0.000001003943
      13       -0.000009391971    -0.000002374975     0.000001627660

  **** Optimization is complete! (in 4 steps) ****
    Final optimized geometry and variables:
    Molecular point group: c1

    Geometry (in Angstrom), charge = 0, multiplicity = 1:

    H           -2.207454827130    -1.166783771099    -0.216305379271
    O           -2.362934983321    -0.277488506263     0.067494529919
    C           -1.186039700463     0.484933110788    -0.016693651856
    C            0.063858344248    -0.374874876222     0.026853364525
    H           -1.188973341452     1.090883561934    -0.917156845507
    H           -1.177644124933     1.162824427655     0.826990870880
    O            1.168878544079     0.464811448270    -0.056841706453
    H            0.059219503123    -1.084404850693    -0.803998059545
    H            0.080942061167    -0.951834772819     0.951309488808
    C            2.397636418061    -0.190650267900    -0.011012715743
    H            2.506215184360    -0.888469179738    -0.838892434326
    H            3.170528362460     0.561604872327    -0.082468926599
    H            2.521084463438    -0.737175779965     0.921609808078

  Mulliken Charges: (a.u.)
   Center  Symbol    Alpha    Beta     Spin     Total
       1     H     0.28100  0.28100  0.00000  0.43800
       2     O     4.37688  4.37688  0.00000 -0.75375
       3     C     2.98480  2.98480  0.00000  0.03041
       4     C     3.01275  3.01275  0.00000 -0.02551
       5     H     0.41980  0.41980  0.00000  0.16041
       6     H     0.41270  0.41270  0.00000  0.17460
       7     O     4.30504  4.30504  0.00000 -0.61009
       8     H     0.43526  0.43526  0.00000  0.12949
       9     H     0.42569  0.42569  0.00000  0.14862
      10     C     3.08142  3.08142  0.00000 -0.16283
      11     H     0.42822  0.42822  0.00000  0.14356
      12     H     0.40901  0.40901  0.00000  0.18197
      13     H     0.42744  0.42744  0.00000  0.14513

   Total alpha = 21.00000, Total beta = 21.00000, Total charge = -0.00000
