  ==> Input File <==

--------------------------------------------------------------------------
set {
	reference rhf
	basis cc-pvtz
}

set_num_threads( 4 )
memory 2 gb

molecule MOL {
0 1

H	 2.828711	 -0.346904	 0.001083
C	 1.876752	 0.015931	 -0.363450
C	 0.776285	 -0.474665	 0.563092
H	 1.728113	 -0.357244	 -1.367440
H	 1.906171	 1.096574	 -0.386153
N	 -0.540022	 0.017605	 0.071630
H	 0.707111	 -1.548969	 0.573035
H	 0.886169	 -0.084184	 1.560432
O	 -0.538824	 0.680165	 -0.910820
O	 -1.496717	 -0.262790	 0.712340

	symmetry c1
}
set optking {
	frozen_dihedral = ("
		9 6 3 2
	")
}

ee = optimize('scf')
oeprop('DIPOLE', 'QUADRUPOLE', 'MULLIKEN_CHARGES')
f=open( 'psi4out.xyz', 'w' )
f.write( "10  " )
f.write( str(ee) + "\n" )
f.write( MOL.save_string_xyz() )
f.close()
--------------------------------------------------------------------------

    Molecular point group: c1
  Charge       = 0
  Multiplicity = 1
  Basis Set: CC-PVTZ
  Basis Set:
  @DF-RHF Final Energy:  -282.81097542215917
    Total Energy =                       -282.8109754221591174
    Molecular point group: c1
  Basis Set: CC-PVTZ
  Basis Set:
  Basis Set: CC-PVTZ
  Basis Set:
  @DF-RHF Final Energy:  -282.81073766217196
    Total Energy =                       -282.8107376621719595
  Basis Set: CC-PVTZ
  Basis Set:
  Basis Set: CC-PVTZ
  Basis Set:
  @DF-RHF Final Energy:  -282.80911491197287
    Total Energy =                       -282.8091149119728698
  Basis Set: CC-PVTZ
  Basis Set:
  Basis Set: CC-PVTZ
  Basis Set:
  @DF-RHF Final Energy:  -282.81267427968083
    Total Energy =                       -282.8126742796808912
  Basis Set: CC-PVTZ
  Basis Set:
  Basis Set: CC-PVTZ
  Basis Set:
  @DF-RHF Final Energy:  -282.81276694319803
    Total Energy =                       -282.8127669431979712
  Basis Set: CC-PVTZ
  Basis Set:
  Basis Set: CC-PVTZ
  Basis Set:
  @DF-RHF Final Energy:  -282.81287314184112
    Total Energy =                       -282.8128731418412372
  Basis Set: CC-PVTZ
  Basis Set:
  Basis Set: CC-PVTZ
  Basis Set:
  @DF-RHF Final Energy:  -282.81287731653964
    Total Energy =                       -282.8128773165395842
  Basis Set: CC-PVTZ
  Basis Set:
  Charge       = 0
  Multiplicity = 1
  Basis Set: CC-PVTZ
  Basis Set:

    Orbital Energies (a.u.)
    -----------------------

    Doubly Occupied:

       1A    -20.595289     2A    -20.588417     3A    -15.839691
       4A    -11.303323     5A    -11.243443     6A     -1.638658
       7A     -1.422938     8A     -1.123859     9A     -0.966889
      10A     -0.834727    11A     -0.762125    12A     -0.754669
      13A     -0.732233    14A     -0.637627    15A     -0.595331
      16A     -0.564055    17A     -0.538767    18A     -0.490492
      19A     -0.479950    20A     -0.455067

  @DF-RHF Final Energy:  -282.81287766759391

   => Energetics <=

    Nuclear Repulsion Energy =            186.5763080264615041
    One-Electron Energy =                -755.6432698821124632
    Two-Electron Energy =                 286.2540841880572771
    DFT Exchange-Correlation Energy =       0.0000000000000000
    Empirical Dispersion Energy =           0.0000000000000000
    PCM Polarization Energy =               0.0000000000000000
    EFP Energy =                            0.0000000000000000
    Total Energy =                       -282.8128776675937388
    Molecular point group: c1
  Basis Set: CC-PVTZ
  Basis Set:

  -Total Gradient:
     Atom            X                  Y                   Z
    ------   -----------------  -----------------  -----------------
       1       -0.000004055207    -0.000000543918    -0.000000932659
       2       -0.000005498130     0.000000951350     0.000000811365
       3       -0.000000035658    -0.000023200872     0.000008298399
       4       -0.000000765266    -0.000000830559     0.000008546202
       5        0.000003795109     0.000011879232    -0.000002879311
       6        0.000020621629     0.000004339099     0.000007470196
       7       -0.000004825791     0.000000782228     0.000003260222
       8        0.000007272683     0.000000321656    -0.000002572663
       9       -0.000025622505    -0.000000361336    -0.000002284890
      10        0.000009113132     0.000006663120    -0.000019716863

  **** Optimization is complete! (in 8 steps) ****
    Final optimized geometry and variables:
    Molecular point group: c1

    Geometry (in Angstrom), charge = 0, multiplicity = 1:

    H            2.855338680787    -0.379907007893     0.023702929328
    C            1.929112241268     0.010878682636    -0.379913675410
    C            0.798045482838    -0.446891210731     0.510735940887
    H            1.810546263453    -0.355809360120    -1.388872755950
    H            1.994593790545     1.088464482901    -0.412950128132
    N           -0.548133723913     0.026655965667     0.063966224646
    H            0.704375704397    -1.521195542521     0.551332050717
    H            0.887727483587    -0.083517759575     1.522897209008
    O           -0.622416622372     0.694151253509    -0.909676280508
    O           -1.463714815239    -0.311489208867     0.736870273176

  Mulliken Charges: (a.u.)
   Center  Symbol    Alpha    Beta     Spin     Total
       1     H     0.44932  0.44932  0.00000  0.10136
       2     C     3.13815  3.13815  0.00000 -0.27630
       3     C     3.04398  3.04398  0.00000 -0.08797
       4     H     0.44171  0.44171  0.00000  0.11659
       5     H     0.44171  0.44171  0.00000  0.11659
       6     N     3.27610  3.27610  0.00000  0.44779
       7     H     0.43306  0.43306  0.00000  0.13388
       8     H     0.43306  0.43306  0.00000  0.13387
       9     O     4.16915  4.16915  0.00000 -0.33830
      10     O     4.17376  4.17376  0.00000 -0.34751

   Total alpha = 20.00000, Total beta = 20.00000, Total charge =  0.00000
