  ==> Input File <==

--------------------------------------------------------------------------
set {
	reference rhf
	basis cc-pvtz
}

set_num_threads( 4 )
memory 2 gb

molecule MOL {
0 1

H	 2.527932	 -0.695920	 -0.975998
O	 1.743081	 -0.184805	 -1.045464
C	 1.300723	 0.197527	 0.231312
C	 0.027642	 1.012027	 0.090274
H	 2.055504	 0.802236	 0.727700
H	 1.127879	 -0.678220	 0.850710
C	 -1.138737	 0.285728	 -0.581921
H	 0.262735	 1.904639	 -0.480237
H	 -0.269146	 1.342316	 1.082766
C	 -1.933983	 -0.631436	 0.343653
H	 -0.763151	 -0.285569	 -1.422081
H	 -1.808359	 1.035291	 -0.992333
H	 -2.789188	 -1.049673	 -0.174718
H	 -1.335629	 -1.461368	 0.700418
H	 -2.305435	 -0.092167	 1.209725

	symmetry c1
}
set optking {
	frozen_dihedral = ("
		8 4 7 11
	")
}

ee = optimize('scf')
oeprop('DIPOLE', 'QUADRUPOLE', 'MULLIKEN_CHARGES')
f=open( 'psi4out.xyz', 'w' )
f.write( "15  " )
f.write( str(ee) + "\n" )
f.write( MOL.save_string_xyz() )
f.close()
--------------------------------------------------------------------------

    Molecular point group: c1
  Charge       = 0
  Multiplicity = 1
  Basis Set: CC-PVTZ
  Basis Set:
  @DF-RHF Final Energy:  -232.23666102065903
    Total Energy =                       -232.2366610206593123
    Molecular point group: c1
  Basis Set: CC-PVTZ
  Basis Set:
  Basis Set: CC-PVTZ
  Basis Set:
  @DF-RHF Final Energy:  -232.23691820369314
    Total Energy =                       -232.2369182036930511
  Basis Set: CC-PVTZ
  Basis Set:
  Basis Set: CC-PVTZ
  Basis Set:
  @DF-RHF Final Energy:  -232.23697788997546
    Total Energy =                       -232.2369778899754920
  Basis Set: CC-PVTZ
  Basis Set:
  Basis Set: CC-PVTZ
  Basis Set:
  @DF-RHF Final Energy:  -232.23698051749201
    Total Energy =                       -232.2369805174919293
  Basis Set: CC-PVTZ
  Basis Set:
  Charge       = 0
  Multiplicity = 1
  Basis Set: CC-PVTZ
  Basis Set:

    Orbital Energies (a.u.)
    -----------------------

    Doubly Occupied:

       1A    -20.546497     2A    -11.266046     3A    -11.210724
       4A    -11.207470     5A    -11.204032     6A     -1.364395
       7A     -1.065640     8A     -0.972422     9A     -0.866639
      10A     -0.779505    11A     -0.706887    12A     -0.650525
      13A     -0.607403    14A     -0.577155    15A     -0.565229
      16A     -0.535110    17A     -0.508160    18A     -0.476351
      19A     -0.469491    20A     -0.454292    21A     -0.432696

  @DF-RHF Final Energy:  -232.23698089489719

   => Energetics <=

    Nuclear Repulsion Energy =            190.8317683098314603
    One-Electron Energy =                -693.2041624722364759
    Two-Electron Energy =                 270.1354132675078290
    DFT Exchange-Correlation Energy =       0.0000000000000000
    Empirical Dispersion Energy =           0.0000000000000000
    PCM Polarization Energy =               0.0000000000000000
    EFP Energy =                            0.0000000000000000
    Total Energy =                       -232.2369808948972150
    Molecular point group: c1
  Basis Set: CC-PVTZ
  Basis Set:

  -Total Gradient:
     Atom            X                  Y                   Z
    ------   -----------------  -----------------  -----------------
       1        0.000006578567     0.000003798166    -0.000002464611
       2       -0.000027507494     0.000001122285     0.000014558649
       3        0.000006890432     0.000013948475    -0.000013610700
       4        0.001750253755    -0.001814446767    -0.001166905688
       5        0.000013221154    -0.000015337907    -0.000001049325
       6        0.000005520765    -0.000001239238     0.000008298145
       7       -0.000693109823     0.002367655045    -0.001275010385
       8       -0.001344321176     0.001145211494     0.001166262590
       9       -0.000020796166    -0.000011111967    -0.000010058579
      10        0.000000047454    -0.000030694830     0.000005133103
      11        0.000302031621    -0.001655187024     0.001292532366
      12       -0.000001588055    -0.000003155302    -0.000013327244
      13        0.000000960275    -0.000005856354     0.000003078000
      14       -0.000003690861    -0.000006926325     0.000004289045
      15        0.000005509552     0.000012220249    -0.000011725368

  **** Optimization is complete! (in 5 steps) ****
    Final optimized geometry and variables:
    Molecular point group: c1

    Geometry (in Angstrom), charge = 0, multiplicity = 1:

    H            2.480318761622    -0.807613525570    -0.771576554820
    O            1.720904018213    -0.259860705997    -0.843538794598
    C            1.228790610480     0.054484044629     0.433602878668
    C           -0.024631446126     0.896464702832     0.284893503342
    H            1.971673696409     0.613452617924     0.996798969277
    H            1.013238321820    -0.854081478920     0.990435150771
    C           -1.202645501150     0.177633136991    -0.380041291544
    H            0.227855641268     1.787278808113    -0.280019489977
    H           -0.319430035978     1.238692906123     1.273982701627
    C           -1.970883750186    -0.744387070338     0.564993180891
    H           -0.835266774305    -0.400401686399    -1.219325518353
    H           -1.886758918891     0.917680346850    -0.780845971868
    H           -2.785964181801    -1.237441828817     0.047539687222
    H           -1.333943577302    -1.518959453240     0.977935878426
    H           -2.394766290665    -0.188970558432     1.395444167356

  Mulliken Charges: (a.u.)
   Center  Symbol    Alpha    Beta     Spin     Total
       1     H     0.39556  0.39556  0.00000  0.20889
       2     O     4.19870  4.19870  0.00000 -0.39740
       3     C     2.97257  2.97257  0.00000  0.05487
       4     C     3.09276  3.09276  0.00000 -0.18551
       5     H     0.46450  0.46450  0.00000  0.07100
       6     H     0.47355  0.47355  0.00000  0.05291
       7     C     3.09015  3.09015  0.00000 -0.18031
       8     H     0.44728  0.44728  0.00000  0.10543
       9     H     0.45674  0.45674  0.00000  0.08652
      10     C     3.15054  3.15054  0.00000 -0.30107
      11     H     0.44597  0.44597  0.00000  0.10806
      12     H     0.45016  0.45016  0.00000  0.09968
      13     H     0.44778  0.44778  0.00000  0.10444
      14     H     0.45688  0.45688  0.00000  0.08625
      15     H     0.45688  0.45688  0.00000  0.08625

   Total alpha = 21.00000, Total beta = 21.00000, Total charge =  0.00000
