  ==> Input File <==

--------------------------------------------------------------------------
set {
	reference rhf
	basis cc-pvtz
}

set_num_threads( 4 )
memory 2 gb

molecule MOL {
0 1

H	 2.370520	 -0.205134	 0.293826
O	 1.510978	 -0.074150	 0.648334
C	 0.700177	 0.619554	 -0.266242
C	 -0.713111	 0.588314	 0.266177
H	 0.730652	 0.144564	 -1.242142
H	 1.027762	 1.650595	 -0.371216
O	 -1.421673	 -0.521378	 -0.196983
H	 -1.244794	 1.469161	 -0.069059
H	 -0.685100	 0.604721	 1.352683
H	 -0.933408	 -1.297830	 0.014544

	symmetry c1
}
set optking {
	frozen_dihedral = ("
		5 3 4 7
	")
}

ee = optimize('scf')
oeprop('DIPOLE', 'QUADRUPOLE', 'MULLIKEN_CHARGES')
f=open( 'psi4out.xyz', 'w' )
f.write( "10  " )
f.write( str(ee) + "\n" )
f.write( MOL.save_string_xyz() )
f.close()
--------------------------------------------------------------------------

    Molecular point group: c1
  Charge       = 0
  Multiplicity = 1
  Basis Set: CC-PVTZ
  Basis Set:
  @DF-RHF Final Energy:  -229.02439560749940
    Total Energy =                       -229.0243956074994571
    Molecular point group: c1
  Basis Set: CC-PVTZ
  Basis Set:
  Basis Set: CC-PVTZ
  Basis Set:
  @DF-RHF Final Energy:  -229.02510395032141
    Total Energy =                       -229.0251039503213519
  Basis Set: CC-PVTZ
  Basis Set:
  Basis Set: CC-PVTZ
  Basis Set:
  @DF-RHF Final Energy:  -229.02526810237396
    Total Energy =                       -229.0252681023739569
  Basis Set: CC-PVTZ
  Basis Set:
  Basis Set: CC-PVTZ
  Basis Set:
  @DF-RHF Final Energy:  -229.02527218944476
    Total Energy =                       -229.0252721894447632
  Basis Set: CC-PVTZ
  Basis Set:
  Charge       = 0
  Multiplicity = 1
  Basis Set: CC-PVTZ
  Basis Set:

    Orbital Energies (a.u.)
    -----------------------

    Doubly Occupied:

       1A    -20.554915     2A    -20.547236     3A    -11.271156
       4A    -11.267115     5A     -1.378415     6A     -1.358821
       7A     -1.001466     8A     -0.845205     9A     -0.727972
      10A     -0.678880    11A     -0.650259    12A     -0.608914
      13A     -0.575384    14A     -0.527592    15A     -0.493469
      16A     -0.456243    17A     -0.436895

  @DF-RHF Final Energy:  -229.02527256531147

   => Energetics <=

    Nuclear Repulsion Energy =            132.9449816862389753
    One-Electron Energy =                -577.1806382907905117
    Two-Electron Energy =                 215.2103840392399547
    DFT Exchange-Correlation Energy =       0.0000000000000000
    Empirical Dispersion Energy =           0.0000000000000000
    PCM Polarization Energy =               0.0000000000000000
    EFP Energy =                            0.0000000000000000
    Total Energy =                       -229.0252725653115817
    Molecular point group: c1
  Basis Set: CC-PVTZ
  Basis Set:

  -Total Gradient:
     Atom            X                  Y                   Z
    ------   -----------------  -----------------  -----------------
       1       -0.000005911164     0.000010508930    -0.000002874614
       2       -0.000039755491     0.000015826740    -0.000021930867
       3       -0.001985624226     0.007800958418    -0.004632059437
       4        0.002369148729    -0.004978641296     0.005936798028
       5        0.001200624452    -0.005570631947     0.002648436095
       6        0.000006155049     0.000008292094    -0.000004345216
       7       -0.001555422773     0.002683835318    -0.003931676609
       8        0.000013731576    -0.000000191242     0.000003166715
       9       -0.000001066751     0.000002402276     0.000002802824
      10       -0.000001879396     0.000027640709     0.000001683082

  **** Optimization is complete! (in 5 steps) ****
    Final optimized geometry and variables:
    Molecular point group: c1

    Geometry (in Angstrom), charge = 0, multiplicity = 1:

    H            2.345398011659    -0.293447274594     0.172601158332
    O            1.476867235043    -0.211640667524     0.520851754858
    C            0.664965763776     0.531810405098    -0.359546931848
    C           -0.760217785636     0.464135034399     0.153301098340
    H            0.699407651714     0.075411705042    -1.342951871795
    H            1.003222472011     1.561866224464    -0.414393303174
    O           -1.462015585671    -0.644499823493    -0.333770915898
    H           -1.307423116239     1.331009856175    -0.193155127860
    H           -0.747106605799     0.486443825433     1.237820569566
    H           -1.095055360393    -1.432265184636     0.026703705741

  Mulliken Charges: (a.u.)
   Center  Symbol    Alpha    Beta     Spin     Total
       1     H     0.39245  0.39245  0.00000  0.21510
       2     O     4.20520  4.20520  0.00000 -0.41040
       3     C     2.97757  2.97757  0.00000  0.04487
       4     C     2.96509  2.96509  0.00000  0.06983
       5     H     0.46759  0.46759  0.00000  0.06483
       6     H     0.47166  0.47166  0.00000  0.05668
       7     O     4.20615  4.20615  0.00000 -0.41231
       8     H     0.45949  0.45949  0.00000  0.08102
       9     H     0.46599  0.46599  0.00000  0.06802
      10     H     0.38882  0.38882  0.00000  0.22235

   Total alpha = 17.00000, Total beta = 17.00000, Total charge = -0.00000
