                              Psi4 1.0.54 Driver

  ==> Input File <==

--------------------------------------------------------------------------
set {
	reference rhf
	basis cc-pvtz
}

set_num_threads( 4 )
memory 2 gb

molecule MOL {
0 1

H	 1.295692	 1.728287	 -3.645433
O	 2.211227	 1.527832	 -3.586769
C	 2.740332	 2.021309	 -2.384354
C	 2.302519	 1.231665	 -1.159826
H	 3.815336	 1.961491	 -2.488120
H	 2.486621	 3.072464	 -2.261253
C	 0.807311	 1.315355	 -0.861167
H	 2.590608	 0.193716	 -1.297022
H	 2.861488	 1.604132	 -0.304712
C	 0.410631	 0.537894	 0.393041
H	 0.250011	 0.937499	 -1.711840
H	 0.522347	 2.358962	 -0.738825
C	 -1.064840	 0.647719	 0.781859
H	 0.669693	 -0.509731	 0.260393
H	 1.012114	 0.894493	 1.224621
C	 -2.041121	 -0.006551	 -0.194127
H	 -1.194807	 0.190453	 1.758866
H	 -1.326454	 1.696515	 0.903270
C	 -3.489218	 0.042606	 0.286507
H	 -1.751108	 -1.043530	 -0.349161
H	 -1.978162	 0.475382	 -1.165095
C	 -4.219984	 1.311773	 -0.139038
H	 -4.022855	 -0.824300	 -0.093339
H	 -3.510372	 -0.038577	 1.370031
H	 -4.244251	 1.405725	 -1.219696
H	 -5.244345	 1.313233	 0.215630
H	 -3.732090	 2.196311	 0.257073

	symmetry c1
}
set optking {
	frozen_dihedral = ("
		20 16 19 22
	")
}

ee,wfn = optimize('scf', return_wfn=True)
oeprop( wfn, 'DIPOLE', 'QUADRUPOLE', 'MULLIKEN_CHARGES')
f=open( 'psi4out.xyz', 'w' )
f.write( "27  " )
f.write( str(ee) + "\n" )
f.write( MOL.save_string_xyz() )
f.close()
--------------------------------------------------------------------------

    Molecular point group: c1
  Charge       = 0
  Multiplicity = 1
  Basis Set: CC-PVTZ
  Basis Set:
  @DF-RHF Final Energy:  -388.42446114583771
    Total Energy =                       -388.4244611458373129
    Molecular point group: c1
  Basis Set: CC-PVTZ
  Basis Set:
  Basis Set: CC-PVTZ
  Basis Set:
  @DF-RHF Final Energy:  -388.42465563362350
    Total Energy =                       -388.4246556336230469
  Basis Set: CC-PVTZ
  Basis Set:
  Basis Set: CC-PVTZ
  Basis Set:
  @DF-RHF Final Energy:  -388.42474333134442
    Total Energy =                       -388.4247433313448710
  Basis Set: CC-PVTZ
  Basis Set:
  Basis Set: CC-PVTZ
  Basis Set:
  @DF-RHF Final Energy:  -388.42475028878698
    Total Energy =                       -388.4247502887870951
  Basis Set: CC-PVTZ
  Basis Set:
  Basis Set: CC-PVTZ
  Basis Set:
  @DF-RHF Final Energy:  -388.42475213736640
    Total Energy =                       -388.4247521373665677
  Basis Set: CC-PVTZ
  Basis Set:
  Charge       = 0
  Multiplicity = 1
  Basis Set: CC-PVTZ
  Basis Set:

    Orbital Energies (a.u.)
    -----------------------

    Doubly Occupied:

       1A    -20.545362     2A    -11.264988     3A    -11.216745
       4A    -11.214699     5A    -11.213986     6A    -11.213418
       7A    -11.213239     8A    -11.211789     9A    -11.207808
      10A     -1.363251    11A     -1.095830    12A     -1.061741
      13A     -1.011354    14A     -0.948393    15A     -0.891145
      16A     -0.825719    17A     -0.800673    18A     -0.774478
      19A     -0.696339    20A     -0.650065    21A     -0.625177
      22A     -0.618113    23A     -0.614757    24A     -0.590469
      25A     -0.580282    26A     -0.554472    27A     -0.534413
      28A     -0.529082    29A     -0.513563    30A     -0.492622
      31A     -0.487623    32A     -0.476529    33A     -0.470614
      34A     -0.453677    35A     -0.452397    36A     -0.442700
      37A     -0.425535

  @DF-RHF Final Energy:  -388.42475221642991

   => Energetics <=

    Nuclear Repulsion Energy =            463.4242795794457948
    One-Electron Energy =               -1445.1319678544434737
    Two-Electron Energy =                 593.2829360585674294
    DFT Exchange-Correlation Energy =       0.0000000000000000
    Empirical Dispersion Energy =           0.0000000000000000
    PCM Polarization Energy =               0.0000000000000000
    EFP Energy =                            0.0000000000000000
    Total Energy =                       -388.4247522164303064
    Molecular point group: c1
  Basis Set: CC-PVTZ
  Basis Set:

  -Total Gradient:
     Atom            X                  Y                   Z
    ------   -----------------  -----------------  -----------------
       1       -0.000000375135    -0.000000281150    -0.000001848890
       2        0.000005621041     0.000001517063    -0.000001248256
       3       -0.000003968187     0.000005335802     0.000001003881
       4        0.000000721444     0.000002981207     0.000008959376
       5        0.000000460054    -0.000000311947     0.000000177971
       6        0.000000094375     0.000004929435    -0.000001945395
       7       -0.000005945600    -0.000014836248    -0.000017192189
       8       -0.000003204928     0.000000256167    -0.000003010350
       9        0.000005995673    -0.000003486932     0.000005204269
      10        0.000006920859     0.000009961635     0.000016044629
      11       -0.000009050845    -0.000001067700    -0.000001141912
      12        0.000001459669    -0.000010096097     0.000001271808
      13       -0.000001477602    -0.000005161341    -0.000001852957
      14       -0.000006332093     0.000005687012    -0.000002914214
      15        0.000011915804    -0.000001103716     0.000001561936
      16        0.000822804653    -0.000590458556     0.002895259268
      17       -0.000004554157     0.000001573994     0.000002894723
      18        0.000003784095     0.000001607543     0.000000681668
      19        0.000729641660     0.001488965885     0.001961249455
      20       -0.000871908777     0.000124727698    -0.002959610868
      21        0.000004930212     0.000012968852    -0.000015975012
      22       -0.000668663264    -0.001039416383    -0.001900451590
      23       -0.000009180715    -0.000013455192     0.000006240280
      24       -0.000000784233     0.000001262484     0.000013836195
      25        0.000006007948     0.000003774478    -0.000012553722
      26       -0.000019158509     0.000008238508     0.000000252389
      27        0.000004246565     0.000005887500     0.000005107501

  **** Optimization is complete! (in 6 steps) ****
    Final optimized geometry and variables:
    Molecular point group: c1

    Geometry (in Angstrom), charge = 0, multiplicity = 1:

    H            1.497422787455     0.836104996553    -2.809214532668
    O            2.410845866006     0.622128495884    -2.771053688529
    C            2.963719189880     1.066444100172    -1.560241200689
    C            2.535462100628     0.238439774866    -0.357949695706
    H            4.036279921494     0.998750992246    -1.682697842824
    H            2.723847838785     2.115174686645    -1.395978875662
    C            1.044944136325     0.322816591778    -0.037047911922
    H            2.813516516517    -0.796224377969    -0.534521110934
    H            3.108458822394     0.577029497000     0.501941430102
    C            0.660456485361    -0.484363581644     1.202159669855
    H            0.474019719869    -0.028459693260    -0.889952513327
    H            0.768534964100     1.364422858221     0.116844890007
    C           -0.808763415611    -0.376164003647     1.614951584779
    H            0.911332125445    -1.529824452813     1.039964265154
    H            1.275865373174    -0.151910886463     2.033498883797
    C           -1.798227221683    -1.032005332993     0.652595738593
    H           -0.924406285576    -0.839289557508     2.590714631264
    H           -1.065533421796     0.672027741170     1.746917472325
    C           -3.262792050632    -0.918537980043     1.096985158203
    H           -1.537911030643    -2.078666736250     0.523440691899
    H           -1.704103089779    -0.589991069055    -0.334807881946
    C           -3.948207337390     0.365191172633     0.634897590188
    H           -3.819475606820    -1.761274181373     0.699625306277
    H           -3.324474166677    -1.000655214343     2.178162737972
    H           -3.970310874513     0.420724599775    -0.448166842444
    H           -4.971725111794     0.411350829071     0.989339200961
    H           -3.435809199380     1.248999539162     0.999778621145

  Mulliken Charges: (a.u.)
   Center  Symbol    Alpha    Beta     Spin     Total
       1     H     0.39226  0.39226  0.00000  0.21548
       2     O     4.20551  4.20551  0.00000 -0.41102
       3     C     2.98003  2.98003  0.00000  0.03994
       4     C     3.08896  3.08896  0.00000 -0.17792
       5     H     0.44859  0.44859  0.00000  0.10282
       6     H     0.46963  0.46963  0.00000  0.06074
       7     C     3.10260  3.10260  0.00000 -0.20519
       8     H     0.45071  0.45071  0.00000  0.09859
       9     H     0.45527  0.45527  0.00000  0.08945
      10     C     3.09821  3.09821  0.00000 -0.19641
      11     H     0.45586  0.45586  0.00000  0.08828
      12     H     0.45376  0.45376  0.00000  0.09247
      13     C     3.09858  3.09858  0.00000 -0.19716
      14     H     0.45172  0.45172  0.00000  0.09656
      15     H     0.44796  0.44796  0.00000  0.10409
      16     C     3.09624  3.09624  0.00000 -0.19248
      17     H     0.44716  0.44716  0.00000  0.10568
      18     H     0.45326  0.45326  0.00000  0.09347
      19     C     3.08839  3.08839  0.00000 -0.17678
      20     H     0.44726  0.44726  0.00000  0.10547
      21     H     0.45665  0.45665  0.00000  0.08670
      22     C     3.14914  3.14914  0.00000 -0.29828
      23     H     0.44841  0.44841  0.00000  0.10318
      24     H     0.45532  0.45532  0.00000  0.08935
      25     H     0.45552  0.45552  0.00000  0.08896
      26     H     0.44743  0.44743  0.00000  0.10514
      27     H     0.45557  0.45557  0.00000  0.08887

   Total alpha = 37.00000, Total beta = 37.00000, Total charge = -0.00000

*** Psi4 exiting successfully. Buy a developer a beer!
