  ==> Input File <==

--------------------------------------------------------------------------
set {
	reference rhf
	basis 6-31G*
}

set_num_threads( 4 )
memory 2 gb

molecule MOL {
0 1

H	 3.297182	 -0.445357	 -0.016088
C	 2.237858	 -0.260312	 -0.012629
C	 1.694447	 0.621628	 0.913516
C	 1.423915	 -0.902278	 -0.930973
H	 2.332796	 1.116071	 1.623137
C	 0.334430	 0.861556	 0.920725
H	 1.847853	 -1.583803	 -1.645847
C	 0.059675	 -0.660729	 -0.922712
H	 -0.105174	 1.539409	 1.628124
C	 -0.488460	 0.219100	 0.000000
H	 -0.578223	 -1.156724	 -1.634065
C	 -1.949954	 0.470334	 0.000000
O	 -2.781584	 -0.381627	 0.000000
H	 -2.238022	 1.526388	 0.000000

	symmetry c1
}
set optking {
	frozen_dihedral = ("
		8 10 12 14
	")
}

ee = optimize('scf')
oeprop('DIPOLE', 'QUADRUPOLE', 'MULLIKEN_CHARGES')
f=open( 'psi4out.xyz', 'w' )
f.write( "14  " )
f.write( str(ee) + "\n" )
f.write( MOL.save_string_xyz() )
f.close()
--------------------------------------------------------------------------

    Molecular point group: c1
  Charge       = 0
  Multiplicity = 1
  Basis Set: 6-31G*
  Basis Set:
  @DF-RHF Final Energy:  -343.42470538214496
    Total Energy =                       -343.4247053821449072
    Molecular point group: c1
  Basis Set: 6-31G*
  Basis Set:
  Basis Set: 6-31G*
  Basis Set:
  @DF-RHF Final Energy:  -343.42307424559442
    Total Energy =                       -343.4230742455946483
  Basis Set: 6-31G*
  Basis Set:
  Basis Set: 6-31G*
  Basis Set:
  @DF-RHF Final Energy:  -343.42561607323290
    Total Energy =                       -343.4256160732327317
  Basis Set: 6-31G*
  Basis Set:
  Basis Set: 6-31G*
  Basis Set:
  @DF-RHF Final Energy:  -343.42575052360451
    Total Energy =                       -343.4257505236048473
  Basis Set: 6-31G*
  Basis Set:
  Basis Set: 6-31G*
  Basis Set:
  @DF-RHF Final Energy:  -343.42575292466830
    Total Energy =                       -343.4257529246681315
  Basis Set: 6-31G*
  Basis Set:
  Charge       = 0
  Multiplicity = 1
  Basis Set: 6-31G*
  Basis Set:

    Orbital Energies (a.u.)
    -----------------------

    Doubly Occupied:

       1A    -20.566899     2A    -11.333268     3A    -11.251210
       4A    -11.248836     5A    -11.247606     6A    -11.247233
       7A    -11.244626     8A    -11.243125     9A     -1.406624
      10A     -1.170270    11A     -1.046151    12A     -1.030401
      13A     -0.888100    14A     -0.842397    15A     -0.792515
      16A     -0.720861    17A     -0.677250    18A     -0.652070
      19A     -0.628526    20A     -0.617266    21A     -0.601908
      22A     -0.542586    23A     -0.527227    24A     -0.507071
      25A     -0.502851    26A     -0.422125    27A     -0.348071
      28A     -0.346687

  @DF-RHF Final Energy:  -343.42575361332280

   => Energetics <=

    Nuclear Repulsion Energy =            322.7552443779852069
    One-Electron Energy =               -1105.0544802999470448
    Two-Electron Energy =                 438.8734823086390406
    DFT Exchange-Correlation Energy =       0.0000000000000000
    Empirical Dispersion Energy =           0.0000000000000000
    PCM Polarization Energy =               0.0000000000000000
    EFP Energy =                            0.0000000000000000
    Total Energy =                       -343.4257536133227404
    Molecular point group: c1
  Basis Set: 6-31G*
  Basis Set:

  -Total Gradient:
     Atom            X                  Y                   Z
    ------   -----------------  -----------------  -----------------
       1        0.000003660994     0.000010431682     0.000002636369
       2       -0.000021695053    -0.000082009454    -0.000080665495
       3       -0.000099614518     0.000043190338     0.000051431460
       4        0.000131600374     0.000034843793     0.000044206773
       5        0.000009799105    -0.000004803877    -0.000009938415
       6        0.000129137963     0.000001476645     0.000069910513
       7       -0.000006202238    -0.000001686222     0.000002792379
       8        0.000927691538     0.004784128884    -0.003665709402
       9       -0.000008943148    -0.000004049765    -0.000007805507
      10       -0.001481447585    -0.006842989655     0.002929576722
      11        0.000001579402    -0.000000805294    -0.000002736090
      12        0.000200862532     0.001783330947     0.008161839465
      13       -0.000009206587     0.000022116852     0.000002711994
      14        0.000222777234     0.000256825128    -0.007498250766

  **** Optimization is complete! (in 6 steps) ****
    Final optimized geometry and variables:
    Molecular point group: c1

    Geometry (in Angstrom), charge = 0, multiplicity = 1:

    H            3.308906434126    -0.410769947619    -0.023585202556
    C            2.247345762606    -0.240935456854    -0.002148251196
    C            1.706362974539     0.634212986425     0.927072545200
    C            1.424763267979    -0.888626404101    -0.911166204741
    H            2.345474688551     1.141377426873     1.626969779809
    C            0.341706994592     0.865618456480     0.940766655700
    H            1.847878529881    -1.555450744971    -1.640503233782
    C            0.057314782366    -0.676423277662    -0.881152508971
    H           -0.077077563770     1.564088821708     1.645070599483
    C           -0.490267103231     0.187722544712     0.058592347536
    H           -0.590399831263    -1.180825703595    -1.574327832824
    C           -1.951142359300     0.482818011979     0.026678377229
    O           -2.793805226523    -0.342820383745    -0.124652380686
    H           -2.217250365352     1.543696487990     0.055765073746

  Mulliken Charges: (a.u.)
   Center  Symbol    Alpha    Beta     Spin     Total
       1     H     0.39498  0.39498  0.00000  0.21005
       2     C     3.09445  3.09445  0.00000 -0.18891
       3     C     3.10164  3.10164  0.00000 -0.20328
       4     C     3.10159  3.10159  0.00000 -0.20318
       5     H     0.39502  0.39502  0.00000  0.20996
       6     C     3.10323  3.10323  0.00000 -0.20646
       7     H     0.39449  0.39449  0.00000  0.21102
       8     C     3.09521  3.09521  0.00000 -0.19042
       9     H     0.39373  0.39373  0.00000  0.21254
      10     C     3.04100  3.04100  0.00000 -0.08201
      11     H     0.38297  0.38297  0.00000  0.23405
      12     C     2.84328  2.84328  0.00000  0.31343
      13     O     4.23596  4.23596  0.00000 -0.47192
      14     H     0.42244  0.42244  0.00000  0.15513

   Total alpha = 28.00000, Total beta = 28.00000, Total charge =  0.00000
