  ==> Input File <==

--------------------------------------------------------------------------
set {
	reference rhf
	basis 6-31G*
}

set_num_threads( 4 )
memory 2 gb

molecule MOL {
0 1

O	 -2.821601	 1.309235	 -0.001213
C	 -2.668563	 0.129746	 -0.000350
C	 -3.801572	 -0.864014	 -0.000442
O	 -1.481751	 -0.454642	 0.000584
H	 -4.417280	 -0.689587	 -0.874708
H	 -3.443784	 -1.883046	 -0.000565
H	 -4.417179	 -0.689832	 0.873954
C	 -0.334255	 0.388708	 0.000906
C	 0.891947	 -0.504646	 0.000751
H	 -0.365390	 1.025305	 -0.873475
H	 -0.365484	 1.024911	 0.875569
C	 0.539677	 -1.966109	 -0.282977
H	 1.387126	 -0.421419	 0.964240
H	 1.592627	 -0.139107	 -0.744829
C	 1.763417	 -2.884136	 -0.286854
H	 -0.170880	 -2.320260	 0.461854
H	 0.035025	 -2.038544	 -1.244830
C	 1.411352	 -4.344052	 -0.568918
H	 2.268711	 -2.813250	 0.673734
H	 2.473516	 -2.533039	 -1.032213
H	 0.728036	 -4.734489	 0.179850
H	 2.298536	 -4.969451	 -0.564946
H	 0.934705	 -4.452223	 -1.539029

	symmetry c1
}
set optking {
	frozen_dihedral = ("
		13 9 8 10
	")
}

ee = optimize('scf')
oeprop('DIPOLE', 'QUADRUPOLE', 'MULLIKEN_CHARGES')
f=open( 'psi4out.xyz', 'w' )
f.write( "23  " )
f.write( str(ee) + "\n" )
f.write( MOL.save_string_xyz() )
f.close()
--------------------------------------------------------------------------

    Molecular point group: c1
  Charge       = 0
  Multiplicity = 1
  Basis Set: 6-31G*
  Basis Set:
  @DF-RHF Final Energy:  -422.96900023184594
    Total Energy =                       -422.9690002318458255
    Molecular point group: c1
  Basis Set: 6-31G*
  Basis Set:
  Basis Set: 6-31G*
  Basis Set:
  @DF-RHF Final Energy:  -422.96960677320749
    Total Energy =                       -422.9696067732074880
  Basis Set: 6-31G*
  Basis Set:
  Basis Set: 6-31G*
  Basis Set:
  @DF-RHF Final Energy:  -422.97177920702291
    Total Energy =                       -422.9717792070230189
  Basis Set: 6-31G*
  Basis Set:
  Basis Set: 6-31G*
  Basis Set:
  @DF-RHF Final Energy:  -422.97191768549339
    Total Energy =                       -422.9719176854937359
  Basis Set: 6-31G*
  Basis Set:
  Basis Set: 6-31G*
  Basis Set:
  @DF-RHF Final Energy:  -422.97162430032478
    Total Energy =                       -422.9716243003241516
  Basis Set: 6-31G*
  Basis Set:
  Basis Set: 6-31G*
  Basis Set:
  @DF-RHF Final Energy:  -422.97194646253729
    Total Energy =                       -422.9719464625368346
  Basis Set: 6-31G*
  Basis Set:
  Basis Set: 6-31G*
  Basis Set:
  @DF-RHF Final Energy:  -422.97195270044534
    Total Energy =                       -422.9719527004456268
  Basis Set: 6-31G*
  Basis Set:
  Charge       = 0
  Multiplicity = 1
  Basis Set: 6-31G*
  Basis Set:

    Orbital Energies (a.u.)
    -----------------------

    Doubly Occupied:

       1A    -20.604111     2A    -20.541489     3A    -11.375018
       4A    -11.282533     5A    -11.233167     6A    -11.225917
       7A    -11.218315     8A    -11.217290     9A    -11.210835
      10A     -1.469156    11A     -1.361813    12A     -1.088445
      13A     -1.039921    14A     -1.001610    15A     -0.931275
      16A     -0.844279    17A     -0.807675    18A     -0.762814
      19A     -0.689072    20A     -0.688009    21A     -0.667093
      22A     -0.642848    23A     -0.605036    24A     -0.588683
      25A     -0.579766    26A     -0.565878    27A     -0.559878
      28A     -0.528398    29A     -0.525169    30A     -0.517323
      31A     -0.488745    32A     -0.472694    33A     -0.468917
      34A     -0.457912    35A     -0.443183    36A     -0.437804

  @DF-RHF Final Energy:  -422.97195273608168

   => Energetics <=

    Nuclear Repulsion Energy =            460.0270615968871653
    One-Electron Energy =               -1487.7138880436123145
    Two-Electron Energy =                 604.7148737106442695
    DFT Exchange-Correlation Energy =       0.0000000000000000
    Empirical Dispersion Energy =           0.0000000000000000
    PCM Polarization Energy =               0.0000000000000000
    EFP Energy =                            0.0000000000000000
    Total Energy =                       -422.9719527360809934
    Molecular point group: c1
  Basis Set: 6-31G*
  Basis Set:

  -Total Gradient:
     Atom            X                  Y                   Z
    ------   -----------------  -----------------  -----------------
       1       -0.000004842299     0.000006769268     0.000003189590
       2        0.000003223054    -0.000019113961    -0.000000722918
       3       -0.000002356230     0.000004602506     0.000016720349
       4       -0.000042309114    -0.000020176165    -0.000012864015
       5        0.000001827056    -0.000004575446    -0.000005713545
       6        0.000000777982     0.000000683569    -0.000001510114
       7       -0.000002742130     0.000003474825    -0.000005907950
       8       -0.002298531062    -0.003225946428    -0.003091933071
       9       -0.002526701263    -0.003169344300     0.002500109894
      10        0.002329301936     0.003170915886     0.002191709132
      11        0.000018204482     0.000004354082    -0.000004800723
      12       -0.000000135617     0.000001737133    -0.000025761976
      13        0.002530016609     0.003263049920    -0.001558114743
      14       -0.000005030939    -0.000011668137     0.000002633413
      15       -0.000000146202    -0.000002370610     0.000005352615
      16        0.000012577655    -0.000009602141    -0.000009963708
      17       -0.000008856153     0.000007287577    -0.000012625069
      18       -0.000004361395    -0.000000672441     0.000013499418
      19        0.000012767097     0.000009438863    -0.000000780422
      20       -0.000012219872    -0.000008459580    -0.000007510681
      21       -0.000004400122    -0.000002134295    -0.000002096415
      22       -0.000000576156     0.000000238200     0.000007048494
      23        0.000004512690     0.000001511679     0.000000042444

  **** Optimization is complete! (in 8 steps) ****
    Final optimized geometry and variables:
    Molecular point group: c1

    Geometry (in Angstrom), charge = 0, multiplicity = 1:

    O           -2.056968097337     2.423968569522     0.065496694819
    C           -1.986262316950     1.238293417863     0.124810651111
    C           -3.185787635827     0.327275143799     0.175323661663
    O           -0.843458693977     0.572501715605     0.153967305328
    H           -3.793335032642     0.502991715884    -0.704342547672
    H           -2.900251103132    -0.713280519697     0.222430290012
    H           -3.782161732262     0.585109102670     1.042352978898
    C            0.357514200224     1.333533245927     0.110223250064
    C            1.581494364753     0.404761578269     0.166850973884
    H            0.362620980556     1.945303024468    -0.781002150212
    H            0.355429978820     2.017746500304     0.947594401388
    C            1.323807013169    -1.068458904713    -0.156110764060
    H            2.060426488050     0.497846337818     1.137356721916
    H            2.310927241344     0.791036611387    -0.541134276751
    C            2.613434556274    -1.891398603662    -0.163810470436
    H            0.631534882510    -1.486573842272     0.567127684781
    H            0.837212761469    -1.149064701419    -1.124901866260
    C            2.371033167479    -3.369315435335    -0.468220923725
    H            3.107218658220    -1.799064365417     0.801390765965
    H            3.302293343866    -1.480636015462    -0.898988080696
    H            1.713496525329    -3.818850351238     0.270422479887
    H            3.301318717934    -3.928804686644    -0.466936858929
    H            1.908869605574    -3.498074099756    -1.442871990950

  Mulliken Charges: (a.u.)
   Center  Symbol    Alpha    Beta     Spin     Total
       1     O     4.28384  4.28384  0.00000 -0.56768
       2     C     2.61391  2.61391  0.00000  0.77218
       3     C     3.28770  3.28770  0.00000 -0.57541
       4     O     4.31090  4.31090  0.00000 -0.62180
       5     H     0.39732  0.39732  0.00000  0.20536
       6     H     0.40002  0.40002  0.00000  0.19995
       7     H     0.39736  0.39736  0.00000  0.20527
       8     C     2.99951  2.99951  0.00000  0.00098
       9     C     3.17915  3.17915  0.00000 -0.35830
      10     H     0.40876  0.40876  0.00000  0.18247
      11     H     0.40826  0.40826  0.00000  0.18348
      12     C     3.14538  3.14538  0.00000 -0.29076
      13     H     0.41544  0.41544  0.00000  0.16911
      14     H     0.41674  0.41674  0.00000  0.16652
      15     C     3.15376  3.15376  0.00000 -0.30752
      16     H     0.41498  0.41498  0.00000  0.17004
      17     H     0.42000  0.42000  0.00000  0.15999
      18     C     3.23914  3.23914  0.00000 -0.47828
      19     H     0.42294  0.42294  0.00000  0.15413
      20     H     0.42320  0.42320  0.00000  0.15359
      21     H     0.42137  0.42137  0.00000  0.15727
      22     H     0.41889  0.41889  0.00000  0.16221
      23     H     0.42141  0.42141  0.00000  0.15718

   Total alpha = 36.00000, Total beta = 36.00000, Total charge = -0.00000
