                              Psi4 1.0.54 Driver

  ==> Input File <==

--------------------------------------------------------------------------
set {
	reference rhf
	basis cc-pvtz
}

set_num_threads( 4 )
memory 2 gb

molecule MOL {
0 1

O	 0.511543	 0.367762	 2.125520
C	 0.158467	 0.725234	 1.038198
C	 -0.855507	 1.842264	 0.900597
N	 0.622280	 0.144970	 -0.099307
H	 -1.740232	 1.509181	 0.372711
H	 -1.129678	 2.152836	 1.895015
H	 -0.441461	 2.687117	 0.364162
C	 1.664396	 -0.854993	 0.000772
C	 0.401622	 0.675883	 -1.423390
H	 2.462727	 -0.615153	 -0.690869
H	 1.261798	 -1.821849	 -0.240651
H	 2.081615	 -0.891605	 1.003877
H	 0.340109	 -0.142507	 -2.129145
H	 -0.521258	 1.226905	 -1.483075
H	 1.212687	 1.327912	 -1.739738

	symmetry c1
}
set optking {
	frozen_dihedral = ("
		2 4 8 10
	")
}

ee,wfn = optimize('scf', return_wfn=True)
oeprop( wfn, 'DIPOLE', 'QUADRUPOLE', 'MULLIKEN_CHARGES')
f=open( 'psi4out.xyz', 'w' )
f.write( "15  " )
f.write( str(ee) + "\n" )
f.write( MOL.save_string_xyz() )
f.close()
--------------------------------------------------------------------------

    Molecular point group: c1
  Charge       = 0
  Multiplicity = 1
  Basis Set: CC-PVTZ
  Basis Set:
  @DF-RHF Final Energy:  -286.13442150330161
    Total Energy =                       -286.1344215033014962
    Molecular point group: c1
  Basis Set: CC-PVTZ
  Basis Set:
  Basis Set: CC-PVTZ
  Basis Set:
  @DF-RHF Final Energy:  -286.13503938217787
    Total Energy =                       -286.1350393821778084
  Basis Set: CC-PVTZ
  Basis Set:
  Basis Set: CC-PVTZ
  Basis Set:
  @DF-RHF Final Energy:  -286.13512295302252
    Total Energy =                       -286.1351229530225737
  Basis Set: CC-PVTZ
  Basis Set:
  Basis Set: CC-PVTZ
  Basis Set:
  @DF-RHF Final Energy:  -286.13532991663709
    Total Energy =                       -286.1353299166372040
  Basis Set: CC-PVTZ
  Basis Set:
  @DF-RHF Final Energy:  -286.13539342035688
    Total Energy =                       -286.1353934203569906
  @DF-RHF Final Energy:  -286.13542470002778
    Total Energy =                       -286.1354247000278406
  @DF-RHF Final Energy:  -286.13544609176836
    Total Energy =                       -286.1354460917682445
  @DF-RHF Final Energy:  -286.13546640663151
    Total Energy =                       -286.1354664066313944
  @DF-RHF Final Energy:  -286.13548599536159
    Total Energy =                       -286.1354859953613641
  @DF-RHF Final Energy:  -286.13550367896227
    Total Energy =                       -286.1355036789623796
  @DF-RHF Final Energy:  -286.13550839055176
    Total Energy =                       -286.1355083905517063
  @DF-RHF Final Energy:  -286.13551940796191
    Total Energy =                       -286.1355194079618514
  @DF-RHF Final Energy:  -286.13553356964962
    Total Energy =                       -286.1355335696495104
  @DF-RHF Final Energy:  -286.13523462295279
    Total Energy =                       -286.1352346229527939
  @DF-RHF Final Energy:  -286.13557527843818
    Total Energy =                       -286.1355752784380115
  @DF-RHF Final Energy:  -286.13559644826307
    Total Energy =                       -286.1355964482630725
  Basis Set: CC-PVTZ
  Basis Set:
  @DF-RHF Final Energy:  -286.13558413261228
    Total Energy =                       -286.1355841326125073
  Basis Set: CC-PVTZ
  Basis Set:
  Basis Set: CC-PVTZ
  Basis Set:
  @DF-RHF Final Energy:  -286.13561543033779
    Total Energy =                       -286.1356154303379071
  Basis Set: CC-PVTZ
  Basis Set:
  Basis Set: CC-PVTZ
  Basis Set:
  @DF-RHF Final Energy:  -286.13561664629520
    Total Energy =                       -286.1356166462951478
  Basis Set: CC-PVTZ
  Basis Set:
  Charge       = 0
  Multiplicity = 1
  Basis Set: CC-PVTZ
  Basis Set:

    Orbital Energies (a.u.)
    -----------------------

    Doubly Occupied:

       1A    -20.502559     2A    -15.578799     3A    -11.335334
       4A    -11.264121     5A    -11.246411     6A    -11.226428
       7A     -1.386627     8A     -1.246629     9A     -1.015099
      10A     -0.973421    11A     -0.921510    12A     -0.739391
      13A     -0.683380    14A     -0.662209    15A     -0.653856
      16A     -0.590701    17A     -0.577937    18A     -0.566831
      19A     -0.561495    20A     -0.548736    21A     -0.530440
      22A     -0.507720    23A     -0.413002    24A     -0.369864

  @DF-RHF Final Energy:  -286.13561673957997

   => Energetics <=

    Nuclear Repulsion Energy =            252.8150796707932102
    One-Electron Energy =                -889.6963931848249558
    Two-Electron Energy =                 350.7456967744518579
    DFT Exchange-Correlation Energy =       0.0000000000000000
    Empirical Dispersion Energy =           0.0000000000000000
    PCM Polarization Energy =               0.0000000000000000
    EFP Energy =                            0.0000000000000000
    Total Energy =                       -286.1356167395798593
    Molecular point group: c1
  Basis Set: CC-PVTZ
  Basis Set:

  -Total Gradient:
     Atom            X                  Y                   Z
    ------   -----------------  -----------------  -----------------
       1        0.000002934658    -0.000005973903    -0.000018294641
       2        0.000071418907     0.000059788019     0.000027964558
       3        0.000020923101     0.000026436065    -0.000003469837
       4       -0.000100586286    -0.000074431030     0.000004619311
       5        0.000002731763    -0.000010758044    -0.000004406363
       6        0.000003404515    -0.000006186363    -0.000000706691
       7       -0.000013607544     0.000007758120     0.000007062249
       8       -0.000015581151    -0.000020759313    -0.000125500385
       9       -0.000014454798    -0.000026509490     0.000025698805
      10        0.000044036169     0.000055981904     0.000109990320
      11       -0.000010187024     0.000004067946    -0.000006798556
      12       -0.000001601634     0.000001490527     0.000002057721
      13       -0.000021188703    -0.000025728302    -0.000023168004
      14       -0.000000680414     0.000013638398     0.000007952712
      15        0.000032438442     0.000001185463    -0.000003001198

  **** Optimization is complete! (in 20 steps) ****
    Final optimized geometry and variables:
    Molecular point group: c1

    Geometry (in Angstrom), charge = 0, multiplicity = 1:

    O            0.023128868366    -0.170590536522     1.712125561443
    C           -0.271430047074     0.237895010794     0.624912203640
    C           -1.341333695582     1.301521097563     0.483475370694
    N            0.332680312935    -0.210528312002    -0.504384430160
    H           -2.165694226777     0.956365377587    -0.127945680151
    H           -1.702146181874     1.527079660853     1.473089209254
    H           -0.943269536625     2.203296223552     0.035217370311
    C            1.306616755335    -1.277042461007    -0.416220598240
    C           -0.062304950534     0.147165008421    -1.844899440853
    H            2.209659859324    -0.998502639353    -0.947886307151
    H            0.919325886509    -2.190121326943    -0.859612228448
    H            1.544835261535    -1.462716900186     0.614955093783
    H           -0.659393502315    -0.634786417373    -2.307581168539
    H           -0.627320741681     1.062603158838    -1.865249750573
    H            0.821648563638     0.293025966868    -2.454179738936

  Mulliken Charges: (a.u.)
   Center  Symbol    Alpha    Beta     Spin     Total
       1     O     4.22208  4.22208  0.00000 -0.44417
       2     C     2.84649  2.84649  0.00000  0.30702
       3     C     3.16045  3.16045  0.00000 -0.32091
       4     N     3.55921  3.55921  0.00000 -0.11843
       5     H     0.44949  0.44949  0.00000  0.10101
       6     H     0.42852  0.42852  0.00000  0.14297
       7     H     0.44930  0.44930  0.00000  0.10141
       8     C     3.10052  3.10052  0.00000 -0.20104
       9     C     3.09489  3.09489  0.00000 -0.18978
      10     H     0.45636  0.45636  0.00000  0.08728
      11     H     0.45799  0.45799  0.00000  0.08402
      12     H     0.42513  0.42513  0.00000  0.14974
      13     H     0.45399  0.45399  0.00000  0.09203
      14     H     0.44496  0.44496  0.00000  0.11008
      15     H     0.45061  0.45061  0.00000  0.09877

   Total alpha = 24.00000, Total beta = 24.00000, Total charge =  0.00000

*** Psi4 exiting successfully. Buy a developer a beer!
