  ==> Input File <==

--------------------------------------------------------------------------
set {
	reference rhf
	basis 6-31G*
}

set_num_threads( 4 )
memory 2 gb

molecule MOL {
0 1

O	 0.141542	 -0.084052	 -0.639915
C	 1.122059	 0.121804	 -0.000188
C	 1.347571	 1.309149	 0.903831
O	 2.172624	 -0.688929	 0.000216
C	 0.168145	 2.276087	 0.940238
H	 1.572026	 0.924512	 1.895006
H	 2.253653	 1.805830	 0.567561
C	 0.422818	 3.469264	 1.862646
H	 -0.721403	 1.744318	 1.263394
H	 -0.039116	 2.626548	 -0.066103
C	 -0.753407	 4.443833	 1.904073
H	 0.630724	 3.112495	 2.869407
H	 1.316606	 3.996968	 1.535932
H	 -1.655166	 3.954141	 2.260004
H	 -0.547343	 5.279891	 2.564997
H	 -0.963978	 4.845394	 0.917134
C	 3.452279	 -0.082609	 0.000533
H	 3.583069	 0.529321	 -0.880332
H	 4.163299	 -0.894027	 0.001117
H	 3.582335	 0.529955	 0.881077

	symmetry c1
}
set optking {
	frozen_dihedral = ("
		1 2 4 17
	")
}

ee = optimize('scf')
oeprop('DIPOLE', 'QUADRUPOLE', 'MULLIKEN_CHARGES')
f=open( 'psi4out.xyz', 'w' )
f.write( "20  " )
f.write( str(ee) + "\n" )
f.write( MOL.save_string_xyz() )
f.close()
--------------------------------------------------------------------------

    Molecular point group: c1
  Charge       = 0
  Multiplicity = 1
  Basis Set: 6-31G*
  Basis Set:
  @DF-RHF Final Energy:  -383.91556646635951
    Total Energy =                       -383.9155664663595644
    Molecular point group: c1
  Basis Set: 6-31G*
  Basis Set:
  Basis Set: 6-31G*
  Basis Set:
  @DF-RHF Final Energy:  -383.91579467111029
    Total Energy =                       -383.9157946711100067
  Basis Set: 6-31G*
  Basis Set:
  Basis Set: 6-31G*
  Basis Set:
  @DF-RHF Final Energy:  -383.92147807832242
    Total Energy =                       -383.9214780783229344
  Basis Set: 6-31G*
  Basis Set:
  Basis Set: 6-31G*
  Basis Set:
  @DF-RHF Final Energy:  -383.92272115105965
    Total Energy =                       -383.9227211510599318
  Basis Set: 6-31G*
  Basis Set:
  Basis Set: 6-31G*
  Basis Set:
  @DF-RHF Final Energy:  -383.92252256983710
    Total Energy =                       -383.9225225698364738
  Basis Set: 6-31G*
  Basis Set:
  Basis Set: 6-31G*
  Basis Set:
  @DF-RHF Final Energy:  -383.92356547887152
    Total Energy =                       -383.9235654788715237
  Basis Set: 6-31G*
  Basis Set:
  Basis Set: 6-31G*
  Basis Set:
  @DF-RHF Final Energy:  -383.92357823662377
    Total Energy =                       -383.9235782366241665
  Basis Set: 6-31G*
  Basis Set:
  Charge       = 0
  Multiplicity = 1
  Basis Set: 6-31G*
  Basis Set:

    Orbital Energies (a.u.)
    -----------------------

    Doubly Occupied:

       1A    -20.595407     2A    -20.546803     3A    -11.374351
       4A    -11.295743     5A    -11.244261     6A    -11.224291
       7A    -11.223617     8A    -11.213421     9A     -1.460972
      10A     -1.366863    11A     -1.091478    12A     -1.017177
      13A     -0.981072    14A     -0.901105    15A     -0.810157
      16A     -0.766735    17A     -0.698474    18A     -0.685125
      19A     -0.673750    20A     -0.649258    21A     -0.609601
      22A     -0.592029    23A     -0.589724    24A     -0.553474
      25A     -0.540089    26A     -0.519661    27A     -0.502719
      28A     -0.482555    29A     -0.478529    30A     -0.474086
      31A     -0.450032    32A     -0.432173

  @DF-RHF Final Energy:  -383.92357923480427

   => Energetics <=

    Nuclear Repulsion Energy =            382.7099207718779326
    One-Electron Energy =               -1281.1775376765563124
    Two-Electron Energy =                 514.5440376698738874
    DFT Exchange-Correlation Energy =       0.0000000000000000
    Empirical Dispersion Energy =           0.0000000000000000
    PCM Polarization Energy =               0.0000000000000000
    EFP Energy =                            0.0000000000000000
    Total Energy =                       -383.9235792348044924
    Molecular point group: c1
  Basis Set: 6-31G*
  Basis Set:

  -Total Gradient:
     Atom            X                  Y                   Z
    ------   -----------------  -----------------  -----------------
       1        0.001758446446     0.001720637119    -0.002923212171
       2       -0.002465078666    -0.002560347244     0.002456993646
       3       -0.000006981636     0.000042437508    -0.000034662047
       4        0.000651190533     0.000825693481     0.003750967783
       5        0.000026947598    -0.000000460262    -0.000005341451
       6        0.000019471195    -0.000023529124     0.000020896445
       7       -0.000015507760    -0.000019555169     0.000034855537
       8       -0.000000514064     0.000001177419    -0.000000234983
       9        0.000011301495     0.000005788466    -0.000009014599
      10       -0.000002635691     0.000003246458    -0.000013888924
      11       -0.000002016712    -0.000006395143     0.000010467559
      12        0.000008555930     0.000002417395     0.000000550556
      13       -0.000005197837     0.000004802256    -0.000003278326
      14       -0.000003902922     0.000000444730    -0.000000983374
      15       -0.000001302609    -0.000002378368     0.000002743078
      16        0.000003150650     0.000000448153    -0.000000102457
      17        0.000017013003     0.000000674109    -0.003285395614
      18        0.000036665255     0.000016840222    -0.000004280773
      19       -0.000005173492    -0.000006168399     0.000017127870
      20       -0.000024430712    -0.000005773599    -0.000014207758

  **** Optimization is complete! (in 8 steps) ****
    Final optimized geometry and variables:
    Molecular point group: c1

    Geometry (in Angstrom), charge = 0, multiplicity = 1:

    O           -0.800082490979    -1.293090564763    -1.311894298401
    C            0.155545123411    -1.126202038048    -0.635688405957
    C            0.353799520974     0.081918145120     0.257678547202
    O            1.125534273775    -2.053969025398    -0.613665351110
    C           -0.888942612652     0.963540458356     0.352564915240
    H            0.655010495500    -0.272453211615     1.240295409949
    H            1.192647377491     0.660035316243    -0.123048407462
    C           -0.672116546890     2.177149657563     1.257748759586
    H           -1.719365641043     0.370962309167     0.723231437105
    H           -1.171179754758     1.289426656933    -0.642789369492
    C           -1.913259694749     3.062503075544     1.361799075348
    H           -0.383791398590     1.843227512019     2.252500492728
    H            0.160692053357     2.767995639474     0.881089430790
    H           -2.755125014017     2.509808344952     1.768286935909
    H           -1.733423031219     3.915572809301     2.008390942260
    H           -2.206838400239     3.440870352312     0.387064485821
    C            2.483895112813    -1.680505825566    -0.591670787369
    H            2.716004876124    -1.005616848087    -1.407206190984
    H            3.044702387727    -2.593030330908    -0.719950344326
    H            2.763636474548    -1.223288198030     0.349548146006

  Mulliken Charges: (a.u.)
   Center  Symbol    Alpha    Beta     Spin     Total
       1     O     4.25916  4.25916  0.00000 -0.51832
       2     C     2.60392  2.60392  0.00000  0.79216
       3     C     3.22925  3.22925  0.00000 -0.45851
       4     O     4.30704  4.30704  0.00000 -0.61408
       5     C     3.14867  3.14867  0.00000 -0.29735
       6     H     0.40247  0.40247  0.00000  0.19506
       7     H     0.40515  0.40515  0.00000  0.18970
       8     C     3.15464  3.15464  0.00000 -0.30929
       9     H     0.41075  0.41075  0.00000  0.17849
      10     H     0.40844  0.40844  0.00000  0.18312
      11     C     3.23957  3.23957  0.00000 -0.47913
      12     H     0.42315  0.42315  0.00000  0.15370
      13     H     0.42392  0.42392  0.00000  0.15216
      14     H     0.41915  0.41915  0.00000  0.16169
      15     H     0.41841  0.41841  0.00000  0.16317
      16     H     0.41926  0.41926  0.00000  0.16148
      17     C     3.09426  3.09426  0.00000 -0.18851
      18     H     0.41562  0.41562  0.00000  0.16876
      19     H     0.39903  0.39903  0.00000  0.20194
      20     H     0.41812  0.41812  0.00000  0.16377

   Total alpha = 32.00000, Total beta = 32.00000, Total charge = -0.00000
