  ==> Input File <==

--------------------------------------------------------------------------
set {
	reference rhf
	basis cc-pvtz
}

set_num_threads( 4 )
memory 2 gb

molecule MOL {
0 1

H	 -1.062961	 1.996723	 -1.184926
C	 -1.579737	 1.133495	 -0.778204
O	 -0.775228	 0.000056	 -0.739966
H	 -2.411978	 0.902956	 -1.428111
H	 -1.975928	 1.395210	 0.197588
C	 0.406133	 -0.000384	 0.036994
C	 1.526415	 -0.003194	 -0.997339
C	 0.498772	 1.259027	 0.900673
C	 0.495883	 -1.257378	 0.904465
H	 1.452279	 0.872071	 -1.630204
H	 1.451276	 -0.881020	 -1.626529
H	 2.497919	 -0.002741	 -0.517601
H	 0.368981	 2.144239	 0.289753
H	 1.470064	 1.313479	 1.377660
H	 -0.248448	 1.271586	 1.684297
H	 0.363971	 -2.144195	 0.296316
H	 1.467114	 -1.312636	 1.381470
H	 -0.251246	 -1.265768	 1.688235

	symmetry c1
}
set optking {
	frozen_dihedral = ("
		2 3 6 7
	")
}

ee = optimize('scf')
oeprop('DIPOLE', 'QUADRUPOLE', 'MULLIKEN_CHARGES')
f=open( 'psi4out.xyz', 'w' )
f.write( "18  " )
f.write( str(ee) + "\n" )
f.write( MOL.save_string_xyz() )
f.close()
--------------------------------------------------------------------------

    Molecular point group: c1
  Charge       = 0
  Multiplicity = 1
  Basis Set: CC-PVTZ
  Basis Set:
  @DF-RHF Final Energy:  -271.26852790541125
    Total Energy =                       -271.2685279054113607
    Molecular point group: c1
  Basis Set: CC-PVTZ
  Basis Set:
  Basis Set: CC-PVTZ
  Basis Set:
  @DF-RHF Final Energy:  -271.26998702184039
    Total Energy =                       -271.2699870218403362
  Basis Set: CC-PVTZ
  Basis Set:
  Basis Set: CC-PVTZ
  Basis Set:
  @DF-RHF Final Energy:  -271.27253290469832
    Total Energy =                       -271.2725329046979823
  Basis Set: CC-PVTZ
  Basis Set:
  Basis Set: CC-PVTZ
  Basis Set:
  @DF-RHF Final Energy:  -271.27279534213591
    Total Energy =                       -271.2727953421357938
  Basis Set: CC-PVTZ
  Basis Set:
  @DF-RHF Final Energy:  -271.27280972557725
    Total Energy =                       -271.2728097255771900
  Basis Set: CC-PVTZ
  Basis Set:
  @DF-RHF Final Energy:  -271.27281232501014
    Total Energy =                       -271.2728123250100793
  Basis Set: CC-PVTZ
  Basis Set:
  Basis Set: CC-PVTZ
  Basis Set:
  @DF-RHF Final Energy:  -271.27281801980700
    Total Energy =                       -271.2728180198070049
  Basis Set: CC-PVTZ
  Basis Set:
  Basis Set: CC-PVTZ
  Basis Set:
  @DF-RHF Final Energy:  -271.27281946023527
    Total Energy =                       -271.2728194602353256
  Basis Set: CC-PVTZ
  Basis Set:
  Charge       = 0
  Multiplicity = 1
  Basis Set: CC-PVTZ
  Basis Set:

    Orbital Energies (a.u.)
    -----------------------

    Doubly Occupied:

       1A    -20.537499     2A    -11.280620     3A    -11.259465
       4A    -11.211765     5A    -11.202592     6A    -11.201690
       7A     -1.369787     8A     -1.075505     9A     -0.951678
      10A     -0.935331    11A     -0.912356    12A     -0.752309
      13A     -0.657643    14A     -0.648000    15A     -0.638718
      16A     -0.583557    17A     -0.577525    18A     -0.549185
      19A     -0.542086    20A     -0.527096    21A     -0.515292
      22A     -0.491047    23A     -0.484393    24A     -0.443742
      25A     -0.399088

  @DF-RHF Final Energy:  -271.27281935544960

   => Energetics <=

    Nuclear Repulsion Energy =            272.0806131073226766
    One-Electron Energy =                -907.2109287752500677
    Two-Electron Energy =                 363.8574963124779060
    DFT Exchange-Correlation Energy =       0.0000000000000000
    Empirical Dispersion Energy =           0.0000000000000000
    PCM Polarization Energy =               0.0000000000000000
    EFP Energy =                            0.0000000000000000
    Total Energy =                       -271.2728193554494283
    Molecular point group: c1
  Basis Set: CC-PVTZ
  Basis Set:

  -Total Gradient:
     Atom            X                  Y                   Z
    ------   -----------------  -----------------  -----------------
       1        0.000021903578     0.000008061134     0.000002771702
       2       -0.001090335113    -0.000720022346     0.001929147621
       3        0.001693036328     0.000479458498    -0.002853305879
       4        0.000001280680     0.000003520363     0.000002248614
       5       -0.000005044805     0.000008616739    -0.000016488708
       6       -0.000638826708     0.002087128661     0.000842609927
       7        0.000026066240    -0.001854163092     0.000101343030
       8       -0.000010711389    -0.000013475407     0.000002084142
       9        0.000016286998    -0.000014062919     0.000009407576
      10       -0.000000233168     0.000002215989     0.000007159388
      11        0.000001586738     0.000005288926    -0.000004201096
      12        0.000001734775    -0.000004151739     0.000004869066
      13       -0.000023314051     0.000013290536    -0.000014557516
      14        0.000001370675     0.000007658233    -0.000008936159
      15        0.000011854322    -0.000008018082     0.000002626651
      16       -0.000012893502    -0.000006020164     0.000006035053
      17        0.000005061712    -0.000012573280    -0.000006710049
      18        0.000001176689     0.000017247950    -0.000006103365

  **** Optimization is complete! (in 9 steps) ****
    Final optimized geometry and variables:
    Molecular point group: c1

    Geometry (in Angstrom), charge = 0, multiplicity = 1:

    H           -1.262733037918     1.731440241719    -1.137295334990
    C           -1.726025809403     0.869860149824    -0.664291240707
    O           -0.868715982030    -0.220427416125    -0.581683725703
    H           -2.559831028495     0.559823334333    -1.278336567879
    H           -2.112755762979     1.172890240293     0.302832302909
    C            0.353038510977    -0.162135300724     0.140229521216
    C            1.481668613714    -0.194011830409    -0.889114746424
    C            0.487128943161     1.065221320585     1.041101546685
    C            0.384541243559    -1.429760270939     0.990928115487
    H            1.448472723993     0.687108534422    -1.520272317745
    H            1.377397970637    -1.064864972686    -1.523249947086
    H            2.452808052668    -0.229933784456    -0.408230327451
    H            0.472926750731     1.989784336629     0.478485661420
    H            1.434075244210     1.014845225350     1.563708019703
    H           -0.297532927174     1.102730784814     1.786100572586
    H            0.252394706129    -2.300723285379     0.361926196166
    H            1.326883117255    -1.524727020212     1.518659002474
    H           -0.417830146809    -1.416220656411     1.718836596092

  Mulliken Charges: (a.u.)
   Center  Symbol    Alpha    Beta     Spin     Total
       1     H     0.46999  0.46999  0.00000  0.06003
       2     C     3.04124  3.04124  0.00000 -0.08247
       3     O     4.19907  4.19907  0.00000 -0.39813
       4     H     0.44273  0.44273  0.00000  0.11453
       5     H     0.46852  0.46852  0.00000  0.06296
       6     C     2.87044  2.87044  0.00000  0.25912
       7     C     3.14349  3.14349  0.00000 -0.28698
       8     C     3.17663  3.17663  0.00000 -0.35325
       9     C     3.14061  3.14061  0.00000 -0.28121
      10     H     0.45180  0.45180  0.00000  0.09640
      11     H     0.44799  0.44799  0.00000  0.10402
      12     H     0.45673  0.45673  0.00000  0.08654
      13     H     0.44434  0.44434  0.00000  0.11132
      14     H     0.44249  0.44249  0.00000  0.11503
      15     H     0.44501  0.44501  0.00000  0.10998
      16     H     0.44771  0.44771  0.00000  0.10458
      17     H     0.45887  0.45887  0.00000  0.08227
      18     H     0.45236  0.45236  0.00000  0.09528

   Total alpha = 25.00000, Total beta = 25.00000, Total charge = -0.00000
