  ==> Input File <==

--------------------------------------------------------------------------
set {
	reference rhf
	basis cc-pvtz
}

set_num_threads( 4 )
memory 2 gb

molecule MOL {
0 1

H	 0.185110	 -1.156650	 -1.344572
C	 -0.613279	 -1.402782	 -0.648241
O	 -1.401606	 -0.295183	 -0.366624
H	 -1.246649	 -2.153951	 -1.097101
H	 -0.166921	 -1.816057	 0.254451
C	 -0.718530	 0.758693	 0.228682
C	 0.718529	 0.758687	 -0.228709
H	 -1.176498	 1.708665	 -0.046615
H	 -0.748705	 0.673525	 1.312779
O	 1.401606	 -0.295166	 0.366636
H	 0.748705	 0.673477	 -1.312803
H	 1.176496	 1.708671	 0.046552
C	 2.714315	 -0.441627	 -0.061017
H	 2.765292	 -0.641548	 -1.128869
H	 3.305661	 0.447341	 0.150952
H	 3.143725	 -1.278506	 0.470147

	symmetry c1
}
set optking {
	frozen_dihedral = ("
		2 3 6 7
	")
}

ee = optimize('scf')
oeprop('DIPOLE', 'QUADRUPOLE', 'MULLIKEN_CHARGES')
f=open( 'psi4out.xyz', 'w' )
f.write( "16  " )
f.write( str(ee) + "\n" )
f.write( MOL.save_string_xyz() )
f.close()
--------------------------------------------------------------------------

    Molecular point group: c1
  Charge       = 0
  Multiplicity = 1
  Basis Set: CC-PVTZ
  Basis Set:
  @DF-RHF Final Energy:  -307.07584067328429
    Total Energy =                       -307.0758406732844037
    Molecular point group: c1
  Basis Set: CC-PVTZ
  Basis Set:
  Basis Set: CC-PVTZ
  Basis Set:
  @DF-RHF Final Energy:  -307.08596679599236
    Total Energy =                       -307.0859667959925332
  Basis Set: CC-PVTZ
  Basis Set:
  Basis Set: CC-PVTZ
  Basis Set:
  @DF-RHF Final Energy:  -307.08944000444944
    Total Energy =                       -307.0894400044493864
  Basis Set: CC-PVTZ
  Basis Set:
  Basis Set: CC-PVTZ
  Basis Set:
  @DF-RHF Final Energy:  -307.09050272330143
    Total Energy =                       -307.0905027233013698
  Basis Set: CC-PVTZ
  Basis Set:
  @DF-RHF Final Energy:  -307.09094324906795
    Total Energy =                       -307.0909432490681183
  @DF-RHF Final Energy:  -307.09102225714173
    Total Energy =                       -307.0910222571418444
  Basis Set: CC-PVTZ
  Basis Set:
  @DF-RHF Final Energy:  -307.09107432909229
    Total Energy =                       -307.0910743290922937
  Basis Set: CC-PVTZ
  Basis Set:
  Basis Set: CC-PVTZ
  Basis Set:
  @DF-RHF Final Energy:  -307.09111279624227
    Total Energy =                       -307.0911127962415321
  Basis Set: CC-PVTZ
  Basis Set:
  Basis Set: CC-PVTZ
  Basis Set:
  @DF-RHF Final Energy:  -307.09115607696606
    Total Energy =                       -307.0911560769661151
  Basis Set: CC-PVTZ
  Basis Set:
  Charge       = 0
  Multiplicity = 1
  Basis Set: CC-PVTZ
  Basis Set:

    Orbital Energies (a.u.)
    -----------------------

    Doubly Occupied:

       1A    -20.557602     2A    -20.541199     3A    -11.274132
       4A    -11.269771     5A    -11.266880     6A    -11.253556
       7A     -1.395125     8A     -1.367887     9A     -1.030480
      10A     -0.951447    11A     -0.895834    12A     -0.814117
      13A     -0.695829    14A     -0.683142    15A     -0.657812
      16A     -0.636256    17A     -0.627862    18A     -0.594796
      19A     -0.554073    20A     -0.545898    21A     -0.518394
      22A     -0.493026    23A     -0.451411    24A     -0.426009
      25A     -0.407401

  @DF-RHF Final Energy:  -307.09115695434679

   => Energetics <=

    Nuclear Repulsion Energy =            264.9450400503520200
    One-Electron Energy =                -944.2525148731435820
    Two-Electron Energy =                 372.2163178684450600
    DFT Exchange-Correlation Energy =       0.0000000000000000
    Empirical Dispersion Energy =           0.0000000000000000
    PCM Polarization Energy =               0.0000000000000000
    EFP Energy =                            0.0000000000000000
    Total Energy =                       -307.0911569543465589
    Molecular point group: c1
  Basis Set: CC-PVTZ
  Basis Set:

  -Total Gradient:
     Atom            X                  Y                   Z
    ------   -----------------  -----------------  -----------------
       1       -0.000013372393    -0.000022896893    -0.000003054681
       2        0.000635391243     0.001421129931    -0.003714122871
       3       -0.000513152662    -0.003268018430     0.006944085637
       4       -0.000001230488     0.000005015220    -0.000000772786
       5       -0.000006991369    -0.000010425829    -0.000004546532
       6       -0.001063689075     0.004022288142    -0.005965664847
       7        0.000952131937    -0.002214128783     0.002742866835
       8       -0.000001366860     0.000011757152    -0.000001661213
       9       -0.000002395097    -0.000000762793    -0.000005375182
      10       -0.000033532853     0.000046954084     0.000030885803
      11       -0.000007033561     0.000014228382     0.000002689946
      12       -0.000006504660     0.000010846309    -0.000001109788
      13        0.000124458639    -0.000021009864    -0.000047797325
      14       -0.000024746069     0.000003681454     0.000012041044
      15       -0.000023579559    -0.000003720159     0.000004885315
      16       -0.000014387171     0.000005062077     0.000006650646

  **** Optimization is complete! (in 10 steps) ****
    Final optimized geometry and variables:
    Molecular point group: c1

    Geometry (in Angstrom), charge = 0, multiplicity = 1:

    H           -0.573180616345    -1.260114446486    -1.377894831794
    C           -1.304303001676    -1.358981666354    -0.583390243900
    O           -1.846846979874    -0.131646589223    -0.205673054132
    H           -2.127190809145    -1.955965820068    -0.950028147955
    H           -0.837363026528    -1.872284094611     0.249472402600
    C           -1.027221703502     0.867122581871     0.326659690774
    C            0.418295610103     0.911697385741    -0.126816515493
    H           -1.492455122657     1.808041859578     0.061060635622
    H           -1.023483917277     0.792604081352     1.411728018402
    O            1.160645690945    -0.091494111265     0.489408377214
    H            0.487371441548     0.831110059004    -1.210417169392
    H            0.814215870779     1.888341298495     0.149221835461
    C            2.504127232294    -0.110495102122     0.133907064180
    H            2.632038152137    -0.284655527044    -0.932119231437
    H            2.996010278805     0.825074282811     0.390772611678
    H            2.978827278633    -0.914043323630     0.677539163309

  Mulliken Charges: (a.u.)
   Center  Symbol    Alpha    Beta     Spin     Total
       1     H     0.47383  0.47383  0.00000  0.05234
       2     C     3.02917  3.02917  0.00000 -0.05833
       3     O     4.18175  4.18175  0.00000 -0.36349
       4     H     0.44660  0.44660  0.00000  0.10681
       5     H     0.46455  0.46455  0.00000  0.07090
       6     C     2.96301  2.96301  0.00000  0.07398
       7     C     3.00125  3.00125  0.00000 -0.00249
       8     H     0.45854  0.45854  0.00000  0.08293
       9     H     0.46731  0.46731  0.00000  0.06538
      10     O     4.17550  4.17550  0.00000 -0.35100
      11     H     0.46276  0.46276  0.00000  0.07449
      12     H     0.45807  0.45807  0.00000  0.08386
      13     C     3.03418  3.03418  0.00000 -0.06837
      14     H     0.47009  0.47009  0.00000  0.05982
      15     H     0.46818  0.46818  0.00000  0.06363
      16     H     0.44523  0.44523  0.00000  0.10954

   Total alpha = 25.00000, Total beta = 25.00000, Total charge =  0.00000
