  ==> Input File <==

--------------------------------------------------------------------------
set {
	reference rhf
	basis cc-pvtz
}

set_num_threads( 4 )
memory 2 gb

molecule MOL {
0 1

H	 -2.698799	 -0.000846	 0.036018
C	 -1.694291	 -0.000483	 0.434279
O	 -0.828718	 -0.000608	 -0.655022
H	 -1.576855	 0.881100	 1.056504
H	 -1.576401	 -0.881658	 1.057001
C	 -0.888919	 1.065832	 -1.569877
C	 -2.223610	 1.133392	 -2.303570
C	 -0.506525	 2.400340	 -0.939709
H	 -0.125922	 0.812801	 -2.295432
H	 -2.482381	 0.161557	 -2.705605
H	 -2.155244	 1.834999	 -3.126868
H	 -3.029472	 1.464420	 -1.658906
H	 0.425528	 2.307159	 -0.395982
H	 -0.375841	 3.148056	 -1.713412
H	 -1.266768	 2.764918	 -0.258787

	symmetry c1
}
set optking {
	frozen_dihedral = ("
		6 3 2 1
	")
}

ee = optimize('scf')
oeprop('DIPOLE', 'QUADRUPOLE', 'MULLIKEN_CHARGES')
f=open( 'psi4out.xyz', 'w' )
f.write( "15  " )
f.write( str(ee) + "\n" )
f.write( MOL.save_string_xyz() )
f.close()
--------------------------------------------------------------------------

    Molecular point group: c1
  Charge       = 0
  Multiplicity = 1
  Basis Set: CC-PVTZ
  Basis Set:
  @DF-RHF Final Energy:  -232.22383703174208
    Total Energy =                       -232.2238370317418799
    Molecular point group: c1
  Basis Set: CC-PVTZ
  Basis Set:
  Basis Set: CC-PVTZ
  Basis Set:
  @DF-RHF Final Energy:  -232.22573931556093
    Total Energy =                       -232.2257393155608156
  Basis Set: CC-PVTZ
  Basis Set:
  Basis Set: CC-PVTZ
  Basis Set:
  @DF-RHF Final Energy:  -232.22617101716114
    Total Energy =                       -232.2261710171611071
  Basis Set: CC-PVTZ
  Basis Set:
  Basis Set: CC-PVTZ
  Basis Set:
  @DF-RHF Final Energy:  -232.22617322126928
    Total Energy =                       -232.2261732212692777
  Basis Set: CC-PVTZ
  Basis Set:
  Basis Set: CC-PVTZ
  Basis Set:
  @DF-RHF Final Energy:  -232.22617787525911
    Total Energy =                       -232.2261778752591113
  Basis Set: CC-PVTZ
  Basis Set:
  Charge       = 0
  Multiplicity = 1
  Basis Set: CC-PVTZ
  Basis Set:

    Orbital Energies (a.u.)
    -----------------------

    Doubly Occupied:

       1A    -20.541897     2A    -11.272634     3A    -11.258503
       4A    -11.208781     5A    -11.208577     6A     -1.373605
       7A     -1.051634     8A     -0.940190     9A     -0.931675
      10A     -0.781490    11A     -0.675601    12A     -0.642363
      13A     -0.635230    14A     -0.574059    15A     -0.565760
      16A     -0.552830    17A     -0.533747    18A     -0.497845
      19A     -0.497434    20A     -0.444814    21A     -0.409649

  @DF-RHF Final Energy:  -232.22617804312867

   => Energetics <=

    Nuclear Repulsion Energy =            199.0256309042255509
    One-Electron Energy =                -709.3069815761029986
    Two-Electron Energy =                 278.0551726287486645
    DFT Exchange-Correlation Energy =       0.0000000000000000
    Empirical Dispersion Energy =           0.0000000000000000
    PCM Polarization Energy =               0.0000000000000000
    EFP Energy =                            0.0000000000000000
    Total Energy =                       -232.2261780431288116
    Molecular point group: c1
  Basis Set: CC-PVTZ
  Basis Set:

  -Total Gradient:
     Atom            X                  Y                   Z
    ------   -----------------  -----------------  -----------------
       1        0.000015073825     0.000076478529    -0.000004773702
       2       -0.000015725512    -0.000132800944     0.000016591940
       3        0.000047919398     0.000097223448     0.000055122358
       4       -0.000004098121    -0.000008165246    -0.000008304304
       5       -0.000003400907     0.000003764688     0.000002677524
       6       -0.000036037705    -0.000038112948    -0.000068946281
       7        0.000005986164     0.000008662414     0.000009507769
       8       -0.000005431272    -0.000003828815     0.000006008236
       9       -0.000000643357     0.000006049737    -0.000012053672
      10       -0.000005959537    -0.000002219359     0.000005385491
      11        0.000005454848    -0.000005686869     0.000001852886
      12        0.000002648116     0.000004554829    -0.000009408046
      13       -0.000005569779    -0.000005540276     0.000005267883
      14        0.000000928841    -0.000005346918     0.000003528228
      15       -0.000001145003     0.000004967732    -0.000002456311

  **** Optimization is complete! (in 6 steps) ****
    Final optimized geometry and variables:
    Molecular point group: c1

    Geometry (in Angstrom), charge = 0, multiplicity = 1:

    H           -1.506427903681    -0.891304673016     1.124659229416
    C           -0.463382496185    -0.903088311409     1.424789430131
    O            0.402877272878    -0.916743475727     0.336214113734
    H           -0.284393984876    -0.060249448717     2.085007572017
    H           -0.282431919537    -1.811755668562     1.980928092584
    C            0.356915812880     0.147710010221    -0.581665341109
    C           -0.968334385151     0.216204801256    -1.332410161068
    C            0.734139537751     1.483326906959     0.049329626604
    H            1.128179628069    -0.108780010792    -1.297198253623
    H           -1.224334113386    -0.756483007722    -1.734187952577
    H           -0.887829696898     0.914784247430    -2.157268214301
    H           -1.781547402372     0.551491396090    -0.699303000020
    H            1.659019411731     1.390114557448     0.605298147676
    H            0.876179631613     2.228476390704    -0.724850431718
    H           -0.034169846839     1.851217572671     0.719438865188

  Mulliken Charges: (a.u.)
   Center  Symbol    Alpha    Beta     Spin     Total
       1     H     0.47060  0.47060  0.00000  0.05881
       2     C     3.03888  3.03888  0.00000 -0.07775
       3     O     4.18302  4.18302  0.00000 -0.36604
       4     H     0.47018  0.47018  0.00000  0.05964
       5     H     0.44078  0.44078  0.00000  0.11844
       6     C     2.93322  2.93322  0.00000  0.13356
       7     C     3.15816  3.15816  0.00000 -0.31631
       8     C     3.15914  3.15914  0.00000 -0.31828
       9     H     0.44701  0.44701  0.00000  0.10598
      10     H     0.44391  0.44391  0.00000  0.11218
      11     H     0.44985  0.44985  0.00000  0.10031
      12     H     0.45606  0.45606  0.00000  0.08788
      13     H     0.44383  0.44383  0.00000  0.11235
      14     H     0.44947  0.44947  0.00000  0.10106
      15     H     0.45591  0.45591  0.00000  0.08819

   Total alpha = 21.00000, Total beta = 21.00000, Total charge = -0.00000
