  ==> Input File <==

--------------------------------------------------------------------------
set {
	reference rhf
	basis cc-pvtz
}

set_num_threads( 4 )
memory 2 gb

molecule MOL {
0 1

H	 -0.518474	 2.676579	 -1.462816
C	 0.241231	 2.298399	 -0.765200
C	 0.062554	 0.862911	 -0.350953
O	 1.117067	 3.005263	 -0.404079
C	 -1.339253	 0.577611	 0.196911
H	 0.829515	 0.614579	 0.371263
H	 0.229315	 0.258108	 -1.239478
C	 -1.813142	 -0.849710	 -0.061612
H	 -2.032833	 1.276441	 -0.256032
H	 -1.357249	 0.782269	 1.263793
H	 -1.839268	 -1.063526	 -1.124230
H	 -2.810118	 -1.001930	 0.334000
H	 -1.159274	 -1.579980	 0.402282

	symmetry c1
}
set optking {
	frozen_dihedral = ("
		6 3 5 9
	")
}

ee = optimize('scf')
oeprop('DIPOLE', 'QUADRUPOLE', 'MULLIKEN_CHARGES')
f=open( 'psi4out.xyz', 'w' )
f.write( "13  " )
f.write( str(ee) + "\n" )
f.write( MOL.save_string_xyz() )
f.close()
--------------------------------------------------------------------------

    Molecular point group: c1
  Charge       = 0
  Multiplicity = 1
  Basis Set: CC-PVTZ
  Basis Set:
  @DF-RHF Final Energy:  -231.06894305635433
    Total Energy =                       -231.0689430563544988
    Molecular point group: c1
  Basis Set: CC-PVTZ
  Basis Set:
  Basis Set: CC-PVTZ
  Basis Set:
  @DF-RHF Final Energy:  -231.06922676811274
    Total Energy =                       -231.0692267681127134
  Basis Set: CC-PVTZ
  Basis Set:
  Basis Set: CC-PVTZ
  Basis Set:
  @DF-RHF Final Energy:  -231.06901345084572
    Total Energy =                       -231.0690134508456310
  Basis Set: CC-PVTZ
  Basis Set:
  Basis Set: CC-PVTZ
  Basis Set:
  @DF-RHF Final Energy:  -231.06927732642521
    Total Energy =                       -231.0692773264252651
  Basis Set: CC-PVTZ
  Basis Set:
  Basis Set: CC-PVTZ
  Basis Set:
  @DF-RHF Final Energy:  -231.06928649839156
    Total Energy =                       -231.0692864983912500
  Basis Set: CC-PVTZ
  Basis Set:
  Basis Set: CC-PVTZ
  Basis Set:
  @DF-RHF Final Energy:  -231.06929279709706
    Total Energy =                       -231.0692927970969777
  Basis Set: CC-PVTZ
  Basis Set:
  Charge       = 0
  Multiplicity = 1
  Basis Set: CC-PVTZ
  Basis Set:

    Orbital Energies (a.u.)
    -----------------------

    Doubly Occupied:

       1A    -20.552693     2A    -11.321763     3A    -11.237426
       4A    -11.234753     5A    -11.222656     6A     -1.407661
       7A     -1.087399     8A     -0.977924     9A     -0.841949
      10A     -0.794326    11A     -0.680262    12A     -0.646197
      13A     -0.625676    14A     -0.591369    15A     -0.566794
      16A     -0.530631    17A     -0.517382    18A     -0.490347
      19A     -0.485848    20A     -0.413102

  @DF-RHF Final Energy:  -231.06929337643109

   => Energetics <=

    Nuclear Repulsion Energy =            170.7965192937616905
    One-Electron Energy =                -651.2793094789581119
    Two-Electron Energy =                 249.4134968087652737
    DFT Exchange-Correlation Energy =       0.0000000000000000
    Empirical Dispersion Energy =           0.0000000000000000
    PCM Polarization Energy =               0.0000000000000000
    EFP Energy =                            0.0000000000000000
    Total Energy =                       -231.0692933764311761
    Molecular point group: c1
  Basis Set: CC-PVTZ
  Basis Set:

  -Total Gradient:
     Atom            X                  Y                   Z
    ------   -----------------  -----------------  -----------------
       1        0.000006717543     0.000003674325     0.000008924410
       2       -0.000026265988     0.000037783182    -0.000046535320
       3        0.000289570718    -0.003979920647    -0.001035189237
       4        0.000003683735    -0.000025879196     0.000016253337
       5       -0.000801224726    -0.002115537417    -0.003139271964
       6       -0.000123146414     0.003599144079     0.001395847198
       7       -0.000007833170     0.000006127275     0.000001899751
       8        0.000017473446     0.000010039777    -0.000017533978
       9        0.000643825584     0.002465870513     0.002818387379
      10       -0.000004224560     0.000021529725     0.000009826442
      11       -0.000013668433    -0.000018372532    -0.000011734251
      12        0.000014473503     0.000000087201    -0.000000814689
      13        0.000000618761    -0.000004546284    -0.000000059075

  **** Optimization is complete! (in 7 steps) ****
    Final optimized geometry and variables:
    Molecular point group: c1

    Geometry (in Angstrom), charge = 0, multiplicity = 1:

    H           -0.095078755558     1.513645308951    -1.238415729676
    C            0.607291469362     1.124610253008    -0.489234446754
    C            0.418581286488    -0.325522427115    -0.131199392965
    O            1.430268342061     1.834247356072    -0.024378253533
    C           -0.990801151845    -0.593030643290     0.418903455876
    H            1.180747394513    -0.578169027868     0.593280781041
    H            0.582857929764    -0.904964543733    -1.036190808418
    C           -1.458272469716    -2.028190585927     0.212767335955
    H           -1.698771676715     0.101149784793    -0.025286194963
    H           -0.992943246179    -0.359751603387     1.478327279083
    H           -1.528164273749    -2.268956032002    -0.842396395499
    H           -2.433823355576    -2.187298514599     0.656170036879
    H           -0.768411634666    -2.730661721306     0.667615142253

  Mulliken Charges: (a.u.)
   Center  Symbol    Alpha    Beta     Spin     Total
       1     H     0.46630  0.46630  0.00000  0.06741
       2     C     2.90464  2.90464  0.00000  0.19073
       3     C     3.07995  3.07995  0.00000 -0.15990
       4     O     4.16391  4.16391  0.00000 -0.32783
       5     C     3.09531  3.09531  0.00000 -0.19062
       6     H     0.44181  0.44181  0.00000  0.11639
       7     H     0.45129  0.45129  0.00000  0.09743
       8     C     3.14687  3.14687  0.00000 -0.29374
       9     H     0.45290  0.45290  0.00000  0.09420
      10     H     0.44495  0.44495  0.00000  0.11010
      11     H     0.45460  0.45460  0.00000  0.09079
      12     H     0.44626  0.44626  0.00000  0.10749
      13     H     0.45123  0.45123  0.00000  0.09755

   Total alpha = 20.00000, Total beta = 20.00000, Total charge = -0.00000
