  ==> Input File <==

--------------------------------------------------------------------------
set {
	reference rhf
	basis 6-31G*
}

set_num_threads( 1 )
memory 2 gb

molecule MOL {
0 1

H	 3.116701	 0.420863	 2.139340
O	 3.835054	 0.222761	 1.556420
C	 3.750502	 -1.116024	 1.138617
C	 2.625440	 -1.364158	 0.139921
H	 4.703987	 -1.341517	 0.678516
H	 3.641845	 -1.777145	 1.997623
C	 1.224847	 -1.119470	 0.706785
H	 2.785526	 -0.726202	 -0.725383
H	 2.700585	 -2.393554	 -0.206582
C	 0.115918	 -1.429151	 -0.302766
H	 1.145119	 -0.084407	 1.027183
H	 1.081163	 -1.734795	 1.595081
C	 -1.309753	 -1.282496	 0.241564
H	 0.236038	 -0.788196	 -1.174313
H	 0.245745	 -2.449523	 -0.657290
C	 -2.037799	 -0.007733	 -0.193645
H	 -1.890610	 -2.142323	 -0.085726
H	 -1.285946	 -1.330893	 1.329189
C	 -3.489788	 0.042957	 0.286558
H	 -2.017067	 0.064384	 -1.280144
H	 -1.513726	 0.868678	 0.179924
C	 -4.216917	 1.317354	 -0.141063
H	 -4.025645	 -0.823308	 -0.095450
H	 -3.513059	 -0.038752	 1.371301
H	 -4.239342	 1.411634	 -1.223113
H	 -5.243387	 1.322503	 0.212445
H	 -3.726170	 2.201406	 0.256408

	symmetry c1
}
set optking {
	frozen_dihedral = ("
		14 10 7 4,
		10 7 4 8,
		8 4 3 2,
		10 13 16 20,
		20 16 19 22,
		4 3 2 1
	")
}

ee = energy('scf')
oeprop('DIPOLE', 'QUADRUPOLE', 'MULLIKEN_CHARGES')
f=open( 'psi4out.xyz', 'w' )
f.write( "27  " )
f.write( str(ee) + "\n" )
f.write( MOL.save_string_xyz() )
f.close()
--------------------------------------------------------------------------

    Molecular point group: c1

    Geometry (in Angstrom), charge = 0, multiplicity = 1:

       Center              X                  Y                   Z               Mass
    ------------   -----------------  -----------------  -----------------  -----------------
           H          3.013489582527     0.923075827507     1.733707898410     1.007825032070
           O          3.731842582527     0.724973827507     1.150787898410    15.994914619560
           C          3.647290582527    -0.613811172493     0.732984898410    12.000000000000
           C          2.522228582527    -0.861945172493    -0.265711101590    12.000000000000
           H          4.600775582527    -0.839304172493     0.272883898410     1.007825032070
           H          3.538633582527    -1.274932172493     1.591990898410     1.007825032070
           C          1.121635582527    -0.617257172493     0.301152898410    12.000000000000
           H          2.682314582527    -0.223989172493    -1.131015101590     1.007825032070
           H          2.597373582527    -1.891341172493    -0.612214101590     1.007825032070
           C          0.012706582527    -0.926938172493    -0.708398101590    12.000000000000
           H          1.041907582527     0.417805827507     0.621550898410     1.007825032070
           H          0.977951582527    -1.232582172493     1.189448898410     1.007825032070
           C         -1.412964417473    -0.780283172493    -0.164068101590    12.000000000000
           H          0.132826582527    -0.285983172493    -1.579945101590     1.007825032070
           H          0.142533582527    -1.947310172493    -1.062922101590     1.007825032070
           C         -2.141010417473     0.494479827507    -0.599277101590    12.000000000000
           H         -1.993821417473    -1.640110172493    -0.491358101590     1.007825032070
           H         -1.389157417473    -0.828680172493     0.923556898410     1.007825032070
           C         -3.592999417473     0.545169827507    -0.119074101590    12.000000000000
           H         -2.120278417473     0.566596827507    -1.685776101590     1.007825032070
           H         -1.616937417473     1.370890827507    -0.225708101590     1.007825032070
           C         -4.320128417473     1.819566827507    -0.546695101590    12.000000000000
           H         -4.128856417473    -0.321095172493    -0.501082101590     1.007825032070
           H         -3.616270417473     0.463460827507     0.965668898410     1.007825032070
           H         -4.342553417473     1.913846827507    -1.628745101590     1.007825032070
           H         -5.346598417473     1.824715827507    -0.193187101590     1.007825032070
           H         -3.829381417473     2.703618827507    -0.149224101590     1.007825032070

  Charge       = 0
  Multiplicity = 1
  Basis Set: 6-31G*
  Basis Set:

    Orbital Energies (a.u.)
    -----------------------

    Doubly Occupied:

       1A    -20.552265     2A    -11.267061     3A    -11.220542
       4A    -11.216054     5A    -11.215563     6A    -11.215043
       7A    -11.214657     8A    -11.214091     9A    -11.209001
      10A     -1.359033    11A     -1.094269    12A     -1.062159
      13A     -1.011360    14A     -0.949557    15A     -0.885243
      16A     -0.819686    17A     -0.795750    18A     -0.786286
      19A     -0.693963    20A     -0.645615    21A     -0.644266
      22A     -0.613593    23A     -0.599266    24A     -0.584398
      25A     -0.579192    26A     -0.550993    27A     -0.544435
      28A     -0.526149    29A     -0.506532    30A     -0.490142
      31A     -0.484632    32A     -0.475247    33A     -0.470973
      34A     -0.462799    35A     -0.450625    36A     -0.441728
      37A     -0.421504

  @DF-RHF Final Energy:  -388.27834004751639

   => Energetics <=

    Nuclear Repulsion Energy =            455.0797835998490655
    One-Electron Energy =               -1428.1689954953149027
    Two-Electron Energy =                 584.8108718479498975
    DFT Exchange-Correlation Energy =       0.0000000000000000
    Empirical Dispersion Energy =           0.0000000000000000
    PCM Polarization Energy =               0.0000000000000000
    EFP Energy =                            0.0000000000000000
    Total Energy =                       -388.2783400475159397

  Mulliken Charges: (a.u.)
   Center  Symbol    Alpha    Beta     Spin     Total
       1     H     0.27998  0.27998  0.00000  0.44004
       2     O     4.37095  4.37095  0.00000 -0.74191
       3     C     2.99736  2.99736  0.00000  0.00529
       4     C     3.16186  3.16186  0.00000 -0.32372
       5     H     0.41443  0.41443  0.00000  0.17114
       6     H     0.43205  0.43205  0.00000  0.13589
       7     C     3.16259  3.16259  0.00000 -0.32519
       8     H     0.41486  0.41486  0.00000  0.17028
       9     H     0.42414  0.42414  0.00000  0.15171
      10     C     3.15366  3.15366  0.00000 -0.30732
      11     H     0.42461  0.42461  0.00000  0.15079
      12     H     0.42461  0.42461  0.00000  0.15078
      13     C     3.15542  3.15542  0.00000 -0.31084
      14     H     0.41936  0.41936  0.00000  0.16128
      15     H     0.42108  0.42108  0.00000  0.15784
      16     C     3.15181  3.15181  0.00000 -0.30362
      17     H     0.42107  0.42107  0.00000  0.15787
      18     H     0.42268  0.42268  0.00000  0.15464
      19     C     3.15203  3.15203  0.00000 -0.30406
      20     H     0.42321  0.42321  0.00000  0.15358
      21     H     0.42381  0.42381  0.00000  0.15238
      22     C     3.23925  3.23925  0.00000 -0.47850
      23     H     0.42294  0.42294  0.00000  0.15412
      24     H     0.42340  0.42340  0.00000  0.15319
      25     H     0.42161  0.42161  0.00000  0.15678
      26     H     0.41934  0.41934  0.00000  0.16132
      27     H     0.42188  0.42188  0.00000  0.15625

   Total alpha = 37.00000, Total beta = 37.00000, Total charge = -0.00000
