  ==> Input File <==

--------------------------------------------------------------------------
set {
	reference rhf
	basis 6-31G*
}

set_num_threads( 4 )
memory 2 gb

molecule MOL {
0 1

O	 -2.821601	 1.309235	 -0.001213
C	 -2.668563	 0.129746	 -0.000350
C	 -3.801572	 -0.864014	 -0.000442
O	 -1.481751	 -0.454642	 0.000584
H	 -4.417280	 -0.689587	 -0.874708
H	 -3.443784	 -1.883046	 -0.000565
H	 -4.417179	 -0.689832	 0.873954
C	 -0.334255	 0.388708	 0.000906
C	 0.891947	 -0.504646	 0.000751
H	 -0.365390	 1.025305	 -0.873475
H	 -0.365484	 1.024911	 0.875569
C	 2.191998	 0.301789	 0.000897
H	 0.855148	 -1.151283	 -0.871571
H	 0.855132	 -1.151660	 0.872805
C	 2.157025	 1.488843	 -0.963471
H	 2.395200	 0.664170	 1.007115
H	 3.023835	 -0.349042	 -0.262826
C	 3.455051	 2.295064	 -0.962297
H	 1.326556	 2.140441	 -0.701146
H	 1.956359	 1.128293	 -1.969854
H	 3.665735	 2.697861	 0.024304
H	 3.399600	 3.129020	 -1.654885
H	 4.300197	 1.678219	 -1.254258

	symmetry c1
}
set optking {
	frozen_dihedral = ("
		16 12 9 13
	")
}

ee = optimize('scf')
oeprop('DIPOLE', 'QUADRUPOLE', 'MULLIKEN_CHARGES')
f=open( 'psi4out.xyz', 'w' )
f.write( "23  " )
f.write( str(ee) + "\n" )
f.write( MOL.save_string_xyz() )
f.close()
--------------------------------------------------------------------------

    Molecular point group: c1
  Charge       = 0
  Multiplicity = 1
  Basis Set: 6-31G*
  Basis Set:
  @DF-RHF Final Energy:  -422.97416874957923
    Total Energy =                       -422.9741687495795759
    Molecular point group: c1
  Basis Set: 6-31G*
  Basis Set:
  Basis Set: 6-31G*
  Basis Set:
  @DF-RHF Final Energy:  -422.97542896961153
    Total Energy =                       -422.9754289696111300
  Basis Set: 6-31G*
  Basis Set:
  Basis Set: 6-31G*
  Basis Set:
  @DF-RHF Final Energy:  -422.97652893246675
    Total Energy =                       -422.9765289324667492
  Basis Set: 6-31G*
  Basis Set:
  Basis Set: 6-31G*
  Basis Set:
  @DF-RHF Final Energy:  -422.97662859791001
    Total Energy =                       -422.9766285979103486
  Basis Set: 6-31G*
  Basis Set:
  @DF-RHF Final Energy:  -422.97640773072868
    Total Energy =                       -422.9764077307293064
  @DF-RHF Final Energy:  -422.97662777575306
    Total Energy =                       -422.9766277757536272
  Basis Set: 6-31G*
  Basis Set:
  @DF-RHF Final Energy:  -422.97664645082511
    Total Energy =                       -422.9766464508259105
  Basis Set: 6-31G*
  Basis Set:
  Basis Set: 6-31G*
  Basis Set:
  @DF-RHF Final Energy:  -422.97664541062727
    Total Energy =                       -422.9766454106274978
  Basis Set: 6-31G*
  Basis Set:
  Basis Set: 6-31G*
  Basis Set:
  @DF-RHF Final Energy:  -422.97664742686339
    Total Energy =                       -422.9766474268633374
  Basis Set: 6-31G*
  Basis Set:
  Charge       = 0
  Multiplicity = 1
  Basis Set: 6-31G*
  Basis Set:

    Orbital Energies (a.u.)
    -----------------------

    Doubly Occupied:

       1A    -20.602870     2A    -20.540463     3A    -11.373998
       4A    -11.281100     5A    -11.232312     6A    -11.224341
       7A    -11.223697     8A    -11.222137     9A    -11.213153
      10A     -1.467825    11A     -1.360633    12A     -1.093561
      13A     -1.040307    14A     -1.002469    15A     -0.931865
      16A     -0.852001    17A     -0.789438    18A     -0.779647
      19A     -0.689721    20A     -0.684515    21A     -0.669191
      22A     -0.639091    23A     -0.609154    24A     -0.588006
      25A     -0.578596    26A     -0.572528    27A     -0.563599
      28A     -0.529074    29A     -0.526127    30A     -0.511653
      31A     -0.495963    32A     -0.475101    33A     -0.466008
      34A     -0.461936    35A     -0.449945    36A     -0.435686

  @DF-RHF Final Energy:  -422.97664743168855

   => Energetics <=

    Nuclear Repulsion Energy =            456.4637679590219932
    One-Electron Energy =               -1480.5254099140954622
    Two-Electron Energy =                 601.0849945233849212
    DFT Exchange-Correlation Energy =       0.0000000000000000
    Empirical Dispersion Energy =           0.0000000000000000
    PCM Polarization Energy =               0.0000000000000000
    EFP Energy =                            0.0000000000000000
    Total Energy =                       -422.9766474316884342
    Molecular point group: c1
  Basis Set: 6-31G*
  Basis Set:

  -Total Gradient:
     Atom            X                  Y                   Z
    ------   -----------------  -----------------  -----------------
       1       -0.000000341424    -0.000000223129     0.000000869481
       2        0.000001767091     0.000002164047    -0.000004319281
       3        0.000001054469     0.000000202500     0.000012316262
       4        0.000002558143    -0.000003820809    -0.000013245720
       5        0.000002088006    -0.000001874291    -0.000003649443
       6        0.000000034510    -0.000000070063    -0.000000836336
       7       -0.000001907413     0.000001978150    -0.000003569670
       8        0.000000427462     0.000006394412     0.000035422878
       9       -0.001552762332     0.002767472751    -0.002312213309
      10       -0.000003676826     0.000000046088    -0.000005945741
      11        0.000002381662     0.000001144304    -0.000004758370
      12       -0.001975762551     0.003257405162    -0.000447207467
      13        0.001616024054    -0.002836578165     0.001993571922
      14       -0.000001103260     0.000002671822    -0.000000920173
      15       -0.000000273193    -0.000001351037    -0.000004252784
      16        0.001914875341    -0.003192604201     0.000758113961
      17       -0.000002817069    -0.000001045365    -0.000000168486
      18       -0.000000717768    -0.000001064630     0.000001604526
      19       -0.000002413718    -0.000000291898     0.000000421005
      20        0.000001485708     0.000000157196    -0.000001644705
      21        0.000000159004    -0.000000147573     0.000000381199
      22       -0.000001459058    -0.000000474698     0.000000584127
      23        0.000000379166    -0.000000090573    -0.000000553875

  **** Optimization is complete! (in 10 steps) ****
    Final optimized geometry and variables:
    Molecular point group: c1

    Geometry (in Angstrom), charge = 0, multiplicity = 1:

    O           -2.645562937713     0.777534356565     0.219615921275
    C           -2.435999346879    -0.393074836516     0.242641356361
    C           -3.519475758589    -1.438706106379     0.306101839413
    O           -1.223330826942    -0.920861773437     0.216056700698
    H           -4.173698337354    -1.314142651217    -0.548484987722
    H           -3.113584383666    -2.439511316559     0.315260119308
    H           -4.111042183505    -1.272992704029     1.198563348966
    C           -0.118230393199    -0.023907517881     0.153705111148
    C            1.142015438138    -0.868608986802     0.120826507469
    H           -0.224164199780     0.595039144293    -0.725256631953
    H           -0.141000148399     0.623199832173     1.021430453188
    C            2.447063443627    -0.064767908760     0.208197406395
    H            1.145224318997    -1.492797694786    -0.768519003111
    H            1.103776604610    -1.557514994179     0.959991761662
    C            2.566009909171     1.117331544022    -0.757136657518
    H            2.599552136701     0.269745469506     1.232554011898
    H            3.265833166290    -0.753715474083     0.012343561954
    C            3.947514297066     1.769405979335    -0.712364268578
    H            1.814528714705     1.867739669390    -0.526595720072
    H            2.359830949323     0.777518694762    -1.770285816940
    H            4.173649082148     2.138595405974     0.283952905712
    H            4.007402402218     2.609094212068    -1.397439812774
    H            4.724450129451     1.061486762729    -0.986422107989

  Mulliken Charges: (a.u.)
   Center  Symbol    Alpha    Beta     Spin     Total
       1     O     4.28406  4.28406  0.00000 -0.56812
       2     C     2.61537  2.61537  0.00000  0.76927
       3     C     3.28778  3.28778  0.00000 -0.57557
       4     O     4.31292  4.31292  0.00000 -0.62585
       5     H     0.39753  0.39753  0.00000  0.20494
       6     H     0.39986  0.39986  0.00000  0.20027
       7     H     0.39753  0.39753  0.00000  0.20495
       8     C     2.99836  2.99836  0.00000  0.00328
       9     C     3.16592  3.16592  0.00000 -0.33184
      10     H     0.40805  0.40805  0.00000  0.18390
      11     H     0.41135  0.41135  0.00000  0.17730
      12     C     3.15955  3.15955  0.00000 -0.31910
      13     H     0.41467  0.41467  0.00000  0.17067
      14     H     0.41227  0.41227  0.00000  0.17546
      15     C     3.15831  3.15831  0.00000 -0.31662
      16     H     0.42014  0.42014  0.00000  0.15972
      17     H     0.41822  0.41822  0.00000  0.16356
      18     C     3.23944  3.23944  0.00000 -0.47889
      19     H     0.41865  0.41865  0.00000  0.16270
      20     H     0.42112  0.42112  0.00000  0.15776
      21     H     0.42055  0.42055  0.00000  0.15889
      22     H     0.41733  0.41733  0.00000  0.16533
      23     H     0.42101  0.42101  0.00000  0.15798

   Total alpha = 36.00000, Total beta = 36.00000, Total charge =  0.00000
