  ==> Input File <==

--------------------------------------------------------------------------
set {
	reference rhf
	basis 6-31G*
}

set_num_threads( 4 )
memory 2 gb

molecule MOL {
0 1

H	 2.172787	 3.846935	 3.054212
C	 2.009466	 3.019743	 3.756138
C	 0.698773	 2.293437	 3.591292
O	 2.834332	 2.754764	 4.569239
C	 0.460720	 1.828976	 2.147733
H	 0.678793	 1.461765	 4.286008
H	 -0.089942	 2.987655	 3.878775
C	 1.436976	 0.743685	 1.686901
H	 -0.556231	 1.456136	 2.069723
H	 0.521111	 2.685497	 1.478046
C	 1.180775	 0.282413	 0.250794
H	 1.365883	 -0.108105	 2.360137
H	 2.459332	 1.107702	 1.769479
C	 2.148627	 -0.814315	 -0.201312
H	 0.155514	 -0.070214	 0.171888
H	 1.264404	 1.134890	 -0.422016
C	 3.580890	 -0.659131	 0.322722
H	 2.166869	 -0.852443	 -1.289387
H	 1.762857	 -1.776509	 0.128956
C	 4.324889	 0.564933	 -0.213704
H	 4.142010	 -1.551473	 0.056605
H	 3.564836	 -0.624694	 1.410140
H	 4.342616	 0.565491	 -1.300421
H	 3.866655	 1.493402	 0.110242
H	 5.353900	 0.572371	 0.132816

	symmetry c1
}
set optking {
	frozen_dihedral = ("
		8 11 14 18
	")
}

ee = optimize('scf')
oeprop('DIPOLE', 'QUADRUPOLE', 'MULLIKEN_CHARGES')
f=open( 'psi4out.xyz', 'w' )
f.write( "25  " )
f.write( str(ee) + "\n" )
f.write( MOL.save_string_xyz() )
f.close()
--------------------------------------------------------------------------

    Molecular point group: c1
  Charge       = 0
  Multiplicity = 1
  Basis Set: 6-31G*
  Basis Set:
  @DF-RHF Final Energy:  -387.11562439411142
    Total Energy =                       -387.1156243941115918
    Molecular point group: c1
  Basis Set: 6-31G*
  Basis Set:
  Basis Set: 6-31G*
  Basis Set:
  @DF-RHF Final Energy:  -387.11694616366623
    Total Energy =                       -387.1169461636660571
  Basis Set: 6-31G*
  Basis Set:
  Basis Set: 6-31G*
  Basis Set:
  @DF-RHF Final Energy:  -387.11761964042950
    Total Energy =                       -387.1176196404289840
  Basis Set: 6-31G*
  Basis Set:
  Basis Set: 6-31G*
  Basis Set:
  @DF-RHF Final Energy:  -387.11671258355852
    Total Energy =                       -387.1167125835582965
  Basis Set: 6-31G*
  Basis Set:
  Basis Set: 6-31G*
  Basis Set:
  @DF-RHF Final Energy:  -387.11776293653770
    Total Energy =                       -387.1177629365372468
  Basis Set: 6-31G*
  Basis Set:
  Basis Set: 6-31G*
  Basis Set:
  @DF-RHF Final Energy:  -387.11787596701419
    Total Energy =                       -387.1178759670144700
  Basis Set: 6-31G*
  Basis Set:
  Basis Set: 6-31G*
  Basis Set:
  @DF-RHF Final Energy:  -387.11789116580013
    Total Energy =                       -387.1178911657999606
  Basis Set: 6-31G*
  Basis Set:
  Charge       = 0
  Multiplicity = 1
  Basis Set: 6-31G*
  Basis Set:

    Orbital Energies (a.u.)
    -----------------------

    Doubly Occupied:

       1A    -20.562324     2A    -11.326409     3A    -11.235466
       4A    -11.234762     5A    -11.223596     6A    -11.220435
       7A    -11.217462     8A    -11.215926     9A    -11.209842
      10A     -1.402246    11A     -1.103866    12A     -1.067940
      13A     -1.009570    14A     -0.944849    15A     -0.874711
      16A     -0.831040    17A     -0.789018    18A     -0.765900
      19A     -0.665792    20A     -0.661846    21A     -0.631290
      22A     -0.627532    23A     -0.609868    24A     -0.589731
      25A     -0.562819    26A     -0.558231    27A     -0.538137
      28A     -0.521106    29A     -0.513525    30A     -0.499807
      31A     -0.487384    32A     -0.482346    33A     -0.455620
      34A     -0.450944    35A     -0.445925    36A     -0.409777

  @DF-RHF Final Energy:  -387.11789188612767

   => Energetics <=

    Nuclear Repulsion Energy =            451.9963760760569471
    One-Electron Energy =               -1420.3344477086761799
    Two-Electron Energy =                 581.2201797464920219
    DFT Exchange-Correlation Energy =       0.0000000000000000
    Empirical Dispersion Energy =           0.0000000000000000
    PCM Polarization Energy =               0.0000000000000000
    EFP Energy =                            0.0000000000000000
    Total Energy =                       -387.1178918861271541
    Molecular point group: c1
  Basis Set: 6-31G*
  Basis Set:

  -Total Gradient:
     Atom            X                  Y                   Z
    ------   -----------------  -----------------  -----------------
       1        0.000003809289    -0.000001261382    -0.000003611850
       2       -0.000017177212     0.000072405932    -0.000011855299
       3       -0.000013836237    -0.000080300798     0.000002347316
       4       -0.000033818725    -0.000002617262     0.000003755470
       5        0.000064977350     0.000093772732    -0.000045838043
       6        0.000026481177    -0.000010486842    -0.000005013006
       7       -0.000028298537    -0.000025137687     0.000014800380
       8        0.003094486393     0.003161731698    -0.001478067449
       9       -0.000017184440     0.000023929489     0.000027145459
      10        0.000037391137    -0.000011480310     0.000024673803
      11       -0.003459889635    -0.003711850845     0.002111195417
      12        0.000057477670    -0.000013542740    -0.000030725777
      13        0.000011867749    -0.000011880891    -0.000042630590
      14       -0.004496683655    -0.003290743778    -0.000685474396
      15       -0.000020096973    -0.000009634453     0.000014993595
      16        0.000032195550     0.000033944608     0.000014234093
      17       -0.000035929697    -0.000067875633    -0.000017691128
      18        0.004885824543     0.003853804859     0.000049991517
      19        0.000052519248    -0.000013690626     0.000032505610
      20       -0.000018050674     0.000050740354    -0.000020012565
      21       -0.000042684588    -0.000024865010    -0.000037767712
      22       -0.000017649867    -0.000006676176     0.000026868060
      23       -0.000009822760    -0.000011669886     0.000019405848
      24       -0.000015369920     0.000042393660     0.000019188711
      25       -0.000040537181    -0.000039009014     0.000017582531

  **** Optimization is complete! (in 8 steps) ****
    Final optimized geometry and variables:
    Molecular point group: c1

    Geometry (in Angstrom), charge = 0, multiplicity = 1:

    H           -0.078508181537     2.814413606828     1.342569110684
    C           -0.197732159410     1.969785716743     2.032674420746
    C           -1.461586937523     1.169204410917     1.847475627450
    O            0.633060916851     1.747004363238     2.852467501904
    C           -1.651044368580     0.695160307972     0.399632627234
    H           -1.443111836734     0.335681535699     2.540075488252
    H           -2.293497019981     1.815486002039     2.124473362044
    C           -0.619387574767    -0.347031230743    -0.041673129773
    H           -2.649568899142     0.279565005886     0.301674160563
    H           -1.614134180003     1.553697163528    -0.269124809897
    C           -0.838387529964    -0.801465418816    -1.487597789875
    H           -0.674223824554    -1.202873310019     0.628930151235
    H            0.380268169042     0.060670790197     0.071920969233
    C            0.072578719803    -1.942361852512    -1.980502811312
    H           -1.873169901931    -1.110841284144    -1.613812715958
    H           -0.708187298072     0.063680521645    -2.134888936155
    C            1.543563016761    -1.879509567551    -1.543349483108
    H            0.075013944999    -1.924485592636    -3.068128107540
    H           -0.342462125830    -2.896866811739    -1.668557192964
    C            2.311199664073    -0.685972095530    -2.115195000566
    H            2.028796970059    -2.793609212822    -1.876701806301
    H            1.619792897180    -1.880676424237    -0.460053208996
    H            2.287110224546    -0.694233504655    -3.201589565691
    H            1.897969087807     0.262212186390    -1.786013560332
    H            3.352003678983    -0.711546747804    -1.808204765981

  Mulliken Charges: (a.u.)
   Center  Symbol    Alpha    Beta     Spin     Total
       1     H     0.43259  0.43259  0.00000  0.13483
       2     C     2.83105  2.83105  0.00000  0.33789
       3     C     3.20787  3.20787  0.00000 -0.41574
       4     O     4.23776  4.23776  0.00000 -0.47553
       5     C     3.16649  3.16649  0.00000 -0.33297
       6     H     0.39974  0.39974  0.00000  0.20052
       7     H     0.40670  0.40670  0.00000  0.18660
       8     C     3.15866  3.15866  0.00000 -0.31732
       9     H     0.41276  0.41276  0.00000  0.17448
      10     H     0.41976  0.41976  0.00000  0.16047
      11     C     3.15566  3.15566  0.00000 -0.31132
      12     H     0.41860  0.41860  0.00000  0.16280
      13     H     0.41514  0.41514  0.00000  0.16972
      14     C     3.15294  3.15294  0.00000 -0.30588
      15     H     0.42030  0.42030  0.00000  0.15940
      16     H     0.42262  0.42262  0.00000  0.15477
      17     C     3.15808  3.15808  0.00000 -0.31617
      18     H     0.42186  0.42186  0.00000  0.15628
      19     H     0.42054  0.42054  0.00000  0.15892
      20     C     3.24089  3.24089  0.00000 -0.48178
      21     H     0.41989  0.41989  0.00000  0.16023
      22     H     0.41857  0.41857  0.00000  0.16286
      23     H     0.42225  0.42225  0.00000  0.15551
      24     H     0.42201  0.42201  0.00000  0.15598
      25     H     0.41728  0.41728  0.00000  0.16544

   Total alpha = 36.00000, Total beta = 36.00000, Total charge =  0.00000
