  ==> Input File <==

--------------------------------------------------------------------------
set {
	reference rhf
	basis 6-31G*
}

set_num_threads( 4 )
memory 2 gb

molecule MOL {
0 1

O	 -3.594760	 -0.259929	 0.635989
C	 -2.668563	 0.129746	 -0.000350
C	 -2.714969	 1.341296	 -0.895481
O	 -1.481751	 -0.454642	 0.000584
H	 -2.993448	 2.202936	 -0.300597
H	 -1.766703	 1.520669	 -1.380307
H	 -3.487620	 1.193956	 -1.640586
C	 -0.334255	 0.388708	 0.000906
C	 0.891947	 -0.504646	 0.000751
H	 -0.365390	 1.025305	 -0.873475
H	 -0.365484	 1.024911	 0.875569
C	 2.191998	 0.301789	 0.000897
H	 0.855148	 -1.151283	 -0.871571
H	 0.855132	 -1.151660	 0.872805
C	 3.441114	 -0.581407	 0.000108
H	 2.215074	 0.954890	 -0.869742
H	 2.215465	 0.953923	 0.872248
C	 4.739576	 0.224112	 -0.001102
H	 3.419457	 -1.233487	 -0.870178
H	 3.420834	 -1.233096	 0.870717
H	 4.804918	 0.861552	 -0.878265
H	 5.606527	 -0.429058	 -0.001824
H	 4.806469	 0.861674	 0.875853

	symmetry c1
}
set optking {
	frozen_dihedral = ("
		1 2 4 8
	")
}

ee = optimize('scf')
oeprop('DIPOLE', 'QUADRUPOLE', 'MULLIKEN_CHARGES')
f=open( 'psi4out.xyz', 'w' )
f.write( "23  " )
f.write( str(ee) + "\n" )
f.write( MOL.save_string_xyz() )
f.close()
--------------------------------------------------------------------------

    Molecular point group: c1
  Charge       = 0
  Multiplicity = 1
  Basis Set: 6-31G*
  Basis Set:
  @DF-RHF Final Energy:  -422.95014188980701
    Total Energy =                       -422.9501418898071279
    Molecular point group: c1
  Basis Set: 6-31G*
  Basis Set:
  Basis Set: 6-31G*
  Basis Set:
  @DF-RHF Final Energy:  -422.95012226230432
    Total Energy =                       -422.9501222623041485
  Basis Set: 6-31G*
  Basis Set:
  Basis Set: 6-31G*
  Basis Set:
  @DF-RHF Final Energy:  -422.95858331142978
    Total Energy =                       -422.9585833114301749
  Basis Set: 6-31G*
  Basis Set:
  Basis Set: 6-31G*
  Basis Set:
  @DF-RHF Final Energy:  -422.96046916967339
    Total Energy =                       -422.9604691696735017
  Basis Set: 6-31G*
  Basis Set:
  @DF-RHF Final Energy:  -422.96049178894049
    Total Energy =                       -422.9604917889405442
  @DF-RHF Final Energy:  -422.96158001997691
    Total Energy =                       -422.9615800199761679
  @DF-RHF Final Energy:  -422.96185564883848
    Total Energy =                       -422.9618556488384229
  @DF-RHF Final Energy:  -422.96216695029409
    Total Energy =                       -422.9621669502938630
  @DF-RHF Final Energy:  -422.96222034184780
    Total Energy =                       -422.9622203418473418
  @DF-RHF Final Energy:  -422.96263353096208
    Total Energy =                       -422.9626335309612841
  @DF-RHF Final Energy:  -422.96285666043491
    Total Energy =                       -422.9628566604339994
  @DF-RHF Final Energy:  -422.96314301046107
    Total Energy =                       -422.9631430104606125
  @DF-RHF Final Energy:  -422.96324958132209
    Total Energy =                       -422.9632495813224295
  Basis Set: 6-31G*
  Basis Set:
  @DF-RHF Final Energy:  -422.96327784816941
    Total Energy =                       -422.9632778481691275
  Basis Set: 6-31G*
  Basis Set:
  Basis Set: 6-31G*
  Basis Set:
  @DF-RHF Final Energy:  -422.96327922916367
    Total Energy =                       -422.9632792291645274
  Basis Set: 6-31G*
  Basis Set:
  Basis Set: 6-31G*
  Basis Set:
  @DF-RHF Final Energy:  -422.96328177144795
    Total Energy =                       -422.9632817714473276
  Basis Set: 6-31G*
  Basis Set:
  Charge       = 0
  Multiplicity = 1
  Basis Set: 6-31G*
  Basis Set:

    Orbital Energies (a.u.)
    -----------------------

    Doubly Occupied:

       1A    -20.592898     2A    -20.544702     3A    -11.375568
       4A    -11.296449     5A    -11.240378     6A    -11.229273
       7A    -11.228569     8A    -11.224932     9A    -11.215997
      10A     -1.459491    11A     -1.365521    12A     -1.097308
      13A     -1.036264    14A     -1.013739    15A     -0.941587
      16A     -0.847074    17A     -0.807336    18A     -0.777953
      19A     -0.698977    20A     -0.692305    21A     -0.658991
      22A     -0.649846    23A     -0.615253    24A     -0.594417
      25A     -0.580811    26A     -0.575709    27A     -0.569014
      28A     -0.543557    29A     -0.525056    30A     -0.503110
      31A     -0.494247    32A     -0.482069    33A     -0.475398
      34A     -0.473950    35A     -0.448280    36A     -0.431320

  @DF-RHF Final Energy:  -422.96328267357546

   => Energetics <=

    Nuclear Repulsion Energy =            449.4455963705996737
    One-Electron Energy =               -1466.2030642088229797
    Two-Electron Energy =                 593.7941851646480700
    DFT Exchange-Correlation Energy =       0.0000000000000000
    Empirical Dispersion Energy =           0.0000000000000000
    PCM Polarization Energy =               0.0000000000000000
    EFP Energy =                            0.0000000000000000
    Total Energy =                       -422.9632826735752360
    Molecular point group: c1
  Basis Set: 6-31G*
  Basis Set:

  -Total Gradient:
     Atom            X                  Y                   Z
    ------   -----------------  -----------------  -----------------
       1        0.000952404779     0.001827427066     0.003065820525
       2       -0.001391031773    -0.002862756835    -0.002750586469
       3        0.000016688933     0.000012349957    -0.000015227580
       4        0.000358844119     0.001394903993    -0.003367630969
       5       -0.000000281193     0.000009031017    -0.000005025266
       6       -0.000002437268     0.000007810053     0.000017965129
       7       -0.000004314771    -0.000006267932     0.000007755783
       8        0.000095012544    -0.000348917768     0.003020091660
       9        0.000004728404    -0.000001712422     0.000007458702
      10       -0.000002018677    -0.000000931594     0.000013964555
      11       -0.000027972130    -0.000014554742     0.000001725286
      12       -0.000007273857    -0.000001243399     0.000008608795
      13        0.000006696862    -0.000007726345    -0.000000522795
      14        0.000005432692    -0.000005558298     0.000006532791
      15       -0.000001156979    -0.000003156131    -0.000017167920
      16       -0.000006301192    -0.000003627543     0.000001623274
      17        0.000005257599     0.000004118782     0.000002120528
      18       -0.000002923781     0.000001752675     0.000008579642
      19        0.000002205447    -0.000000594102    -0.000003459731
      20       -0.000000938121     0.000000338700    -0.000004150509
      21        0.000000403379    -0.000003952732    -0.000000917713
      22       -0.000000885104    -0.000000729492     0.000003950392
      23       -0.000000139900     0.000003997094    -0.000001508110

  **** Optimization is complete! (in 17 steps) ****
    Final optimized geometry and variables:
    Molecular point group: c1

    Geometry (in Angstrom), charge = 0, multiplicity = 1:

    O           -3.554053069871    -0.535826478563     0.571728801344
    C           -2.718743877508     0.033684412735    -0.041856678233
    C           -2.974572586242     1.331415952767    -0.772855816164
    O           -1.483576607504    -0.477305284547    -0.132329284508
    H           -2.474509959041     2.157286301565    -0.277931797128
    H           -2.604269472805     1.278651506553    -1.790267380147
    H           -4.037496733777     1.519992750455    -0.776616905535
    C           -0.341183209761     0.357873651275    -0.059246923175
    C            0.880323039118    -0.540991682742    -0.002324512955
    H           -0.293993747207     1.009649096372    -0.925238395264
    H           -0.401413132346     0.977341410889     0.829961522187
    C            2.184649686291     0.253635594534     0.080959557871
    H            0.882160703436    -1.174221463433    -0.884685564490
    H            0.783684779537    -1.198263612209     0.856064311615
    C            3.423355555016    -0.642486385627     0.137598376889
    H            2.263781350184     0.918011891941    -0.778185480869
    H            2.166699756846     0.893483119286     0.961792479250
    C            4.727180686587     0.149621985768     0.223005289656
    H            3.444828264651    -1.281075200025    -0.742463789493
    H            3.346522502842    -1.306593271325     0.995267958931
    H            4.849550146563     0.798666144772    -0.639506702163
    H            5.586092138551    -0.512694021576     0.262496828781
    H            4.749812033953     0.773696881593     1.111868690679

  Mulliken Charges: (a.u.)
   Center  Symbol    Alpha    Beta     Spin     Total
       1     O     4.25723  4.25723  0.00000 -0.51446
       2     C     2.61947  2.61947  0.00000  0.76105
       3     C     3.30454  3.30454  0.00000 -0.60909
       4     O     4.31047  4.31047  0.00000 -0.62095
       5     H     0.40332  0.40332  0.00000  0.19337
       6     H     0.40226  0.40226  0.00000  0.19547
       7     H     0.38980  0.38980  0.00000  0.22039
       8     C     2.99573  2.99573  0.00000  0.00854
       9     C     3.16224  3.16224  0.00000 -0.32449
      10     H     0.42122  0.42122  0.00000  0.15756
      11     H     0.41845  0.41845  0.00000  0.16309
      12     C     3.16119  3.16119  0.00000 -0.32238
      13     H     0.41100  0.41100  0.00000  0.17800
      14     H     0.40780  0.40780  0.00000  0.18440
      15     C     3.15181  3.15181  0.00000 -0.30362
      16     H     0.42260  0.42260  0.00000  0.15479
      17     H     0.42162  0.42162  0.00000  0.15676
      18     C     3.24006  3.24006  0.00000 -0.48012
      19     H     0.42037  0.42037  0.00000  0.15926
      20     H     0.41959  0.41959  0.00000  0.16083
      21     H     0.42135  0.42135  0.00000  0.15730
      22     H     0.41695  0.41695  0.00000  0.16611
      23     H     0.42093  0.42093  0.00000  0.15815

   Total alpha = 36.00000, Total beta = 36.00000, Total charge =  0.00000
