                              Psi4 1.0.54 Driver

  ==> Input File <==

--------------------------------------------------------------------------
set {
	reference rhf
	basis cc-pvtz
}

set_num_threads( 4 )
memory 2 gb

molecule MOL {
0 1

H	 -2.362939	 -1.309000	 -0.383250
C	 -1.359344	 -1.272457	 0.020748
C	 -0.684082	 0.000127	 -0.464918
H	 -0.825835	 -2.151141	 -0.318537
H	 -1.416276	 -1.292399	 1.099455
C	 -1.359089	 1.272668	 0.021259
N	 0.742439	 -0.000109	 0.007333
H	 -0.596914	 0.000345	 -1.538146
H	 -2.362696	 1.309620	 -0.382686
H	 -0.825392	 2.151374	 -0.317674
H	 -1.415983	 1.292181	 1.099973
O	 1.259249	 1.052134	 0.178612
O	 1.261283	 -1.052531	 0.179085

	symmetry c1
}
set optking {
	frozen_dihedral = ("
		12 7 3 8
	")
}

ee,wfn = optimize('scf', return_wfn=True)
oeprop( wfn, 'DIPOLE', 'QUADRUPOLE', 'MULLIKEN_CHARGES')
f=open( 'psi4out.xyz', 'w' )
f.write( "13  " )
f.write( str(ee) + "\n" )
f.write( MOL.save_string_xyz() )
f.close()
--------------------------------------------------------------------------

    Molecular point group: c1
  Charge       = 0
  Multiplicity = 1
  Basis Set: CC-PVTZ
  Basis Set:
  @DF-RHF Final Energy:  -321.86107945515897
    Total Energy =                       -321.8610794551590288
    Molecular point group: c1
  Basis Set: CC-PVTZ
  Basis Set:
  Basis Set: CC-PVTZ
  Basis Set:
  @DF-RHF Final Energy:  -321.85800259289044
    Total Energy =                       -321.8580025928901591
  Basis Set: CC-PVTZ
  Basis Set:
  Basis Set: CC-PVTZ
  Basis Set:
  @DF-RHF Final Energy:  -321.85702772705855
    Total Energy =                       -321.8570277270587781
  Basis Set: CC-PVTZ
  Basis Set:
  Basis Set: CC-PVTZ
  Basis Set:
  @DF-RHF Final Energy:  -321.86004189474568
    Total Energy =                       -321.8600418947456774
  Basis Set: CC-PVTZ
  Basis Set:
  @DF-RHF Final Energy:  -321.85960416678722
    Total Energy =                       -321.8596041667871646
  Basis Set: CC-PVTZ
  Basis Set:
  @DF-RHF Final Energy:  -321.86206662816284
    Total Energy =                       -321.8620666281629497
  Basis Set: CC-PVTZ
  Basis Set:
  Basis Set: CC-PVTZ
  Basis Set:
  @DF-RHF Final Energy:  -321.86209101207419
    Total Energy =                       -321.8620910120743019
  Basis Set: CC-PVTZ
  Basis Set:
  Basis Set: CC-PVTZ
  Basis Set:
  @DF-RHF Final Energy:  -321.86209559555476
    Total Energy =                       -321.8620955955548197
  Basis Set: CC-PVTZ
  Basis Set:
  Charge       = 0
  Multiplicity = 1
  Basis Set: CC-PVTZ
  Basis Set:

    Orbital Energies (a.u.)
    -----------------------

    Doubly Occupied:

       1A    -20.588554     2A    -20.588235     3A    -15.834013
       4A    -11.307146     5A    -11.238406     6A    -11.238172
       7A     -1.634540     8A     -1.418102     9A     -1.139579
      10A     -0.967404    11A     -0.958400    12A     -0.814942
      13A     -0.765386    14A     -0.730041    15A     -0.722719
      16A     -0.639307    17A     -0.596491    18A     -0.586075
      19A     -0.570406    20A     -0.521696    21A     -0.521495
      22A     -0.483094    23A     -0.472359    24A     -0.452358

  @DF-RHF Final Energy:  -321.86209618666442

   => Energetics <=

    Nuclear Repulsion Energy =            257.2085712096020416
    One-Electron Energy =                -948.5634907013089787
    Two-Electron Energy =                 369.4928233050426911
    DFT Exchange-Correlation Energy =       0.0000000000000000
    Empirical Dispersion Energy =           0.0000000000000000
    PCM Polarization Energy =               0.0000000000000000
    EFP Energy =                            0.0000000000000000
    Total Energy =                       -321.8620961866642460
    Molecular point group: c1
  Basis Set: CC-PVTZ
  Basis Set:

  -Total Gradient:
     Atom            X                  Y                   Z
    ------   -----------------  -----------------  -----------------
       1        0.000002909754    -0.000001981517     0.000000266669
       2        0.000013099839    -0.000005181204     0.000007382649
       3       -0.000048385996    -0.000085708090    -0.000064031639
       4       -0.000002251061    -0.000001699083     0.000002319854
       5       -0.000008924639    -0.000008481518     0.000010015208
       6        0.000026217999    -0.000005007822     0.000011459424
       7       -0.000057466885    -0.000148187442     0.000126324020
       8        0.000038928787     0.000090068860    -0.000002716535
       9        0.000006408461    -0.000008671620    -0.000000953403
      10        0.000001617536     0.000001576769     0.000003127736
      11       -0.000004201312     0.000010521992     0.000005095126
      12        0.000051730191     0.000019008196    -0.000088913687
      13       -0.000019682675     0.000143742480    -0.000009375421

  **** Optimization is complete! (in 9 steps) ****
    Final optimized geometry and variables:
    Molecular point group: c1

    Geometry (in Angstrom), charge = 0, multiplicity = 1:

    H           -2.594170458798    -0.826151593041    -0.229949201366
    C           -1.580310058413    -1.012940307471     0.100111215421
    C           -0.698038743358     0.115854401005    -0.404456761117
    H           -1.261654488667    -1.969749436917    -0.279612750230
    H           -1.577068971458    -1.052139020662     1.182220551488
    C           -1.147291673079     1.489466200330     0.061953453451
    N            0.743015442955    -0.129304063257    -0.013648049665
    H           -0.649091662040     0.091104089894    -1.485954968384
    H           -2.166468486415     1.643991771376    -0.268581363364
    H           -0.527820766124     2.272314478902    -0.343954255944
    H           -1.126009213195     1.557867264152     1.142267889977
    O            1.447027480489     0.815036553660     0.112951458584
    O            1.096465633941    -1.254462728745     0.098715989034

  Mulliken Charges: (a.u.)
   Center  Symbol    Alpha    Beta     Spin     Total
       1     H     0.45065  0.45065  0.00000  0.09869
       2     C     3.14330  3.14330  0.00000 -0.28661
       3     C     3.00664  3.00664  0.00000 -0.01328
       4     H     0.43160  0.43160  0.00000  0.13681
       5     H     0.44609  0.44609  0.00000  0.10783
       6     C     3.14314  3.14314  0.00000 -0.28628
       7     N     3.27538  3.27538  0.00000  0.44924
       8     H     0.43056  0.43056  0.00000  0.13889
       9     H     0.45067  0.45067  0.00000  0.09866
      10     H     0.43193  0.43193  0.00000  0.13615
      11     H     0.44589  0.44589  0.00000  0.10821
      12     O     4.17192  4.17192  0.00000 -0.34384
      13     O     4.17223  4.17223  0.00000 -0.34447

   Total alpha = 24.00000, Total beta = 24.00000, Total charge = -0.00000

*** Psi4 exiting successfully. Buy a developer a beer!
