  ==> Input File <==

--------------------------------------------------------------------------
set {
	reference rhf
	basis 6-31G*
}

set_num_threads( 4 )
memory 2 gb

molecule MOL {
0 1

H	 2.433636	 -0.920526	 0.144263
O	 2.064459	 -0.086912	 -0.111827
C	 0.745630	 0.005118	 0.354752
H	 0.739005	 0.037656	 1.444976
C	 -0.064159	 -1.194875	 -0.122754
C	 -0.046302	 1.193543	 -0.190431
H	 0.197384	 -1.376065	 -1.160690
H	 0.162855	 -2.097978	 0.431858
C	 -1.535782	 -0.752177	 0.006642
H	 0.154512	 1.271315	 -1.255561
H	 0.226209	 2.140461	 0.267302
C	 -1.509193	 0.801505	 0.065617
H	 -2.127797	 -1.112194	 -0.826847
H	 -1.986849	 -1.158408	 0.905561
H	 -2.183670	 1.254107	 -0.651985
H	 -1.821727	 1.144320	 1.047089

	symmetry c1
}
set optking {
	frozen_dihedral = ("
		1 2 3 6
	")
}

ee = optimize('scf')
oeprop('DIPOLE', 'QUADRUPOLE', 'MULLIKEN_CHARGES')
f=open( 'psi4out.xyz', 'w' )
f.write( "16  " )
f.write( str(ee) + "\n" )
f.write( MOL.save_string_xyz() )
f.close()
--------------------------------------------------------------------------

    Molecular point group: c1
  Charge       = 0
  Multiplicity = 1
  Basis Set: 6-31G*
  Basis Set:
  @DF-RHF Final Energy:  -270.01246278742940
    Total Energy =                       -270.0124627874293992
    Molecular point group: c1
  Basis Set: 6-31G*
  Basis Set:
  Basis Set: 6-31G*
  Basis Set:
  @DF-RHF Final Energy:  -270.01408385888737
    Total Energy =                       -270.0140838588872612
  Basis Set: 6-31G*
  Basis Set:
  Basis Set: 6-31G*
  Basis Set:
  @DF-RHF Final Energy:  -270.01426576829829
    Total Energy =                       -270.0142657682985146
  Basis Set: 6-31G*
  Basis Set:
  Basis Set: 6-31G*
  Basis Set:
  @DF-RHF Final Energy:  -270.01427285819568
    Total Energy =                       -270.0142728581958522
  Basis Set: 6-31G*
  Basis Set:
  @DF-RHF Final Energy:  -270.01427583196102
    Total Energy =                       -270.0142758319608447
  @DF-RHF Final Energy:  -270.01428283718110
    Total Energy =                       -270.0142828371810424
  Basis Set: 6-31G*
  Basis Set:
  @DF-RHF Final Energy:  -270.01428911480599
    Total Energy =                       -270.0142891148060471
  Basis Set: 6-31G*
  Basis Set:
  Basis Set: 6-31G*
  Basis Set:
  @DF-RHF Final Energy:  -270.01429093835492
    Total Energy =                       -270.0142909383547476
  Basis Set: 6-31G*
  Basis Set:
  Basis Set: 6-31G*
  Basis Set:
  @DF-RHF Final Energy:  -270.01429212696314
    Total Energy =                       -270.0142921269631415
  Basis Set: 6-31G*
  Basis Set:
  Charge       = 0
  Multiplicity = 1
  Basis Set: 6-31G*
  Basis Set:

    Orbital Energies (a.u.)
    -----------------------

    Doubly Occupied:

       1A    -20.551917     2A    -11.268271     3A    -11.217826
       4A    -11.215552     5A    -11.213680     6A    -11.208307
       7A     -1.360985     8A     -1.113732     9A     -0.966523
      10A     -0.948105    11A     -0.789512    12A     -0.778372
      13A     -0.697127    14A     -0.658734    15A     -0.618164
      16A     -0.590036    17A     -0.568506    18A     -0.523885
      19A     -0.502945    20A     -0.482528    21A     -0.471010
      22A     -0.456883    23A     -0.446575    24A     -0.421345

  @DF-RHF Final Energy:  -270.01429240827429

   => Energetics <=

    Nuclear Repulsion Energy =            255.2227123092290810
    One-Electron Energy =                -872.3329662164610454
    Two-Electron Energy =                 347.0959614989578199
    DFT Exchange-Correlation Energy =       0.0000000000000000
    Empirical Dispersion Energy =           0.0000000000000000
    PCM Polarization Energy =               0.0000000000000000
    EFP Energy =                            0.0000000000000000
    Total Energy =                       -270.0142924082741160
    Molecular point group: c1
  Basis Set: 6-31G*
  Basis Set:

  -Total Gradient:
     Atom            X                  Y                   Z
    ------   -----------------  -----------------  -----------------
       1       -0.000336752658    -0.000429740829    -0.001009561512
       2        0.000344795433     0.000384369850     0.001020826346
       3        0.000193101771     0.000431834864     0.000558455657
       4       -0.000002775920    -0.000001563952    -0.000000135816
       5        0.000000266958     0.000006672480     0.000004856359
       6       -0.000195908488    -0.000380617784    -0.000574199636
       7        0.000000345550    -0.000009622671     0.000003006884
       8        0.000000541130     0.000003841889     0.000008429801
       9        0.000000182229    -0.000001594092     0.000004831112
      10        0.000001387384    -0.000011643477    -0.000000414529
      11       -0.000000429958     0.000005335938    -0.000009859508
      12       -0.000000951177     0.000003777763    -0.000007753070
      13        0.000010044528     0.000007120488    -0.000012544558
      14       -0.000015220765    -0.000006179267    -0.000010213159
      15       -0.000012433089     0.000007730629     0.000014899585
      16        0.000013807072    -0.000009721830     0.000009376045

  **** Optimization is complete! (in 10 steps) ****
    Final optimized geometry and variables:
    Molecular point group: c1

    Geometry (in Angstrom), charge = 0, multiplicity = 1:

    H            2.490704388312    -0.813417387047     0.114815573538
    O            2.069457336998     0.008597600364    -0.094455258673
    C            0.743427764984    -0.014524000284     0.360096542839
    H            0.725199013587     0.001026255598     1.450522314333
    C           -0.084457575692    -1.197594190570    -0.145245551941
    C           -0.023232299592     1.186866469535    -0.177118486530
    H            0.150480945726    -1.344687088651    -1.195955414627
    H            0.133455909198    -2.127040812885     0.373645925314
    C           -1.545068042909    -0.741668370116     0.029950297792
    H            0.207308497520     1.281905788662    -1.234046115311
    H            0.258692900120     2.116031216177     0.304831398227
    C           -1.499998847556     0.813234336867     0.034940347294
    H           -2.178758654620    -1.129207532352    -0.759297305297
    H           -1.952169962482    -1.111335053962     0.965162103663
    H           -2.136894994886     1.243373596097    -0.729282551290
    H           -1.854340094047     1.195445075475     0.986761311573

  Mulliken Charges: (a.u.)
   Center  Symbol    Alpha    Beta     Spin     Total
       1     H     0.28189  0.28189  0.00000  0.43622
       2     O     4.37707  4.37707  0.00000 -0.75413
       3     C     2.90457  2.90457  0.00000  0.19086
       4     H     0.43052  0.43052  0.00000  0.13897
       5     C     3.18076  3.18076  0.00000 -0.36152
       6     C     3.16571  3.16571  0.00000 -0.33143
       7     H     0.41403  0.41403  0.00000  0.17193
       8     H     0.42017  0.42017  0.00000  0.15966
       9     C     3.16770  3.16770  0.00000 -0.33540
      10     H     0.41267  0.41267  0.00000  0.17465
      11     H     0.41240  0.41240  0.00000  0.17519
      12     C     3.16997  3.16997  0.00000 -0.33994
      13     H     0.41405  0.41405  0.00000  0.17189
      14     H     0.41708  0.41708  0.00000  0.16584
      15     H     0.41418  0.41418  0.00000  0.17164
      16     H     0.41722  0.41722  0.00000  0.16556

   Total alpha = 24.00000, Total beta = 24.00000, Total charge = -0.00000
