  ==> Input File <==

--------------------------------------------------------------------------
set {
	reference rhf
	basis 6-31G*
}

set_num_threads( 4 )
memory 2 gb

molecule MOL {
0 1

H	 1.813164	 2.228903	 -1.761919
O	 2.619538	 1.835167	 -2.061593
C	 3.120759	 0.971516	 -1.073191
C	 2.320300	 -0.319396	 -0.940762
H	 4.136446	 0.743005	 -1.369566
H	 3.171642	 1.481371	 -0.111818
C	 0.876160	 -0.111528	 -0.478035
H	 2.326158	 -0.828809	 -1.900882
H	 2.836595	 -0.967533	 -0.234557
C	 0.115918	 -1.429151	 -0.302766
H	 0.356793	 0.513925	 -1.198752
H	 0.873441	 0.430879	 0.467549
C	 -1.309753	 -1.282496	 0.241564
H	 0.084984	 -1.954110	 -1.255818
H	 0.679512	 -2.066292	 0.375551
C	 -2.037799	 -0.007733	 -0.193645
H	 -1.890610	 -2.142323	 -0.085726
H	 -1.285946	 -1.330893	 1.329189
C	 -3.489788	 0.042957	 0.286558
H	 -2.017067	 0.064384	 -1.280144
H	 -1.513726	 0.868678	 0.179924
C	 -4.216917	 1.317354	 -0.141063
H	 -4.025645	 -0.823308	 -0.095450
H	 -3.513059	 -0.038752	 1.371301
H	 -4.239342	 1.411634	 -1.223113
H	 -5.243387	 1.322503	 0.212445
H	 -3.726170	 2.201406	 0.256408

	symmetry c1
}
set optking {
	frozen_dihedral = ("
		14 10 13 16
	")
}

ee = optimize('scf')
oeprop('DIPOLE', 'QUADRUPOLE', 'MULLIKEN_CHARGES')
f=open( 'psi4out.xyz', 'w' )
f.write( "27  " )
f.write( str(ee) + "\n" )
f.write( MOL.save_string_xyz() )
f.close()
--------------------------------------------------------------------------

    Molecular point group: c1
  Charge       = 0
  Multiplicity = 1
  Basis Set: 6-31G*
  Basis Set:
  @DF-RHF Final Energy:  -388.27736310095588
    Total Energy =                       -388.2773631009564497
    Molecular point group: c1
  Basis Set: 6-31G*
  Basis Set:
  Basis Set: 6-31G*
  Basis Set:
  @DF-RHF Final Energy:  -388.27778871241418
    Total Energy =                       -388.2777887124145764
  Basis Set: 6-31G*
  Basis Set:
  Basis Set: 6-31G*
  Basis Set:
  @DF-RHF Final Energy:  -388.27815223733796
    Total Energy =                       -388.2781522373381904
  Basis Set: 6-31G*
  Basis Set:
  Basis Set: 6-31G*
  Basis Set:
  @DF-RHF Final Energy:  -388.27811702905854
    Total Energy =                       -388.2781170290580803
  Basis Set: 6-31G*
  Basis Set:
  Basis Set: 6-31G*
  Basis Set:
  @DF-RHF Final Energy:  -388.27817938160337
    Total Energy =                       -388.2781793816034224
  Basis Set: 6-31G*
  Basis Set:
  Charge       = 0
  Multiplicity = 1
  Basis Set: 6-31G*
  Basis Set:

    Orbital Energies (a.u.)
    -----------------------

    Doubly Occupied:

       1A    -20.552274     2A    -11.267091     3A    -11.220343
       4A    -11.217378     5A    -11.216312     6A    -11.216015
       7A    -11.215291     8A    -11.214748     9A    -11.209794
      10A     -1.359050    11A     -1.094648    12A     -1.061598
      13A     -1.010641    14A     -0.948340    15A     -0.890369
      16A     -0.820273    17A     -0.806271    18A     -0.771486
      19A     -0.693573    20A     -0.656481    21A     -0.633822
      22A     -0.614378    23A     -0.601561    24A     -0.585023
      25A     -0.577686    26A     -0.553011    27A     -0.538610
      28A     -0.534032    29A     -0.505983    30A     -0.496355
      31A     -0.487106    32A     -0.474686    33A     -0.467536
      34A     -0.457558    35A     -0.449857    36A     -0.441974
      37A     -0.423702

  @DF-RHF Final Energy:  -388.27817963917147

   => Energetics <=

    Nuclear Repulsion Energy =            461.4922975179611626
    One-Electron Energy =               -1440.9712475190822261
    Two-Electron Energy =                 591.2007703619499352
    DFT Exchange-Correlation Energy =       0.0000000000000000
    Empirical Dispersion Energy =           0.0000000000000000
    PCM Polarization Energy =               0.0000000000000000
    EFP Energy =                            0.0000000000000000
    Total Energy =                       -388.2781796391711850
    Molecular point group: c1
  Basis Set: 6-31G*
  Basis Set:

  -Total Gradient:
     Atom            X                  Y                   Z
    ------   -----------------  -----------------  -----------------
       1        0.000025390527    -0.000003679038     0.000004392155
       2        0.000028689434    -0.000010279626    -0.000034957299
       3       -0.000047972207     0.000049309690     0.000071529458
       4        0.000006469200    -0.000009705783    -0.000032996058
       5       -0.000015913363     0.000000052634    -0.000004441678
       6        0.000013192951     0.000005789009     0.000009510975
       7        0.000008131709     0.000013014250    -0.000000274742
       8       -0.000022375016    -0.000000259127    -0.000008514234
       9       -0.000007109349    -0.000012204457    -0.000007845712
      10       -0.000095086202     0.007204477835    -0.002045538240
      11       -0.000004017981    -0.000033363304    -0.000000937695
      12        0.000000594244     0.000018973282    -0.000008475252
      13       -0.002082644911    -0.004360973081    -0.004303451400
      14        0.000613818777    -0.005038761287     0.002902920593
      15        0.000010698335    -0.000004704377    -0.000000919340
      16        0.001554598735     0.002187890353     0.003456435475
      17       -0.000005463567    -0.000015828997     0.000001598646
      18       -0.000011607635     0.000005384790    -0.000013783886
      19       -0.000003031031     0.000005605987     0.000015096915
      20       -0.000008938062    -0.000009804128     0.000012308574
      21        0.000019943162     0.000019992351    -0.000005519596
      22        0.000012016051    -0.000003305531    -0.000005964913
      23        0.000005861966    -0.000002241769    -0.000000827559
      24       -0.000000480127     0.000002516713     0.000002853738
      25       -0.000000096108     0.000000900617    -0.000003922381
      26        0.000005235643    -0.000008544277    -0.000000256736
      27        0.000000094822    -0.000000252732     0.000001980190

  **** Optimization is complete! (in 6 steps) ****
    Final optimized geometry and variables:
    Molecular point group: c1

    Geometry (in Angstrom), charge = 0, multiplicity = 1:

    H            2.125998785007     2.069254541193    -1.225857817903
    O            2.923703870982     1.649200332443    -1.512741581641
    C            3.381022330859     0.770599365821    -0.516364386228
    C            2.536379177375    -0.492990883779    -0.394838215457
    H            4.392562077512     0.507868840540    -0.798090278506
    H            3.435379767596     1.279583728759     0.445309834564
    C            1.094901084239    -0.236501929813     0.051446340495
    H            2.535812217499    -1.001282385831    -1.355570011715
    H            3.022597077615    -1.158748489872     0.316169045811
    C            0.294573962134    -1.530394052625     0.208038199594
    H            0.605713002960     0.409270752298    -0.671958163424
    H            1.101543694781     0.301898084230     0.999121165198
    C           -1.137408538048    -1.391535830802     0.761796479829
    H            0.271342265647    -2.074950208385    -0.733675499544
    H            0.842045356081    -2.186579091323     0.882464768225
    C           -1.914459435520    -0.146453691175     0.323765912708
    H           -1.700227995034    -2.282185706147     0.494730954992
    H           -1.090254850512    -1.383827514854     1.849435682540
    C           -3.351648215589    -0.135550369273     0.849066752060
    H           -1.933403771918    -0.083336012557    -0.763638895767
    H           -1.404853785624     0.747404473873     0.673467952080
    C           -4.129143847903     1.114024269384     0.437113457213
    H           -3.873389871792    -1.019668151303     0.489273541529
    H           -3.338517960367    -0.210431609803     1.934521137095
    H           -4.188430928425     1.200346357258    -0.644218843485
    H           -5.143714190960     1.091348891141     0.822760705847
    H           -3.652651705919     2.014775213112     0.814023860547

  Mulliken Charges: (a.u.)
   Center  Symbol    Alpha    Beta     Spin     Total
       1     H     0.27992  0.27992  0.00000  0.44017
       2     O     4.37093  4.37093  0.00000 -0.74185
       3     C     2.99731  2.99731  0.00000  0.00538
       4     C     3.16117  3.16117  0.00000 -0.32234
       5     H     0.41440  0.41440  0.00000  0.17120
       6     H     0.43212  0.43212  0.00000  0.13576
       7     C     3.16438  3.16438  0.00000 -0.32876
       8     H     0.41481  0.41481  0.00000  0.17038
       9     H     0.42419  0.42419  0.00000  0.15163
      10     C     3.15321  3.15321  0.00000 -0.30643
      11     H     0.42198  0.42198  0.00000  0.15604
      12     H     0.42488  0.42488  0.00000  0.15024
      13     C     3.15290  3.15290  0.00000 -0.30579
      14     H     0.42064  0.42064  0.00000  0.15873
      15     H     0.42200  0.42200  0.00000  0.15601
      16     C     3.15419  3.15419  0.00000 -0.30838
      17     H     0.42034  0.42034  0.00000  0.15932
      18     H     0.42392  0.42392  0.00000  0.15217
      19     C     3.15125  3.15125  0.00000 -0.30249
      20     H     0.42391  0.42391  0.00000  0.15217
      21     H     0.42340  0.42340  0.00000  0.15319
      22     C     3.23917  3.23917  0.00000 -0.47833
      23     H     0.42263  0.42263  0.00000  0.15473
      24     H     0.42320  0.42320  0.00000  0.15360
      25     H     0.42160  0.42160  0.00000  0.15680
      26     H     0.41904  0.41904  0.00000  0.16192
      27     H     0.42253  0.42253  0.00000  0.15494

   Total alpha = 37.00000, Total beta = 37.00000, Total charge = -0.00000
