  ==> Input File <==

--------------------------------------------------------------------------
set {
	reference rhf
	basis 6-31G*
}

set_num_threads( 4 )
memory 2 gb

molecule MOL {
0 1

O	 1.214711	 1.306902	 -0.000018
C	 1.122059	 0.121804	 -0.000188
C	 -0.170150	 -0.657997	 -0.000612
O	 2.172624	 -0.688929	 0.000216
C	 -1.412532	 0.227344	 -0.000452
H	 -0.153702	 -1.313099	 -0.867402
H	 -0.153924	 -1.313811	 0.865644
C	 -1.790305	 0.699286	 -1.405416
H	 -1.241176	 1.085228	 0.642336
H	 -2.241365	 -0.318335	 0.439745
C	 -3.034824	 1.585903	 -1.414609
H	 -0.956139	 1.244717	 -1.842166
H	 -1.958336	 -0.164168	 -2.045950
H	 -2.885930	 2.475844	 -0.810051
H	 -3.280676	 1.906866	 -2.421990
H	 -3.895404	 1.056700	 -1.015876
C	 3.452279	 -0.082609	 0.000533
H	 3.583069	 0.529321	 -0.880332
H	 4.163299	 -0.894027	 0.001117
H	 3.582335	 0.529955	 0.881077

	symmetry c1
}
set optking {
	frozen_dihedral = ("
		9 5 3 6
	")
}

ee = optimize('scf')
oeprop('DIPOLE', 'QUADRUPOLE', 'MULLIKEN_CHARGES')
f=open( 'psi4out.xyz', 'w' )
f.write( "20  " )
f.write( str(ee) + "\n" )
f.write( MOL.save_string_xyz() )
f.close()
--------------------------------------------------------------------------

    Molecular point group: c1
  Charge       = 0
  Multiplicity = 1
  Basis Set: 6-31G*
  Basis Set:
  @DF-RHF Final Energy:  -383.94037274777298
    Total Energy =                       -383.9403727477729262
    Molecular point group: c1
  Basis Set: 6-31G*
  Basis Set:
  Basis Set: 6-31G*
  Basis Set:
  @DF-RHF Final Energy:  -383.94057306904426
    Total Energy =                       -383.9405730690442624
  Basis Set: 6-31G*
  Basis Set:
  Basis Set: 6-31G*
  Basis Set:
  @DF-RHF Final Energy:  -383.94040778997038
    Total Energy =                       -383.9404077899705499
  Basis Set: 6-31G*
  Basis Set:
  Basis Set: 6-31G*
  Basis Set:
  @DF-RHF Final Energy:  -383.94061229916338
    Total Energy =                       -383.9406122991638313
  Basis Set: 6-31G*
  Basis Set:
  Basis Set: 6-31G*
  Basis Set:
  @DF-RHF Final Energy:  -383.94061367784963
    Total Energy =                       -383.9406136778493419
  Basis Set: 6-31G*
  Basis Set:
  Basis Set: 6-31G*
  Basis Set:
  @DF-RHF Final Energy:  -383.94062143918040
    Total Energy =                       -383.9406214391799494
  Basis Set: 6-31G*
  Basis Set:
  Charge       = 0
  Multiplicity = 1
  Basis Set: 6-31G*
  Basis Set:

    Orbital Energies (a.u.)
    -----------------------

    Doubly Occupied:

       1A    -20.604599     2A    -20.546609     3A    -11.373195
       4A    -11.281528     5A    -11.235875     6A    -11.218901
       7A    -11.214376     8A    -11.206884     9A     -1.470419
      10A     -1.363702    11A     -1.086473    12A     -1.022053
      13A     -0.968509    14A     -0.884001    15A     -0.804377
      16A     -0.766306    17A     -0.702336    18A     -0.681058
      19A     -0.672540    20A     -0.630046    21A     -0.608187
      22A     -0.586995    23A     -0.578738    24A     -0.543511
      25A     -0.531361    26A     -0.516103    27A     -0.512725
      28A     -0.475712    29A     -0.470972    30A     -0.461560
      31A     -0.455920    32A     -0.437611

  @DF-RHF Final Energy:  -383.94062240045497

   => Energetics <=

    Nuclear Repulsion Energy =            387.9172237310819469
    One-Electron Energy =               -1291.8893251449308082
    Two-Electron Energy =                 520.0314790133935503
    DFT Exchange-Correlation Energy =       0.0000000000000000
    Empirical Dispersion Energy =           0.0000000000000000
    PCM Polarization Energy =               0.0000000000000000
    EFP Energy =                            0.0000000000000000
    Total Energy =                       -383.9406224004552541
    Molecular point group: c1
  Basis Set: 6-31G*
  Basis Set:

  -Total Gradient:
     Atom            X                  Y                   Z
    ------   -----------------  -----------------  -----------------
       1       -0.000051449328    -0.000019791916    -0.000040056274
       2        0.000021009291     0.000009443936     0.000016526304
       3       -0.001391892371    -0.001963013951     0.001259165175
       4       -0.000000235359    -0.000003289119     0.000006834162
       5       -0.000813489885    -0.001112365359     0.002113870212
       6        0.001287058874     0.001797217082    -0.001347787204
       7       -0.000004602726    -0.000001351948    -0.000018462902
       8        0.000044851298    -0.000006059762    -0.000016253293
       9        0.000935152112     0.001281135396    -0.001980780404
      10        0.000007413742     0.000011995238    -0.000017162440
      11        0.000000361021     0.000012306086     0.000011742221
      12       -0.000014996675    -0.000016064593     0.000010821018
      13       -0.000006288480    -0.000004115021     0.000009349675
      14       -0.000006776688    -0.000001270868     0.000007455820
      15       -0.000004252598     0.000014407485    -0.000004112195
      16        0.000003591228    -0.000001813562    -0.000009341029
      17       -0.000003573083     0.000002692333     0.000002350166
      18       -0.000000254139     0.000000745756    -0.000002257017
      19       -0.000002472781    -0.000000694519    -0.000001281820
      20        0.000000846544    -0.000000112697    -0.000000620179

  **** Optimization is complete! (in 7 steps) ****
    Final optimized geometry and variables:
    Molecular point group: c1

    Geometry (in Angstrom), charge = 0, multiplicity = 1:

    O            0.979030135984     0.985345849962     0.395378892295
    C            0.887919634038    -0.199975939858     0.368175812621
    C           -0.401587472841    -0.989287463536     0.378848444516
    O            1.940435658443    -1.006569077616     0.329069828733
    C           -1.653901096205    -0.111915736666     0.346708784167
    H           -0.363198233562    -1.655984402807    -0.477835772915
    H           -0.376682936006    -1.621799997150     1.261025758275
    C           -2.012454480438     0.372426453422    -1.060723044391
    H           -1.496306274557     0.752886107295     0.981285121612
    H           -2.488570457578    -0.673096411245     0.757831883779
    C           -3.246417195929     1.273061073921    -1.075926684123
    H           -1.167799499561     0.911943296718    -1.478889142243
    H           -2.185473186619    -0.487785318108    -1.704933419398
    H           -3.088901487269     2.160464760586    -0.470108959413
    H           -3.482160689042     1.598519261206    -2.084335757941
    H           -4.117036072085     0.754271655368    -0.683855075715
    C            3.218670280973    -0.396961281083     0.323715554943
    H            3.333133684104     0.237583204432    -0.543290513778
    H            3.931263815405    -1.206316886659     0.291547623953
    H            3.362062355816     0.193071740721     1.217436002612

  Mulliken Charges: (a.u.)
   Center  Symbol    Alpha    Beta     Spin     Total
       1     O     4.28669  4.28669  0.00000 -0.57338
       2     C     2.60811  2.60811  0.00000  0.78378
       3     C     3.20836  3.20836  0.00000 -0.41673
       4     O     4.30629  4.30629  0.00000 -0.61259
       5     C     3.15586  3.15586  0.00000 -0.31172
       6     H     0.40027  0.40027  0.00000  0.19945
       7     H     0.39744  0.39744  0.00000  0.20512
       8     C     3.15595  3.15595  0.00000 -0.31190
       9     H     0.40488  0.40488  0.00000  0.19024
      10     H     0.41935  0.41935  0.00000  0.16131
      11     C     3.24037  3.24037  0.00000 -0.48075
      12     H     0.41184  0.41184  0.00000  0.17633
      13     H     0.42579  0.42579  0.00000  0.14842
      14     H     0.41810  0.41810  0.00000  0.16380
      15     H     0.41893  0.41893  0.00000  0.16215
      16     H     0.42318  0.42318  0.00000  0.15365
      17     C     3.09232  3.09232  0.00000 -0.18463
      18     H     0.40899  0.40899  0.00000  0.18202
      19     H     0.40832  0.40832  0.00000  0.18337
      20     H     0.40897  0.40897  0.00000  0.18207

   Total alpha = 32.00000, Total beta = 32.00000, Total charge =  0.00000
