  ==> Input File <==

--------------------------------------------------------------------------
set {
	reference rhf
	basis 6-31G*
}

set_num_threads( 4 )
memory 2 gb

molecule MOL {
0 1

O	 2.862325	 1.357334	 0.000267
C	 2.843464	 0.164689	 -0.000222
C	 1.546494	 -0.624492	 -0.000609
C	 4.124123	 -0.644674	 -0.000428
C	 0.291004	 0.242674	 0.000989
H	 1.557904	 -1.283758	 -0.867573
H	 1.558622	 -1.285963	 0.864672
C	 -0.994322	 -0.586602	 0.000262
H	 0.309117	 0.896430	 -0.865270
H	 0.309661	 0.894078	 0.869017
C	 -2.259874	 0.272531	 0.000494
H	 -1.004862	 -1.240012	 -0.870939
H	 -1.005220	 -1.241071	 0.870675
C	 -3.471197	 -0.433814	 -0.610888
H	 -2.068440	 1.194614	 -0.545524
H	 -2.493873	 0.567468	 1.021892
C	 -4.731405	 0.430792	 -0.607274
H	 -3.238909	 -0.728059	 -1.632302
H	 -3.664472	 -1.354941	 -0.064968
H	 -4.581101	 1.345056	 -1.174443
H	 -5.572173	 -0.096720	 -1.047208
H	 -5.010364	 0.712778	 0.404067
H	 4.165367	 -1.288615	 -0.874074
H	 4.976217	 0.020734	 -0.001915
H	 4.166763	 -1.286207	 0.874930

	symmetry c1
}
set optking {
	frozen_dihedral = ("
		15 11 8 12
	")
}

ee = optimize('scf')
oeprop('DIPOLE', 'QUADRUPOLE', 'MULLIKEN_CHARGES')
f=open( 'psi4out.xyz', 'w' )
f.write( "25  " )
f.write( str(ee) + "\n" )
f.write( MOL.save_string_xyz() )
f.close()
--------------------------------------------------------------------------

    Molecular point group: c1
  Charge       = 0
  Multiplicity = 1
  Basis Set: 6-31G*
  Basis Set:
  @DF-RHF Final Energy:  -387.13437693837307
    Total Energy =                       -387.1343769383737481
    Molecular point group: c1
  Basis Set: 6-31G*
  Basis Set:
  Basis Set: 6-31G*
  Basis Set:
  @DF-RHF Final Energy:  -387.13457076171198
    Total Energy =                       -387.1345707617118705
  Basis Set: 6-31G*
  Basis Set:
  Basis Set: 6-31G*
  Basis Set:
  @DF-RHF Final Energy:  -387.13462919234735
    Total Energy =                       -387.1346291923468925
  Basis Set: 6-31G*
  Basis Set:
  Basis Set: 6-31G*
  Basis Set:
  @DF-RHF Final Energy:  -387.13429159056881
    Total Energy =                       -387.1342915905689779
  Basis Set: 6-31G*
  Basis Set:
  Basis Set: 6-31G*
  Basis Set:
  @DF-RHF Final Energy:  -387.13465063317233
    Total Energy =                       -387.1346506331718729
  Basis Set: 6-31G*
  Basis Set:
  Basis Set: 6-31G*
  Basis Set:
  @DF-RHF Final Energy:  -387.13465253421316
    Total Energy =                       -387.1346525342130462
  Basis Set: 6-31G*
  Basis Set:
  Charge       = 0
  Multiplicity = 1
  Basis Set: 6-31G*
  Basis Set:

    Orbital Energies (a.u.)
    -----------------------

    Doubly Occupied:

       1A    -20.550537     2A    -11.326392     3A    -11.231920
       4A    -11.228396     5A    -11.217322     6A    -11.216506
       7A    -11.215724     8A    -11.213316     9A    -11.208307
      10A     -1.395847    11A     -1.093072    12A     -1.056312
      13A     -1.014531    14A     -0.968921    15A     -0.890976
      16A     -0.815098    17A     -0.791230    18A     -0.730137
      19A     -0.658679    20A     -0.652094    21A     -0.632092
      22A     -0.623346    23A     -0.597028    24A     -0.584026
      25A     -0.566550    26A     -0.560346    27A     -0.539466
      28A     -0.527855    29A     -0.511672    30A     -0.490121
      31A     -0.487466    32A     -0.474766    33A     -0.464748
      34A     -0.457777    35A     -0.451125    36A     -0.399524

  @DF-RHF Final Energy:  -387.13465327491286

   => Energetics <=

    Nuclear Repulsion Energy =            438.3573654373387285
    One-Electron Energy =               -1393.2975807466275455
    Two-Electron Energy =                 567.8055620343761802
    DFT Exchange-Correlation Energy =       0.0000000000000000
    Empirical Dispersion Energy =           0.0000000000000000
    PCM Polarization Energy =               0.0000000000000000
    EFP Energy =                            0.0000000000000000
    Total Energy =                       -387.1346532749125799
    Molecular point group: c1
  Basis Set: 6-31G*
  Basis Set:

  -Total Gradient:
     Atom            X                  Y                   Z
    ------   -----------------  -----------------  -----------------
       1       -0.000000586799     0.000000506271    -0.000008473578
       2        0.000006371547    -0.000009446133     0.000019469695
       3        0.000009311658     0.000005309359    -0.000011684425
       4        0.000006049003     0.000003228751    -0.000004411428
       5       -0.000012135693    -0.000016742361     0.000023554138
       6       -0.000002746240     0.000000606422     0.000001807593
       7        0.000000034628     0.000005284593    -0.000001797092
       8        0.002504838024     0.003779986376    -0.001781194403
       9       -0.000013959586    -0.000005419351     0.000003918052
      10        0.000004278550    -0.000002806246    -0.000000413664
      11       -0.001894523485    -0.002759096743    -0.003576421357
      12       -0.001798251011    -0.002717760674     0.002057876622
      13        0.000019186222     0.000007469265     0.000015217380
      14        0.000010589815     0.000019578914     0.000011375049
      15        0.001194407744     0.001693669395     0.003245739706
      16       -0.000019261664    -0.000007956921     0.000003827172
      17       -0.000015067678    -0.000006087428     0.000003132112
      18        0.000004990668     0.000013428892     0.000007605674
      19        0.000001178040    -0.000002001505    -0.000005798602
      20        0.000002643358    -0.000007170466     0.000000008238
      21       -0.000011427293     0.000004491405     0.000001495200
      22        0.000001121521     0.000001408163    -0.000001753224
      23        0.000001310939    -0.000000478906    -0.000000840823
      24        0.000003213442    -0.000001385620    -0.000000474768
      25       -0.000001565708     0.000001384544    -0.000001763268

  **** Optimization is complete! (in 7 steps) ****
    Final optimized geometry and variables:
    Molecular point group: c1

    Geometry (in Angstrom), charge = 0, multiplicity = 1:

    O            2.858994043921     1.325567626613     0.136402238401
    C            2.834598468321     0.133232640915     0.158666892028
    C            1.534386455071    -0.650340721641     0.137854942694
    C            4.110934421653    -0.681311920074     0.209488042307
    C            0.283738109951     0.222056969360     0.088723756452
    H            1.565755124620    -1.325695589211    -0.716203860710
    H            1.519825246363    -1.295515564527     1.015227808759
    C           -1.004577100846    -0.599417942889     0.057486622309
    H            0.331239350519     0.864584773878    -0.784551901590
    H            0.277122106385     0.884779555451     0.948691205552
    C           -2.275814343500     0.260183002002     0.077836484100
    H           -1.016905001928    -1.253455836083    -0.813230528001
    H           -1.024668498889    -1.272228011647     0.913911906526
    C           -3.508893084718    -0.453320462579    -0.475598069256
    H           -2.102649511000     1.187414326984    -0.465416793637
    H           -2.473130815950     0.568331110013     1.103364381909
    C           -4.780516299213     0.388718225550    -0.381296054751
    H           -3.330518965945    -0.723456715269    -1.514191640482
    H           -3.654146829851    -1.388600681727     0.061631487477
    H           -4.675642358432     1.318982746172    -0.932452333722
    H           -5.635535989801    -0.142252080640    -0.788350486564
    H           -5.008255421839     0.641019498481     0.650478948943
    H            4.172967236075    -1.342569662722    -0.649876073474
    H            4.965902776716    -0.019667452714     0.218267691092
    H            4.126599762621    -1.305583149511     1.098128683196

  Mulliken Charges: (a.u.)
   Center  Symbol    Alpha    Beta     Spin     Total
       1     O     4.26117  4.26117  0.00000 -0.52234
       2     C     2.73569  2.73569  0.00000  0.52863
       3     C     3.21118  3.21118  0.00000 -0.42235
       4     C     3.28664  3.28664  0.00000 -0.57328
       5     C     3.14875  3.14875  0.00000 -0.29750
       6     H     0.40981  0.40981  0.00000  0.18037
       7     H     0.40992  0.40992  0.00000  0.18016
       8     C     3.15508  3.15508  0.00000 -0.31017
       9     H     0.41164  0.41164  0.00000  0.17672
      10     H     0.41203  0.41203  0.00000  0.17594
      11     C     3.15197  3.15197  0.00000 -0.30394
      12     H     0.42419  0.42419  0.00000  0.15162
      13     H     0.42436  0.42436  0.00000  0.15129
      14     C     3.15217  3.15217  0.00000 -0.30434
      15     H     0.42097  0.42097  0.00000  0.15805
      16     H     0.42255  0.42255  0.00000  0.15490
      17     C     3.23971  3.23971  0.00000 -0.47942
      18     H     0.42290  0.42290  0.00000  0.15419
      19     H     0.42344  0.42344  0.00000  0.15312
      20     H     0.42098  0.42098  0.00000  0.15803
      21     H     0.41949  0.41949  0.00000  0.16103
      22     H     0.42151  0.42151  0.00000  0.15697
      23     H     0.40872  0.40872  0.00000  0.18256
      24     H     0.39645  0.39645  0.00000  0.20710
      25     H     0.40868  0.40868  0.00000  0.18263

   Total alpha = 36.00000, Total beta = 36.00000, Total charge =  0.00000
