  ==> Input File <==

--------------------------------------------------------------------------
set {
	reference rhf
	basis 6-31G*
}

set_num_threads( 4 )
memory 2 gb

molecule MOL {
0 1

O	 0.749854	 1.307668	 -0.000040
C	 0.576249	 0.131685	 -0.000108
C	 -0.766779	 -0.556801	 -0.000461
O	 1.568443	 -0.749345	 -0.000005
C	 -1.945214	 0.412366	 0.000161
H	 -0.796911	 -1.211249	 -0.867467
H	 -0.796854	 -1.212390	 0.865687
C	 -1.562234	 1.781453	 -0.559746
H	 -2.321103	 0.518268	 1.012136
H	 -2.757256	 -0.011138	 -0.581050
H	 -0.770561	 2.241040	 0.025478
H	 -2.412762	 2.455184	 -0.550151
H	 -1.212639	 1.705926	 -1.585686
C	 2.886820	 -0.232538	 0.000322
H	 3.059106	 0.369571	 -0.880203
H	 3.540187	 -1.091012	 0.000050
H	 3.059019	 0.368956	 0.881266

	symmetry c1
}
set optking {
	frozen_dihedral = ("
		9 5 3 6
	")
}

ee = optimize('scf')
oeprop('DIPOLE', 'QUADRUPOLE', 'MULLIKEN_CHARGES')
f=open( 'psi4out.xyz', 'w' )
f.write( "17  " )
f.write( str(ee) + "\n" )
f.write( MOL.save_string_xyz() )
f.close()
--------------------------------------------------------------------------

    Molecular point group: c1
  Charge       = 0
  Multiplicity = 1
  Basis Set: 6-31G*
  Basis Set:
  @DF-RHF Final Energy:  -344.87569290495549
    Total Energy =                       -344.8756929049555424
    Molecular point group: c1
  Basis Set: 6-31G*
  Basis Set:
  Basis Set: 6-31G*
  Basis Set:
  @DF-RHF Final Energy:  -344.89261227534769
    Total Energy =                       -344.8926122753480286
  Basis Set: 6-31G*
  Basis Set:
  Basis Set: 6-31G*
  Basis Set:
  @DF-RHF Final Energy:  -344.89636401336088
    Total Energy =                       -344.8963640133607669
  Basis Set: 6-31G*
  Basis Set:
  Basis Set: 6-31G*
  Basis Set:
  @DF-RHF Final Energy:  -344.89281601489785
    Total Energy =                       -344.8928160148977895
  Basis Set: 6-31G*
  Basis Set:
  @DF-RHF Final Energy:  -344.89826990699316
    Total Energy =                       -344.8982699069931073
  @DF-RHF Final Energy:  -344.89888734654681
    Total Energy =                       -344.8988873465470988
  @DF-RHF Final Energy:  -344.89952209581509
    Total Energy =                       -344.8995220958149730
  @DF-RHF Final Energy:  -344.89979129992162
    Total Energy =                       -344.8997912999218443
  @DF-RHF Final Energy:  -344.89987350845672
    Total Energy =                       -344.8998735084562668
  Basis Set: 6-31G*
  Basis Set:
  @DF-RHF Final Energy:  -344.89988898307831
    Total Energy =                       -344.8998889830787675
  Basis Set: 6-31G*
  Basis Set:
  Basis Set: 6-31G*
  Basis Set:
  @DF-RHF Final Energy:  -344.89989353047724
    Total Energy =                       -344.8998935304772431
  Basis Set: 6-31G*
  Basis Set:
  Basis Set: 6-31G*
  Basis Set:
  @DF-RHF Final Energy:  -344.89989554918304
    Total Energy =                       -344.8998955491833271
  Basis Set: 6-31G*
  Basis Set:
  Charge       = 0
  Multiplicity = 1
  Basis Set: 6-31G*
  Basis Set:

    Orbital Energies (a.u.)
    -----------------------

    Doubly Occupied:

       1A    -20.606034     2A    -20.543146     3A    -11.373263
       4A    -11.281202     5A    -11.235533     6A    -11.227643
       7A    -11.208312     8A     -1.470352     9A     -1.362301
      10A     -1.076535    11A     -0.999172    12A     -0.941130
      13A     -0.832912    14A     -0.767217    15A     -0.694497
      16A     -0.680909    17A     -0.670620    18A     -0.628639
      19A     -0.609702    20A     -0.573778    21A     -0.557292
      22A     -0.532477    23A     -0.525151    24A     -0.497439
      25A     -0.483766    26A     -0.474828    27A     -0.455297
      28A     -0.433469

  @DF-RHF Final Energy:  -344.89989646440421

   => Energetics <=

    Nuclear Repulsion Energy =            319.2527145415718337
    One-Electron Energy =               -1102.8199884088944600
    Two-Electron Energy =                 438.6673774029186461
    DFT Exchange-Correlation Energy =       0.0000000000000000
    Empirical Dispersion Energy =           0.0000000000000000
    PCM Polarization Energy =               0.0000000000000000
    EFP Energy =                            0.0000000000000000
    Total Energy =                       -344.8998964644040370
    Molecular point group: c1
  Basis Set: 6-31G*
  Basis Set:

  -Total Gradient:
     Atom            X                  Y                   Z
    ------   -----------------  -----------------  -----------------
       1       -0.000047470286     0.000051800021    -0.000038644558
       2       -0.000009976255    -0.000033264174     0.000098514789
       3        0.004132485566     0.003764807891    -0.005092330718
       4        0.000020585542     0.000003994283    -0.000058213827
       5        0.004455039780     0.005365791534     0.001759386441
       6       -0.004112997910    -0.003951706503     0.003868246654
       7       -0.000012481074     0.000008693537     0.000020279959
       8       -0.000009045489    -0.000087727038     0.000029981637
       9       -0.004411771590    -0.005155532379    -0.000616890340
      10       -0.000043141015    -0.000007737407     0.000015781091
      11        0.000021557017     0.000026000879     0.000022764527
      12        0.000025032351     0.000030009322    -0.000010259955
      13        0.000003114242    -0.000010691664    -0.000023511068
      14        0.000019693412    -0.000006066464     0.000039732921
      15       -0.000019084880    -0.000000302549    -0.000005696714
      16       -0.000017828015    -0.000000784712    -0.000006025039
      17        0.000006288598     0.000002715422    -0.000003115799

  **** Optimization is complete! (in 13 steps) ****
    Final optimized geometry and variables:
    Molecular point group: c1

    Geometry (in Angstrom), charge = 0, multiplicity = 1:

    O            0.605090108941     0.729923330819     0.971611046412
    C            0.345442771226    -0.223012433385     0.307820362651
    C           -1.035225525830    -0.809631954775     0.153388794406
    O            1.262328092866    -0.921779720398    -0.345421270996
    C           -2.185053330454     0.204649526484    -0.023715212346
    H           -1.048314882981    -1.560785112417    -0.625222896288
    H           -1.205801130484    -1.362884355223     1.074999784513
    C           -1.855558368729     1.465553910878    -0.821068019650
    H           -2.608999895937     0.450363843167     0.943543801095
    H           -2.979743106000    -0.328094297006    -0.540031150768
    H           -1.144566169839     2.093733523341    -0.301729929783
    H           -2.757316040233     2.044640698931    -0.992313360637
    H           -1.439395055650     1.213535030241    -1.793537454358
    C            2.606782905961    -0.495256508864    -0.215192727559
    H            2.721882384787     0.513219204625    -0.585202165845
    H            3.191958744211    -1.180918157194    -0.807845832404
    H            2.918492028108    -0.532282218148     0.818666792749

  Mulliken Charges: (a.u.)
   Center  Symbol    Alpha    Beta     Spin     Total
       1     O     4.28812  4.28812  0.00000 -0.57624
       2     C     2.60586  2.60586  0.00000  0.78828
       3     C     3.21286  3.21286  0.00000 -0.42572
       4     O     4.30404  4.30404  0.00000 -0.60809
       5     C     3.14923  3.14923  0.00000 -0.29845
       6     H     0.39897  0.39897  0.00000  0.20206
       7     H     0.39863  0.39863  0.00000  0.20273
       8     C     3.25227  3.25227  0.00000 -0.50453
       9     H     0.41214  0.41214  0.00000  0.17572
      10     H     0.41807  0.41807  0.00000  0.16387
      11     H     0.39962  0.39962  0.00000  0.20075
      12     H     0.41838  0.41838  0.00000  0.16324
      13     H     0.42312  0.42312  0.00000  0.15375
      14     C     3.09320  3.09320  0.00000 -0.18640
      15     H     0.40839  0.40839  0.00000  0.18322
      16     H     0.40829  0.40829  0.00000  0.18342
      17     H     0.40880  0.40880  0.00000  0.18240

   Total alpha = 28.00000, Total beta = 28.00000, Total charge =  0.00000
