  ==> Input File <==

--------------------------------------------------------------------------
set {
	reference rhf
	basis 6-31G*
}

set_num_threads( 1 )
memory 2 gb

molecule MOL {
0 1

H	 3.474425	 -0.978243	 0.795736
O	 2.826016	 -1.159218	 0.122261
C	 2.077727	 -0.067559	 -0.035091
C	 0.624473	 -0.343591	 0.253101
O	 2.542965	 0.974826	 -0.363729
C	 -0.265902	 0.883932	 0.072916
H	 0.324016	 -1.163849	 -0.390541
H	 0.565024	 -0.726111	 1.268924
C	 -1.728698	 0.646073	 0.462102
H	 -0.209144	 1.219470	 -0.958188
H	 0.135059	 1.692851	 0.673903
C	 -2.482460	 -0.343073	 -0.431425
H	 -2.245265	 1.602650	 0.432430
H	 -1.779332	 0.308348	 1.496285
C	 -3.960546	 -0.461025	 -0.060175
H	 -2.395034	 -0.026811	 -1.468912
H	 -2.024850	 -1.327147	 -0.371646
H	 -4.472726	 -1.168004	 -0.705284
H	 -4.465146	 0.496508	 -0.151489
H	 -4.081218	 -0.800940	 0.964585

	symmetry c1
}
set optking {
	frozen_dihedral = ("
		16 12 9 6,
		7 4 6 10,
		12 9 6 10,
		5 3 4 7
	")
}

ee = energy('scf')
oeprop('DIPOLE', 'QUADRUPOLE', 'MULLIKEN_CHARGES')
f=open( 'psi4out.xyz', 'w' )
f.write( "20  " )
f.write( str(ee) + "\n" )
f.write( MOL.save_string_xyz() )
f.close()
--------------------------------------------------------------------------

    Molecular point group: c1

    Geometry (in Angstrom), charge = 0, multiplicity = 1:

       Center              X                  Y                   Z               Mass
    ------------   -----------------  -----------------  -----------------  -----------------
           H          3.476639426666    -0.977809295165     0.788214808884     1.007825032070
           O          2.828230426666    -1.158784295165     0.114739808884    15.994914619560
           C          2.079941426666    -0.067125295165    -0.042612191116    12.000000000000
           C          0.626687426666    -0.343157295165     0.245579808884    12.000000000000
           O          2.545179426666     0.975259704835    -0.371250191116    15.994914619560
           C         -0.263687573334     0.884365704835     0.065394808884    12.000000000000
           H          0.326230426666    -1.163415295165    -0.398062191116     1.007825032070
           H          0.567238426666    -0.725677295165     1.261402808884     1.007825032070
           C         -1.726483573334     0.646506704835     0.454580808884    12.000000000000
           H         -0.206929573334     1.219903704835    -0.965709191116     1.007825032070
           H          0.137273426666     1.693284704835     0.666381808884     1.007825032070
           C         -2.480245573334    -0.342639295165    -0.438946191116    12.000000000000
           H         -2.243050573334     1.603083704835     0.424908808884     1.007825032070
           H         -1.777117573334     0.308781704835     1.488763808884     1.007825032070
           C         -3.958331573334    -0.460591295165    -0.067696191116    12.000000000000
           H         -2.392819573334    -0.026377295165    -1.476433191116     1.007825032070
           H         -2.022635573334    -1.326713295165    -0.379167191116     1.007825032070
           H         -4.470511573334    -1.167570295165    -0.712805191116     1.007825032070
           H         -4.462931573334     0.496941704835    -0.159010191116     1.007825032070
           H         -4.079003573334    -0.800506295165     0.957063808884     1.007825032070

  Charge       = 0
  Multiplicity = 1
  Basis Set: 6-31G*
  Basis Set:

    Orbital Energies (a.u.)
    -----------------------

    Doubly Occupied:

       1A    -20.601398     2A    -20.557051     3A    -11.380125
       4A    -11.239843     5A    -11.222449     6A    -11.220791
       7A    -11.220203     8A    -11.212579     9A     -1.470545
      10A     -1.366941    11A     -1.095933    12A     -1.040111
      13A     -0.959375    14A     -0.866652    15A     -0.816542
      16A     -0.780065    17A     -0.707494    18A     -0.684866
      19A     -0.660720    20A     -0.640252    21A     -0.612302
      22A     -0.586035    23A     -0.566285    24A     -0.555927
      25A     -0.525823    26A     -0.515069    27A     -0.493732
      28A     -0.490893    29A     -0.469819    30A     -0.464032
      31A     -0.457704    32A     -0.442968

  @DF-RHF Final Energy:  -383.93228480864559

   => Energetics <=

    Nuclear Repulsion Energy =            375.9597555217267200
    One-Electron Energy =               -1267.9350250444729227
    Two-Electron Energy =                 508.0429847141010100
    DFT Exchange-Correlation Energy =       0.0000000000000000
    Empirical Dispersion Energy =           0.0000000000000000
    PCM Polarization Energy =               0.0000000000000000
    EFP Energy =                            0.0000000000000000
    Total Energy =                       -383.9322848086451927

  Mulliken Charges: (a.u.)
   Center  Symbol    Alpha    Beta     Spin     Total
       1     H     0.26513  0.26513  0.00000  0.46975
       2     O     4.35663  4.35663  0.00000 -0.71327
       3     C     2.63247  2.63247  0.00000  0.73506
       4     C     3.21131  3.21131  0.00000 -0.42262
       5     O     4.26053  4.26053  0.00000 -0.52106
       6     C     3.15503  3.15503  0.00000 -0.31005
       7     H     0.39617  0.39617  0.00000  0.20765
       8     H     0.40521  0.40521  0.00000  0.18959
       9     C     3.15525  3.15525  0.00000 -0.31050
      10     H     0.41156  0.41156  0.00000  0.17689
      11     H     0.40969  0.40969  0.00000  0.18062
      12     C     3.15479  3.15479  0.00000 -0.30958
      13     H     0.41802  0.41802  0.00000  0.16395
      14     H     0.42466  0.42466  0.00000  0.15068
      15     C     3.23919  3.23919  0.00000 -0.47839
      16     H     0.42107  0.42107  0.00000  0.15786
      17     H     0.42283  0.42283  0.00000  0.15435
      18     H     0.41822  0.41822  0.00000  0.16357
      19     H     0.42061  0.42061  0.00000  0.15877
      20     H     0.42164  0.42164  0.00000  0.15672

   Total alpha = 32.00000, Total beta = 32.00000, Total charge =  0.00000
