  ==> Input File <==

--------------------------------------------------------------------------
set {
	reference rhf
	basis cc-pvtz
}

set_num_threads( 4 )
memory 2 gb

molecule MOL {
0 1

H	 -1.835082	 1.385983	 0.000069
C	 -1.300516	 0.441153	 -0.000028
O	 -0.006604	 0.654344	 -0.000106
O	 -1.828920	 -0.612308	 0.000113
C	 0.469473	 1.839934	 0.630411
C	 1.973884	 1.859407	 0.499767
H	 0.158779	 1.833898	 1.665491
H	 0.016155	 2.696262	 0.151696
H	 2.413772	 0.994633	 0.980014
H	 2.368882	 2.751580	 0.970785
H	 2.270435	 1.861305	 -0.541397

	symmetry c1
}
set optking {
	frozen_dihedral = ("
		5 3 2 4
	")
}

ee = optimize('scf')
oeprop('DIPOLE', 'QUADRUPOLE', 'MULLIKEN_CHARGES')
f=open( 'psi4out.xyz', 'w' )
f.write( "11  " )
f.write( str(ee) + "\n" )
f.write( MOL.save_string_xyz() )
f.close()
--------------------------------------------------------------------------

    Molecular point group: c1
  Charge       = 0
  Multiplicity = 1
  Basis Set: CC-PVTZ
  Basis Set:
  @DF-RHF Final Energy:  -266.92018062363223
    Total Energy =                       -266.9201806236322341
    Molecular point group: c1
  Basis Set: CC-PVTZ
  Basis Set:
  Basis Set: CC-PVTZ
  Basis Set:
  @DF-RHF Final Energy:  -266.92113592043484
    Total Energy =                       -266.9211359204349492
  Basis Set: CC-PVTZ
  Basis Set:
  Basis Set: CC-PVTZ
  Basis Set:
  @DF-RHF Final Energy:  -266.92110143021864
    Total Energy =                       -266.9211014302186413
  Basis Set: CC-PVTZ
  Basis Set:
  Basis Set: CC-PVTZ
  Basis Set:
  @DF-RHF Final Energy:  -266.92144410857526
    Total Energy =                       -266.9214441085750877
  Basis Set: CC-PVTZ
  Basis Set:
  Basis Set: CC-PVTZ
  Basis Set:
  @DF-RHF Final Energy:  -266.92146220631270
    Total Energy =                       -266.9214622063126399
  Basis Set: CC-PVTZ
  Basis Set:
  Basis Set: CC-PVTZ
  Basis Set:
  @DF-RHF Final Energy:  -266.92146344166952
    Total Energy =                       -266.9214634416694025
  Basis Set: CC-PVTZ
  Basis Set:
  Charge       = 0
  Multiplicity = 1
  Basis Set: CC-PVTZ
  Basis Set:

    Orbital Energies (a.u.)
    -----------------------

    Doubly Occupied:

       1A    -20.602119     2A    -20.547589     3A    -11.372168
       4A    -11.304329     5A    -11.231510     6A     -1.475571
       7A     -1.384096     8A     -1.055606     9A     -0.889995
      10A     -0.846348    11A     -0.742138    12A     -0.695247
      13A     -0.667210    14A     -0.617639    15A     -0.572149
      16A     -0.558338    17A     -0.537810    18A     -0.517539
      19A     -0.463283    20A     -0.453792

  @DF-RHF Final Energy:  -266.92146381410055

   => Energetics <=

    Nuclear Repulsion Energy =            176.6916559621644467
    One-Electron Energy =                -714.1572911828661745
    Two-Electron Energy =                 270.5441714066012082
    DFT Exchange-Correlation Energy =       0.0000000000000000
    Empirical Dispersion Energy =           0.0000000000000000
    PCM Polarization Energy =               0.0000000000000000
    EFP Energy =                            0.0000000000000000
    Total Energy =                       -266.9214638141005480
    Molecular point group: c1
  Basis Set: CC-PVTZ
  Basis Set:

  -Total Gradient:
     Atom            X                  Y                   Z
    ------   -----------------  -----------------  -----------------
       1       -0.000002145068    -0.000009330159     0.000000441290
       2        0.000791755478    -0.001595126987    -0.005133733032
       3        0.000205536679     0.002401206584    -0.002792897553
       4       -0.000670600245     0.000605186758     0.004562408105
       5       -0.000313011293    -0.001389222753     0.003386943327
       6       -0.000013935274    -0.000010981054    -0.000013141375
       7        0.000006807325     0.000015053063     0.000000590660
       8        0.000010037687    -0.000011247693    -0.000006079753
       9       -0.000000537317    -0.000000973316     0.000001710037
      10       -0.000016587324    -0.000005066430    -0.000000081703
      11        0.000002679348     0.000000501982    -0.000006160003

  **** Optimization is complete! (in 7 steps) ****
    Final optimized geometry and variables:
    Molecular point group: c1

    Geometry (in Angstrom), charge = 0, multiplicity = 1:

    H           -1.670747085880     0.574989930854    -0.485364112076
    C           -1.160022045242    -0.370686439800    -0.296648431042
    O            0.142741317340    -0.241636342957    -0.116709508835
    O           -1.721559209088    -1.398637405088    -0.252594387815
    C            0.621229810397     0.968989944163     0.440606499029
    C            2.114359192461     1.038445577316     0.222883425585
    H            0.384433424758     0.984199697734     1.497672143174
    H            0.124302424498     1.810693578856    -0.030919600923
    H            2.604810361047     0.193606458478     0.687877815066
    H            2.507647713596     1.949282733847     0.658176915603
    H            2.346532979914     1.031071385289    -0.834241141791

  Mulliken Charges: (a.u.)
   Center  Symbol    Alpha    Beta     Spin     Total
       1     H     0.47605  0.47605  0.00000  0.04790
       2     C     2.84362  2.84362  0.00000  0.31277
       3     O     4.12976  4.12976  0.00000 -0.25953
       4     O     4.17218  4.17218  0.00000 -0.34436
       5     C     2.97682  2.97682  0.00000  0.04636
       6     C     3.13254  3.13254  0.00000 -0.26507
       7     H     0.45651  0.45651  0.00000  0.08698
       8     H     0.46318  0.46318  0.00000  0.07364
       9     H     0.44501  0.44501  0.00000  0.10997
      10     H     0.45542  0.45542  0.00000  0.08915
      11     H     0.44890  0.44890  0.00000  0.10219

   Total alpha = 20.00000, Total beta = 20.00000, Total charge =  0.00000
