  ==> Input File <==

--------------------------------------------------------------------------
set {
	reference rhf
	basis 6-31G*
}

set_num_threads( 1 )
memory 2 gb

molecule MOL {
0 1

O	 -3.540011	 -0.150970	 -0.759555
C	 -2.668563	 0.129746	 -0.000350
C	 -2.792061	 1.187867	 1.065669
O	 -1.481751	 -0.454642	 0.000584
H	 -3.620698	 0.932301	 1.715215
H	 -1.886194	 1.282837	 1.646034
H	 -3.026757	 2.133473	 0.591721
C	 -0.334255	 0.388708	 0.000906
C	 0.891947	 -0.504646	 0.000751
H	 -0.365390	 1.025305	 -0.873475
H	 -0.365484	 1.024911	 0.875569
C	 2.191998	 0.301789	 0.000897
H	 0.855148	 -1.151283	 -0.871571
H	 0.855132	 -1.151660	 0.872805
C	 3.441114	 -0.581407	 0.000108
H	 2.215074	 0.954890	 -0.869742
H	 2.215465	 0.953923	 0.872248
C	 4.739576	 0.224112	 -0.001102
H	 3.419457	 -1.233487	 -0.870178
H	 3.420834	 -1.233096	 0.870717
H	 4.804918	 0.861552	 -0.878265
H	 5.606527	 -0.429058	 -0.001824
H	 4.806469	 0.861674	 0.875853

	symmetry c1
}
set optking {
	frozen_dihedral = ("
		13 9 8 10,
		2 4 8 10,
		16 12 9 13,
		19 15 12 16
	")
}

ee = energy('scf')
oeprop('DIPOLE', 'QUADRUPOLE', 'MULLIKEN_CHARGES')
f=open( 'psi4out.xyz', 'w' )
f.write( "23  " )
f.write( str(ee) + "\n" )
f.write( MOL.save_string_xyz() )
f.close()
--------------------------------------------------------------------------

    Molecular point group: c1

    Geometry (in Angstrom), charge = 0, multiplicity = 1:

       Center              X                  Y                   Z               Mass
    ------------   -----------------  -----------------  -----------------  -----------------
           O         -3.573808867894    -0.219666795868    -0.795288663808    15.994914619560
           C         -2.702360867894     0.061049204132    -0.036083663808    12.000000000000
           C         -2.825858867894     1.119170204132     1.029935336192    12.000000000000
           O         -1.515548867894    -0.523338795868    -0.035149663808    15.994914619560
           H         -3.654495867894     0.863604204132     1.679481336192     1.007825032070
           H         -1.919991867894     1.214140204132     1.610300336192     1.007825032070
           H         -3.060554867894     2.064776204132     0.555987336192     1.007825032070
           C         -0.368052867894     0.320011204132    -0.034827663808    12.000000000000
           C          0.858149132106    -0.573342795868    -0.034982663808    12.000000000000
           H         -0.399187867894     0.956608204132    -0.909208663808     1.007825032070
           H         -0.399281867894     0.956214204132     0.839835336192     1.007825032070
           C          2.158200132106     0.233092204132    -0.034836663808    12.000000000000
           H          0.821350132106    -1.219979795868    -0.907304663808     1.007825032070
           H          0.821334132106    -1.220356795868     0.837071336192     1.007825032070
           C          3.407316132106    -0.650103795868    -0.035625663808    12.000000000000
           H          2.181276132106     0.886193204132    -0.905475663808     1.007825032070
           H          2.181667132106     0.885226204132     0.836514336192     1.007825032070
           C          4.705778132106     0.155415204132    -0.036835663808    12.000000000000
           H          3.385659132106    -1.302183795868    -0.905911663808     1.007825032070
           H          3.387036132106    -1.301792795868     0.834983336192     1.007825032070
           H          4.771120132106     0.792855204132    -0.913998663808     1.007825032070
           H          5.572729132106    -0.497754795868    -0.037557663808     1.007825032070
           H          4.772671132106     0.792977204132     0.840119336192     1.007825032070

  Charge       = 0
  Multiplicity = 1
  Basis Set: 6-31G*
  Basis Set:

    Orbital Energies (a.u.)
    -----------------------

    Doubly Occupied:

       1A    -20.594404     2A    -20.545900     3A    -11.375692
       4A    -11.297680     5A    -11.234674     6A    -11.231350
       7A    -11.230185     8A    -11.226079     9A    -11.216761
      10A     -1.463816    11A     -1.366795    12A     -1.099082
      13A     -1.037714    14A     -1.014230    15A     -0.944005
      16A     -0.849441    17A     -0.809388    18A     -0.779556
      19A     -0.703129    20A     -0.693069    21A     -0.660386
      22A     -0.651615    23A     -0.621957    24A     -0.595607
      25A     -0.582799    26A     -0.578079    27A     -0.562694
      28A     -0.543497    29A     -0.522418    30A     -0.505453
      31A     -0.491247    32A     -0.482188    33A     -0.476369
      34A     -0.475194    35A     -0.453314    36A     -0.431263

  @DF-RHF Final Energy:  -422.95383441427111

   => Energetics <=

    Nuclear Repulsion Energy =            451.5957752801319884
    One-Electron Energy =               -1470.4051244116149064
    Two-Electron Energy =                 595.8555147172122588
    DFT Exchange-Correlation Energy =       0.0000000000000000
    Empirical Dispersion Energy =           0.0000000000000000
    PCM Polarization Energy =               0.0000000000000000
    EFP Energy =                            0.0000000000000000
    Total Energy =                       -422.9538344142706592

  Mulliken Charges: (a.u.)
   Center  Symbol    Alpha    Beta     Spin     Total
       1     O     4.26149  4.26149  0.00000 -0.52298
       2     C     2.61682  2.61682  0.00000  0.76637
       3     C     3.30395  3.30395  0.00000 -0.60790
       4     O     4.30977  4.30977  0.00000 -0.61955
       5     H     0.39213  0.39213  0.00000  0.21574
       6     H     0.40821  0.40821  0.00000  0.18359
       7     H     0.39684  0.39684  0.00000  0.20631
       8     C     3.00029  3.00029  0.00000 -0.00058
       9     C     3.16204  3.16204  0.00000 -0.32408
      10     H     0.41337  0.41337  0.00000  0.17326
      11     H     0.42104  0.42104  0.00000  0.15792
      12     C     3.16145  3.16145  0.00000 -0.32290
      13     H     0.40710  0.40710  0.00000  0.18579
      14     H     0.41135  0.41135  0.00000  0.17731
      15     C     3.15196  3.15196  0.00000 -0.30391
      16     H     0.42083  0.42083  0.00000  0.15835
      17     H     0.42246  0.42246  0.00000  0.15508
      18     C     3.24008  3.24008  0.00000 -0.48015
      19     H     0.41951  0.41951  0.00000  0.16097
      20     H     0.42055  0.42055  0.00000  0.15890
      21     H     0.42066  0.42066  0.00000  0.15868
      22     H     0.41683  0.41683  0.00000  0.16635
      23     H     0.42128  0.42128  0.00000  0.15744

   Total alpha = 36.00000, Total beta = 36.00000, Total charge = -0.00000
