                              Psi4 1.0.54 Driver

  ==> Input File <==

--------------------------------------------------------------------------
set {
	reference rhf
	basis cc-pvtz
}

set_num_threads( 4 )
memory 2 gb

molecule MOL {
0 1

H	 -3.258660	 -0.290394	 1.471450
C	 -3.307964	 -0.275695	 0.374072
C	 -2.653809	 0.914422	 -0.273689
O	 -3.855140	 -1.148880	 -0.205112
C	 -3.256232	 1.250750	 -1.641038
H	 -2.714983	 1.753841	 0.406729
H	 -1.603291	 0.661215	 -0.398604
C	 -4.695454	 1.756344	 -1.568946
H	 -2.633611	 2.002054	 -2.114562
H	 -3.208987	 0.372900	 -2.280836
C	 -5.278277	 2.097614	 -2.937754
H	 -4.730975	 2.635679	 -0.931282
H	 -5.323675	 1.011265	 -1.087675
C	 -6.713668	 2.614404	 -2.861405
H	 -4.642245	 2.835475	 -3.416678
H	 -5.250272	 1.213020	 -3.570216
C	 -7.368892	 2.892626	 -4.215353
H	 -6.737223	 3.520306	 -2.260097
H	 -7.317581	 1.883855	 -2.330470
C	 -6.742934	 4.040374	 -5.003981
H	 -8.417528	 3.117764	 -4.047826
H	 -7.346810	 1.987712	 -4.816974
H	 -6.745174	 4.957860	 -4.424145
H	 -5.718109	 3.829158	 -5.284707
H	 -7.297503	 4.226555	 -5.916535

	symmetry c1
}
set optking {
	frozen_dihedral = ("
		6 3 2 4
	")
}

ee,wfn = optimize('scf', return_wfn=True)
oeprop( wfn, 'DIPOLE', 'QUADRUPOLE', 'MULLIKEN_CHARGES')
f=open( 'psi4out.xyz', 'w' )
f.write( "25  " )
f.write( str(ee) + "\n" )
f.write( MOL.save_string_xyz() )
f.close()
--------------------------------------------------------------------------

    Molecular point group: c1
  Charge       = 0
  Multiplicity = 1
  Basis Set: CC-PVTZ
  Basis Set:
  @DF-RHF Final Energy:  -387.25986995462995
    Total Energy =                       -387.2598699546294938
    Molecular point group: c1
  Basis Set: CC-PVTZ
  Basis Set:
  Basis Set: CC-PVTZ
  Basis Set:
  @DF-RHF Final Energy:  -387.25839785600732
    Total Energy =                       -387.2583978560073774
  Basis Set: CC-PVTZ
  Basis Set:
  Basis Set: CC-PVTZ
  Basis Set:
  @DF-RHF Final Energy:  -387.26037121675688
    Total Energy =                       -387.2603712167566528
  Basis Set: CC-PVTZ
  Basis Set:
  Basis Set: CC-PVTZ
  Basis Set:
  @DF-RHF Final Energy:  -387.26062506868061
    Total Energy =                       -387.2606250686802696
  Basis Set: CC-PVTZ
  Basis Set:
  Basis Set: CC-PVTZ
  Basis Set:
  @DF-RHF Final Energy:  -387.26065458342265
    Total Energy =                       -387.2606545834223652
  Basis Set: CC-PVTZ
  Basis Set:
  Basis Set: CC-PVTZ
  Basis Set:
  @DF-RHF Final Energy:  -387.26065590164814
    Total Energy =                       -387.2606559016485335
  Basis Set: CC-PVTZ
  Basis Set:
  Charge       = 0
  Multiplicity = 1
  Basis Set: CC-PVTZ
  Basis Set:

    Orbital Energies (a.u.)
    -----------------------

    Doubly Occupied:

       1A    -20.552322     2A    -11.323074     3A    -11.235799
       4A    -11.221227     5A    -11.213794     6A    -11.212206
       7A    -11.210998     8A    -11.210258     9A    -11.205482
      10A     -1.408111    11A     -1.097894    12A     -1.065758
      13A     -1.011352    14A     -0.942879    15A     -0.877396
      16A     -0.818900    17A     -0.777971    18A     -0.764529
      19A     -0.689861    20A     -0.649053    21A     -0.630678
      22A     -0.627337    23A     -0.605504    24A     -0.591557
      25A     -0.567585    26A     -0.546614    27A     -0.533922
      28A     -0.523172    29A     -0.501794    30A     -0.497651
      31A     -0.483589    32A     -0.473413    33A     -0.459899
      34A     -0.454188    35A     -0.438099    36A     -0.413186

  @DF-RHF Final Energy:  -387.26065612179298

   => Energetics <=

    Nuclear Repulsion Energy =            443.4736454942709543
    One-Electron Energy =               -1403.7944977363217731
    Two-Electron Energy =                 573.0601961202579560
    DFT Exchange-Correlation Energy =       0.0000000000000000
    Empirical Dispersion Energy =           0.0000000000000000
    PCM Polarization Energy =               0.0000000000000000
    EFP Energy =                            0.0000000000000000
    Total Energy =                       -387.2606561217928629
    Molecular point group: c1
  Basis Set: CC-PVTZ
  Basis Set:

  -Total Gradient:
     Atom            X                  Y                   Z
    ------   -----------------  -----------------  -----------------
       1       -0.000038338476    -0.000023564212    -0.000060873482
       2       -0.002054047941     0.001314005294     0.000456421335
       3       -0.001331045678     0.000124485806    -0.000943803321
       4        0.001725239337    -0.000997819027    -0.000157734977
       5        0.000049061581    -0.000048786518     0.000034553070
       6        0.001721842057    -0.000406365238     0.000710175558
       7       -0.000018672943    -0.000006978315     0.000028857634
       8       -0.000014029254     0.000059296953    -0.000049154197
       9       -0.000027482590    -0.000007745795    -0.000001490822
      10       -0.000004093514     0.000002921552    -0.000049919211
      11       -0.000003671232     0.000009595223     0.000011284092
      12       -0.000003369308    -0.000008431006    -0.000007475831
      13       -0.000014075442    -0.000020819713     0.000019581596
      14        0.000014018202     0.000019958515    -0.000002066092
      15       -0.000002023093    -0.000012440896     0.000029613815
      16        0.000006015815     0.000005178194     0.000005156489
      17        0.000015677463    -0.000025244593    -0.000013584158
      18        0.000011660966     0.000005121628    -0.000006748497
      19       -0.000006825953     0.000006901493     0.000006390796
      20       -0.000006431237     0.000008905341    -0.000001539093
      21       -0.000001377539    -0.000010994807     0.000000784282
      22        0.000008023651    -0.000000654486    -0.000004442297
      23        0.000005847907     0.000005156032     0.000000818565
      24       -0.000026370260     0.000005563552    -0.000010622182
      25       -0.000005532523     0.000002755016     0.000005816928

  **** Optimization is complete! (in 7 steps) ****
    Final optimized geometry and variables:
    Molecular point group: c1

    Geometry (in Angstrom), charge = 0, multiplicity = 1:

    H            1.763158708892    -1.939880774656     3.525265686231
    C            1.614445075435    -1.881909504313     2.440217987810
    C            2.184402902202    -0.651078600889     1.781970854320
    O            1.088156887015    -2.773106025371     1.868226710856
    C            1.596577961679    -0.311974510781     0.416356595268
    H            2.109650523568     0.179923225380     2.477411405775
    H            3.251587446518    -0.852922707546     1.693908206542
    C            0.161626278393     0.207159003467     0.479383537978
    H            2.227982210281     0.437108741812    -0.051033545195
    H            1.637683931103    -1.193720465339    -0.211629239076
    C           -0.409559141128     0.544528547129    -0.895222809473
    H            0.129264760952     1.094360476344     1.108416535887
    H           -0.470651145000    -0.534956633852     0.956006275564
    C           -1.841605087349     1.072051147443    -0.831627407660
    H            0.234699190800     1.274272076541    -1.376050191571
    H           -0.384154926952    -0.345688255515    -1.518950349832
    C           -2.489379534082     1.338699315031    -2.191489081143
    H           -1.862547041756     1.985523043307    -0.241171587791
    H           -2.452446107374     0.351146643437    -0.295483670398
    C           -1.854527401354     2.475020309870    -2.989550531612
    H           -3.537996231187     1.570300581245    -2.031838421984
    H           -2.468050828834     0.427227442212    -2.782914144608
    H           -1.853828424349     3.398503211163    -2.419088771685
    H           -0.829901012753     2.255276529952    -3.264140554228
    H           -2.404776743968     2.654963898937    -3.906064028441

  Mulliken Charges: (a.u.)
   Center  Symbol    Alpha    Beta     Spin     Total
       1     H     0.45308  0.45308  0.00000  0.09383
       2     C     2.91497  2.91497  0.00000  0.17006
       3     C     3.10585  3.10585  0.00000 -0.21171
       4     O     4.16864  4.16864  0.00000 -0.33727
       5     C     3.09301  3.09301  0.00000 -0.18602
       6     H     0.44602  0.44602  0.00000  0.10795
       7     H     0.43660  0.43660  0.00000  0.12679
       8     C     3.09097  3.09097  0.00000 -0.18194
       9     H     0.44585  0.44585  0.00000  0.10829
      10     H     0.44361  0.44361  0.00000  0.11279
      11     C     3.09364  3.09364  0.00000 -0.18729
      12     H     0.45688  0.45688  0.00000  0.08625
      13     H     0.44568  0.44568  0.00000  0.10864
      14     C     3.09497  3.09497  0.00000 -0.18995
      15     H     0.45348  0.45348  0.00000  0.09305
      16     H     0.45169  0.45169  0.00000  0.09663
      17     C     3.09054  3.09054  0.00000 -0.18107
      18     H     0.45522  0.45522  0.00000  0.08955
      19     H     0.44830  0.44830  0.00000  0.10341
      20     C     3.15270  3.15270  0.00000 -0.30540
      21     H     0.44858  0.44858  0.00000  0.10284
      22     H     0.45398  0.45398  0.00000  0.09204
      23     H     0.45548  0.45548  0.00000  0.08905
      24     H     0.45394  0.45394  0.00000  0.09212
      25     H     0.44633  0.44633  0.00000  0.10734

   Total alpha = 36.00000, Total beta = 36.00000, Total charge =  0.00000

*** Psi4 exiting successfully. Buy a developer a beer!
