  ==> Input File <==

--------------------------------------------------------------------------
set {
	reference rhf
	basis 6-31G*
}

set_num_threads( 4 )
memory 2 gb

molecule MOL {
0 1

O	 3.225979	 0.970355	 -0.599647
C	 2.701189	 0.057885	 -0.047330
C	 1.245376	 -0.013843	 0.345420
O	 3.347903	 -1.046386	 0.304773
C	 0.455112	 1.231400	 -0.050772
H	 0.838542	 -0.913825	 -0.103701
H	 1.208210	 -0.175333	 1.419774
C	 -0.998893	 1.219485	 0.433193
H	 0.482531	 1.345121	 -1.130325
H	 0.957290	 2.103070	 0.354729
C	 -1.883438	 0.145884	 -0.207175
H	 -1.431207	 2.195402	 0.224832
H	 -1.019646	 1.105716	 1.516076
C	 -3.347647	 0.245583	 0.225435
H	 -1.822183	 0.231698	 -1.291012
H	 -1.510341	 -0.844814	 0.042401
C	 -4.239992	 -0.825570	 -0.404234
H	 -3.732888	 1.230466	 -0.033079
H	 -3.408585	 0.170602	 1.310038
C	 -3.776395	 -2.248144	 -0.092687
H	 -5.261569	 -0.694402	 -0.053781
H	 -4.267200	 -0.683475	 -1.482589
H	 -4.428438	 -2.984370	 -0.552490
H	 -3.771672	 -2.433315	 0.977773
H	 -2.769420	 -2.422001	 -0.461534
C	 4.728119	 -1.109107	 -0.004993
H	 4.882018	 -1.033965	 -1.071845
H	 5.068212	 -2.067527	 0.355250
H	 5.265056	 -0.311663	 0.488280

	symmetry c1
}
set optking {
	frozen_dihedral = ("
		21 17 14 11
	")
}

ee = optimize('scf')
oeprop('DIPOLE', 'QUADRUPOLE', 'MULLIKEN_CHARGES')
f=open( 'psi4out.xyz', 'w' )
f.write( "29  " )
f.write( str(ee) + "\n" )
f.write( MOL.save_string_xyz() )
f.close()
--------------------------------------------------------------------------

    Molecular point group: c1
  Charge       = 0
  Multiplicity = 1
  Basis Set: 6-31G*
  Basis Set:
  @DF-RHF Final Energy:  -501.04126484873416
    Total Energy =                       -501.0412648487335900
    Molecular point group: c1
  Basis Set: 6-31G*
  Basis Set:
  Basis Set: 6-31G*
  Basis Set:
  @DF-RHF Final Energy:  -501.04177491547341
    Total Energy =                       -501.0417749154732974
  Basis Set: 6-31G*
  Basis Set:
  Basis Set: 6-31G*
  Basis Set:
  @DF-RHF Final Energy:  -501.04224754918312
    Total Energy =                       -501.0422475491832301
  Basis Set: 6-31G*
  Basis Set:
  Basis Set: 6-31G*
  Basis Set:
  @DF-RHF Final Energy:  -501.04228432704656
    Total Energy =                       -501.0422843270457633
  Basis Set: 6-31G*
  Basis Set:
  Basis Set: 6-31G*
  Basis Set:
  @DF-RHF Final Energy:  -501.04227690543439
    Total Energy =                       -501.0422769054339369
  Basis Set: 6-31G*
  Basis Set:
  Basis Set: 6-31G*
  Basis Set:
  @DF-RHF Final Energy:  -501.04226551824456
    Total Energy =                       -501.0422655182446761
  Basis Set: 6-31G*
  Basis Set:
  Basis Set: 6-31G*
  Basis Set:
  @DF-RHF Final Energy:  -501.04228683807594
    Total Energy =                       -501.0422868380765067
  Basis Set: 6-31G*
  Basis Set:
  Charge       = 0
  Multiplicity = 1
  Basis Set: 6-31G*
  Basis Set:

    Orbital Energies (a.u.)
    -----------------------

    Doubly Occupied:

       1A    -20.603390     2A    -20.545217     3A    -11.372033
       4A    -11.280672     5A    -11.234798     6A    -11.219052
       7A    -11.217590     8A    -11.216306     9A    -11.215505
      10A    -11.214700    11A    -11.209239    12A     -1.469089
      13A     -1.362533    14A     -1.098039    15A     -1.066324
      16A     -1.018095    17A     -0.975714    18A     -0.928245
      19A     -0.871091    20A     -0.803141    21A     -0.778393
      22A     -0.763888    23A     -0.700868    24A     -0.682314
      25A     -0.672091    26A     -0.643129    27A     -0.631703
      28A     -0.605925    29A     -0.595197    30A     -0.591940
      31A     -0.557455    32A     -0.554043    33A     -0.537460
      34A     -0.523978    35A     -0.521136    36A     -0.509981
      37A     -0.496215    38A     -0.477899    39A     -0.472886
      40A     -0.459707    41A     -0.456452    42A     -0.452045
      43A     -0.442215    44A     -0.435799

  @DF-RHF Final Energy:  -501.04228718409843

   => Energetics <=

    Nuclear Repulsion Energy =            617.4117623286693970
    One-Electron Energy =               -1905.9411129034856458
    Two-Electron Energy =                 787.4870633907179354
    DFT Exchange-Correlation Energy =       0.0000000000000000
    Empirical Dispersion Energy =           0.0000000000000000
    PCM Polarization Energy =               0.0000000000000000
    EFP Energy =                            0.0000000000000000
    Total Energy =                       -501.0422871840984271
    Molecular point group: c1
  Basis Set: 6-31G*
  Basis Set:

  -Total Gradient:
     Atom            X                  Y                   Z
    ------   -----------------  -----------------  -----------------
       1       -0.000002881570    -0.000002557386    -0.000002866781
       2        0.000005468834     0.000001117722     0.000005692003
       3       -0.000008973435    -0.000000553880    -0.000005211430
       4       -0.000000579501    -0.000000876933    -0.000001863801
       5        0.000006249167     0.000002125195     0.000015999899
       6       -0.000017732684    -0.000010372729    -0.000002686184
       7        0.000001185898     0.000001790488    -0.000004134081
       8       -0.000002542618     0.000009353587    -0.000003971367
       9       -0.000000547961     0.000007630801     0.000003038369
      10        0.000004012835    -0.000005215454     0.000005722876
      11        0.000219053381    -0.000733708184     0.000810610807
      12        0.000000908608    -0.000002530824    -0.000010077401
      13       -0.000006622647     0.000013374613     0.000000228682
      14       -0.000240953080     0.000813394829    -0.000914724686
      15       -0.000006323542     0.000005560849     0.000000273376
      16        0.000020601536    -0.000010392729    -0.000004247378
      17       -0.000259366675     0.000893065518    -0.000995754526
      18        0.000000118819    -0.000004550704    -0.000003933018
      19       -0.000005524973     0.000001689077     0.000001895851
      20        0.000005821927     0.000000606110    -0.000000137911
      21        0.000283950632    -0.000981937505     0.001105563215
      22        0.000003725266     0.000002267567     0.000001715885
      23       -0.000000483645     0.000002032654     0.000000788408
      24       -0.000000464246     0.000001174609    -0.000001122877
      25        0.000001903093    -0.000002340161    -0.000000745452
      26        0.000000064974    -0.000000039410     0.000000224713
      27        0.000000032709    -0.000000023736    -0.000000154883
      28       -0.000000001143    -0.000000037367    -0.000000097188
      29       -0.000000099997    -0.000000046617    -0.000000025120

  **** Optimization is complete! (in 8 steps) ****
    Final optimized geometry and variables:
    Molecular point group: c1

    Geometry (in Angstrom), charge = 0, multiplicity = 1:

    O            3.050419351188     1.113503346838    -0.626978504950
    C            2.538706451356     0.217886153937    -0.036157562936
    C            1.085708791001     0.145576387175     0.366849667007
    O            3.199576019851    -0.864265495606     0.356032154770
    C            0.279149700757     1.364637434537    -0.075398535372
    H            0.687483806355    -0.776715303931    -0.042975040895
    H            1.055690692360     0.027655108815     1.447074555284
    C           -1.172379223739     1.356789383700     0.416196640112
    H            0.300255267433     1.434968444899    -1.158789584428
    H            0.773438534974     2.257475545014     0.291943264140
    C           -2.049461101613     0.251103912120    -0.179169990834
    H           -1.614989583646     2.320185583968     0.174393078433
    H           -1.186579559021     1.282940647804     1.502748074053
    C           -3.506274759063     0.347563250461     0.282701828301
    H           -2.010305918400     0.310985614505    -1.266368640280
    H           -1.648471579375    -0.721347167343     0.089363138882
    C           -4.460301519195    -0.659805268618    -0.369859276021
    H           -3.875189393763     1.351143752522     0.082114027329
    H           -3.543427513660     0.221824052505     1.363936831781
    C           -4.089940001908    -2.127811399799    -0.146754497681
    H           -5.456208149978    -0.495022300215     0.034046561309
    H           -4.522232112483    -0.461618299702    -1.437701066551
    H           -4.859779056096    -2.782058721436    -0.544165565453
    H           -3.985059785710    -2.348224303633     0.912439902810
    H           -3.157257541782    -2.391563505604    -0.633941085175
    C            4.578947512716    -0.923824609698     0.041876013112
    H            4.726953730554    -0.889360098735    -1.027899692639
    H            4.931566417103    -1.863339804821     0.438059819142
    H            5.109101748286    -0.101495796337     0.500403074433

  Mulliken Charges: (a.u.)
   Center  Symbol    Alpha    Beta     Spin     Total
       1     O     4.28595  4.28595  0.00000 -0.57190
       2     C     2.60480  2.60480  0.00000  0.79041
       3     C     3.20975  3.20975  0.00000 -0.41950
       4     O     4.30746  4.30746  0.00000 -0.61491
       5     C     3.15359  3.15359  0.00000 -0.30718
       6     H     0.39907  0.39907  0.00000  0.20186
       7     H     0.40120  0.40120  0.00000  0.19761
       8     C     3.15644  3.15644  0.00000 -0.31287
       9     H     0.41312  0.41312  0.00000  0.17376
      10     H     0.40876  0.40876  0.00000  0.18248
      11     C     3.15725  3.15725  0.00000 -0.31449
      12     H     0.41831  0.41831  0.00000  0.16338
      13     H     0.42394  0.42394  0.00000  0.15212
      14     C     3.15199  3.15199  0.00000 -0.30397
      15     H     0.42332  0.42332  0.00000  0.15336
      16     H     0.42082  0.42082  0.00000  0.15837
      17     C     3.15166  3.15166  0.00000 -0.30331
      18     H     0.42163  0.42163  0.00000  0.15674
      19     H     0.42442  0.42442  0.00000  0.15116
      20     C     3.24197  3.24197  0.00000 -0.48394
      21     H     0.42090  0.42090  0.00000  0.15819
      22     H     0.42277  0.42277  0.00000  0.15446
      23     H     0.41885  0.41885  0.00000  0.16229
      24     H     0.42253  0.42253  0.00000  0.15494
      25     H     0.42041  0.42041  0.00000  0.15918
      26     C     3.09241  3.09241  0.00000 -0.18483
      27     H     0.40908  0.40908  0.00000  0.18183
      28     H     0.40850  0.40850  0.00000  0.18300
      29     H     0.40912  0.40912  0.00000  0.18176

   Total alpha = 44.00000, Total beta = 44.00000, Total charge = -0.00000
