  ==> Input File <==

--------------------------------------------------------------------------
set {
	reference rhf
	basis 6-31G*
}

set_num_threads( 1 )
memory 2 gb

molecule MOL {
0 1

H	 2.591676	 2.013956	 0.335017
O	 3.341076	 1.666752	 -0.126416
C	 3.569581	 0.339145	 0.272707
C	 2.539767	 -0.640285	 -0.279495
H	 4.553106	 0.084646	 -0.100901
H	 3.608576	 0.269204	 1.359154
C	 1.115811	 -0.397273	 0.226630
H	 2.556196	 -0.582511	 -1.364741
H	 2.852081	 -1.648031	 -0.010655
C	 0.903168	 1.033253	 0.729815
H	 0.896289	 -1.099480	 1.026056
H	 0.406500	 -0.602973	 -0.575184
C	 -0.529962	 1.354977	 1.169101
H	 1.584871	 1.227190	 1.555961
H	 1.183608	 1.724089	 -0.062523
C	 -1.008859	 0.597506	 2.410622
H	 -0.594830	 2.422704	 1.368019
H	 -1.211538	 1.160208	 0.342447
C	 -2.402823	 1.028879	 2.871292
H	 -0.299287	 0.753138	 3.222038
H	 -1.018968	 -0.472169	 2.215697
C	 -2.885916	 0.269776	 4.106625
H	 -2.397714	 2.095953	 3.082987
H	 -3.111441	 0.883193	 2.058567
H	 -2.215018	 0.421845	 4.947455
H	 -3.875098	 0.599188	 4.409347
H	 -2.937539	 -0.798490	 3.915557

	symmetry c1
}
set optking {
	frozen_dihedral = ("
		14 10 7 4,
		14 10 13 16,
		8 4 3 2,
		10 13 16 20,
		20 16 19 22,
		4 3 2 1
	")
}

ee = energy('scf')
oeprop('DIPOLE', 'QUADRUPOLE', 'MULLIKEN_CHARGES')
f=open( 'psi4out.xyz', 'w' )
f.write( "27  " )
f.write( str(ee) + "\n" )
f.write( MOL.save_string_xyz() )
f.close()
--------------------------------------------------------------------------

    Molecular point group: c1

    Geometry (in Angstrom), charge = 0, multiplicity = 1:

       Center              X                  Y                   Z               Mass
    ------------   -----------------  -----------------  -----------------  -----------------
           H          2.041166145278     1.412975275568    -0.925257545943     1.007825032070
           O          2.790566145278     1.065771275568    -1.386690545943    15.994914619560
           C          3.019071145278    -0.261835724432    -0.987567545943    12.000000000000
           C          1.989257145278    -1.241265724432    -1.539769545943    12.000000000000
           H          4.002596145278    -0.516334724432    -1.361175545943     1.007825032070
           H          3.058066145278    -0.331776724432     0.098879454057     1.007825032070
           C          0.565301145278    -0.998253724432    -1.033644545943    12.000000000000
           H          2.005686145278    -1.183491724432    -2.625015545943     1.007825032070
           H          2.301571145278    -2.249011724432    -1.270929545943     1.007825032070
           C          0.352658145278     0.432272275568    -0.530459545943    12.000000000000
           H          0.345779145278    -1.700460724432    -0.234218545943     1.007825032070
           H         -0.144009854722    -1.203953724432    -1.835458545943     1.007825032070
           C         -1.080471854722     0.753996275568    -0.091173545943    12.000000000000
           H          1.034361145278     0.626209275568     0.295686454057     1.007825032070
           H          0.633098145278     1.123108275568    -1.322797545943     1.007825032070
           C         -1.559368854722    -0.003474724432     1.150347454057    12.000000000000
           H         -1.145339854722     1.821723275568     0.107744454057     1.007825032070
           H         -1.762047854722     0.559227275568    -0.917827545943     1.007825032070
           C         -2.953332854722     0.427898275568     1.611017454057    12.000000000000
           H         -0.849796854722     0.152157275568     1.961763454057     1.007825032070
           H         -1.569477854722    -1.073149724432     0.955422454057     1.007825032070
           C         -3.436425854722    -0.331204724432     2.846350454057    12.000000000000
           H         -2.948223854722     1.494972275568     1.822712454057     1.007825032070
           H         -3.661950854722     0.282212275568     0.798292454057     1.007825032070
           H         -2.765527854722    -0.179135724432     3.687180454057     1.007825032070
           H         -4.425607854722    -0.001792724432     3.149072454057     1.007825032070
           H         -3.488048854722    -1.399470724432     2.655282454057     1.007825032070

  Charge       = 0
  Multiplicity = 1
  Basis Set: 6-31G*
  Basis Set:

    Orbital Energies (a.u.)
    -----------------------

    Doubly Occupied:

       1A    -20.541234     2A    -11.264932     3A    -11.225235
       4A    -11.220634     5A    -11.219856     6A    -11.218107
       7A    -11.217109     8A    -11.214282     9A    -11.210955
      10A     -1.357420    11A     -1.099761    12A     -1.063182
      13A     -1.015513    14A     -0.952760    15A     -0.890469
      16A     -0.827313    17A     -0.805139    18A     -0.787434
      19A     -0.690627    20A     -0.652903    21A     -0.637714
      22A     -0.625340    23A     -0.594966    24A     -0.583729
      25A     -0.573174    26A     -0.556510    27A     -0.550995
      28A     -0.535813    29A     -0.519118    30A     -0.500545
      31A     -0.479920    32A     -0.474808    33A     -0.470285
      34A     -0.464912    35A     -0.451981    36A     -0.438540
      37A     -0.415026

  @DF-RHF Final Energy:  -388.25663039322598

   => Energetics <=

    Nuclear Repulsion Energy =            474.6466015622566488
    One-Electron Energy =               -1467.1098875556986059
    Two-Electron Energy =                 604.2066556002150719
    DFT Exchange-Correlation Energy =       0.0000000000000000
    Empirical Dispersion Energy =           0.0000000000000000
    PCM Polarization Energy =               0.0000000000000000
    EFP Energy =                            0.0000000000000000
    Total Energy =                       -388.2566303932269420

  Mulliken Charges: (a.u.)
   Center  Symbol    Alpha    Beta     Spin     Total
       1     H     0.26991  0.26991  0.00000  0.46017
       2     O     4.37824  4.37824  0.00000 -0.75648
       3     C     3.00512  3.00512  0.00000 -0.01024
       4     C     3.16394  3.16394  0.00000 -0.32787
       5     H     0.41340  0.41340  0.00000  0.17320
       6     H     0.43051  0.43051  0.00000  0.13898
       7     C     3.15202  3.15202  0.00000 -0.30405
       8     H     0.41373  0.41373  0.00000  0.17254
       9     H     0.42146  0.42146  0.00000  0.15708
      10     C     3.19968  3.19968  0.00000 -0.39935
      11     H     0.41781  0.41781  0.00000  0.16439
      12     H     0.41740  0.41740  0.00000  0.16520
      13     C     3.14851  3.14851  0.00000 -0.29701
      14     H     0.41970  0.41970  0.00000  0.16059
      15     H     0.40802  0.40802  0.00000  0.18397
      16     C     3.15363  3.15363  0.00000 -0.30726
      17     H     0.42152  0.42152  0.00000  0.15696
      18     H     0.42118  0.42118  0.00000  0.15765
      19     C     3.15149  3.15149  0.00000 -0.30299
      20     H     0.42462  0.42462  0.00000  0.15077
      21     H     0.42135  0.42135  0.00000  0.15729
      22     C     3.23935  3.23935  0.00000 -0.47871
      23     H     0.42273  0.42273  0.00000  0.15454
      24     H     0.42249  0.42249  0.00000  0.15502
      25     H     0.42169  0.42169  0.00000  0.15662
      26     H     0.41876  0.41876  0.00000  0.16249
      27     H     0.42176  0.42176  0.00000  0.15649

   Total alpha = 37.00000, Total beta = 37.00000, Total charge =  0.00000
