  ==> Input File <==

--------------------------------------------------------------------------
set {
	reference rhf
	basis 6-31G*
}

set_num_threads( 4 )
memory 2 gb

molecule MOL {
0 1

H	 3.893188	 0.355400	 -0.101367
N	 3.092854	 -0.246221	 -0.068770
C	 1.865559	 0.531981	 0.018834
H	 3.199514	 -0.826043	 0.741946
C	 0.645745	 -0.382037	 -0.029944
H	 1.841966	 1.207024	 -0.831236
H	 1.815756	 1.155410	 0.915079
C	 -0.679275	 0.379305	 0.025956
H	 0.698998	 -0.976915	 -0.937203
H	 0.693479	 -1.083846	 0.802235
C	 -0.913373	 1.084147	 1.363406
H	 -1.500204	 -0.310981	 -0.162274
H	 -0.710855	 1.115327	 -0.775993
C	 -2.240407	 1.840253	 1.416244
H	 -0.883560	 0.350564	 2.166015
H	 -0.095884	 1.776553	 1.552988
H	 -3.080638	 1.168582	 1.263969
H	 -2.377509	 2.328405	 2.376200
H	 -2.286791	 2.605591	 0.646505

	symmetry c1
}
set optking {
	frozen_dihedral = ("
		12 8 5 9
	")
}

ee = optimize('scf')
oeprop('DIPOLE', 'QUADRUPOLE', 'MULLIKEN_CHARGES')
f=open( 'psi4out.xyz', 'w' )
f.write( "19  " )
f.write( str(ee) + "\n" )
f.write( MOL.save_string_xyz() )
f.close()
--------------------------------------------------------------------------

    Molecular point group: c1
  Charge       = 0
  Multiplicity = 1
  Basis Set: 6-31G*
  Basis Set:
  @DF-RHF Final Energy:  -251.34914433069787
    Total Energy =                       -251.3491443306976407
    Molecular point group: c1
  Basis Set: 6-31G*
  Basis Set:
  Basis Set: 6-31G*
  Basis Set:
  @DF-RHF Final Energy:  -251.34955424645665
    Total Energy =                       -251.3495542464565347
  Basis Set: 6-31G*
  Basis Set:
  Basis Set: 6-31G*
  Basis Set:
  @DF-RHF Final Energy:  -251.34988321678708
    Total Energy =                       -251.3498832167871342
  Basis Set: 6-31G*
  Basis Set:
  Basis Set: 6-31G*
  Basis Set:
  @DF-RHF Final Energy:  -251.34989675068982
    Total Energy =                       -251.3498967506897657
  Basis Set: 6-31G*
  Basis Set:
  Charge       = 0
  Multiplicity = 1
  Basis Set: 6-31G*
  Basis Set:

    Orbital Energies (a.u.)
    -----------------------

    Doubly Occupied:

       1A    -15.532352     2A    -11.239220     3A    -11.214839
       4A    -11.213155     5A    -11.209779     6A    -11.208372
       7A     -1.176370     8A     -1.072652     9A     -0.996987
      10A     -0.899543    11A     -0.828286    12A     -0.777540
      13A     -0.656022    14A     -0.635926    15A     -0.631282
      16A     -0.586972    17A     -0.568448    18A     -0.547820
      19A     -0.528687    20A     -0.504698    21A     -0.481260
      22A     -0.462244    23A     -0.458422    24A     -0.450855
      25A     -0.380245

  @DF-RHF Final Energy:  -251.34989730632915

   => Energetics <=

    Nuclear Repulsion Energy =            248.7098791259530515
    One-Electron Energy =                -831.5956012935298531
    Two-Electron Energy =                 331.5358248612474199
    DFT Exchange-Correlation Energy =       0.0000000000000000
    Empirical Dispersion Energy =           0.0000000000000000
    PCM Polarization Energy =               0.0000000000000000
    EFP Energy =                            0.0000000000000000
    Total Energy =                       -251.3498973063293533
    Molecular point group: c1
  Basis Set: 6-31G*
  Basis Set:

  -Total Gradient:
     Atom            X                  Y                   Z
    ------   -----------------  -----------------  -----------------
       1        0.000009876519     0.000000647446    -0.000005270737
       2        0.000005070377     0.000015387153    -0.000026957798
       3       -0.000059757935    -0.000048160365    -0.000005595812
       4       -0.000025797597     0.000016396342     0.000000730360
       5       -0.000057760345    -0.000043395347     0.000120440945
       6        0.000033538295    -0.000004928160     0.000003429509
       7       -0.000050219864     0.000015594622     0.000021062649
       8        0.000054745059     0.000063336341    -0.000046981939
       9        0.000008668473     0.000025601757    -0.000003996759
      10        0.000062771948    -0.000037669953     0.000030336186
      11        0.000040146932    -0.000037389032    -0.000100153712
      12       -0.000038423679     0.000022417268     0.000040319431
      13       -0.000016450542     0.000071403049    -0.000002771771
      14       -0.000038954112    -0.000063817897     0.000019558897
      15        0.000015768684     0.000022673444     0.000000018073
      16        0.000054058900    -0.000009075237    -0.000053749830
      17       -0.000010920512     0.000009271462    -0.000016433376
      18       -0.000018397888    -0.000012009701     0.000011991146
      19        0.000032037286    -0.000006283197     0.000014024537

  **** Optimization is complete! (in 5 steps) ****
    Final optimized geometry and variables:
    Molecular point group: c1

    Geometry (in Angstrom), charge = 0, multiplicity = 1:

    H            3.599792372387    -0.280541046638    -0.632077943025
    N            2.775304494955    -0.848766173024    -0.599008158640
    C            1.587581484787    -0.022851844465    -0.425822194290
    H            2.885128337184    -1.471054696378     0.179318579652
    C            0.332655847628    -0.891179091166    -0.461720356147
    H            1.555024705140     0.684085458801    -1.249736056719
    H            1.612844017970     0.565351545056     0.492450466780
    C           -0.987155943606    -0.113825932740    -0.409841853913
    H            0.368222122955    -1.480270392113    -1.372842174991
    H            0.365165729860    -1.601264052785     0.364472046293
    C           -1.266401323164     0.603222457490     0.914425586724
    H           -1.800844047854    -0.809583516780    -0.603086012229
    H           -1.011688089992     0.610327911893    -1.222969324980
    C           -2.643406188677     1.266278535530     0.944327977742
    H           -1.193223981360    -0.112034280227     1.731444198125
    H           -0.506585894428     1.357401014682     1.099673796082
    H           -3.434050847046     0.534786522262     0.803065255536
    H           -2.820016612680     1.765635153204     1.892067008783
    H           -2.737452581106     2.008902478094     0.156922912631

  Mulliken Charges: (a.u.)
   Center  Symbol    Alpha    Beta     Spin     Total
       1     H     0.33258  0.33258  0.00000  0.33484
       2     N     3.92182  3.92182  0.00000 -0.84364
       3     C     3.06238  3.06238  0.00000 -0.12475
       4     H     0.33545  0.33545  0.00000  0.32909
       5     C     3.15354  3.15354  0.00000 -0.30708
       6     H     0.42130  0.42130  0.00000  0.15740
       7     H     0.43230  0.43230  0.00000  0.13540
       8     C     3.15622  3.15622  0.00000 -0.31243
       9     H     0.41066  0.41066  0.00000  0.17868
      10     H     0.42802  0.42802  0.00000  0.14395
      11     C     3.15334  3.15334  0.00000 -0.30669
      12     H     0.42087  0.42087  0.00000  0.15825
      13     H     0.42359  0.42359  0.00000  0.15282
      14     C     3.23906  3.23906  0.00000 -0.47812
      15     H     0.42382  0.42382  0.00000  0.15235
      16     H     0.42209  0.42209  0.00000  0.15581
      17     H     0.42162  0.42162  0.00000  0.15675
      18     H     0.41964  0.41964  0.00000  0.16073
      19     H     0.42169  0.42169  0.00000  0.15662

   Total alpha = 25.00000, Total beta = 25.00000, Total charge =  0.00000
