  ==> Input File <==

--------------------------------------------------------------------------
set {
	reference rhf
	basis 6-31G*
}

set_num_threads( 4 )
memory 2 gb

molecule MOL {
0 1

H	 -3.301617	 0.570527	 0.000000
C	 -2.250981	 0.344174	 0.000000
C	 -1.813665	 -0.976045	 0.000000
C	 -1.315303	 1.358057	 0.000000
H	 -2.528860	 -1.779366	 0.000000
C	 -0.467298	 -1.270142	 0.000000
H	 -1.635074	 2.385107	 0.000000
C	 0.047081	 1.078114	 0.000000
H	 -0.115948	 -2.285222	 0.000000
C	 0.472063	 -0.241155	 0.000000
H	 0.749976	 1.888426	 0.000000
O	 1.765256	 -0.628444	 0.000000
C	 2.696949	 0.063147	 0.780207
H	 2.773664	 1.102747	 0.479078
H	 3.647173	 -0.423240	 0.617986
H	 2.447265	 0.012870	 1.834940

	symmetry c1
}
set optking {
	frozen_dihedral = ("
		13 12 10 8
	")
}

ee = optimize('scf')
oeprop('DIPOLE', 'QUADRUPOLE', 'MULLIKEN_CHARGES')
f=open( 'psi4out.xyz', 'w' )
f.write( "16  " )
f.write( str(ee) + "\n" )
f.write( MOL.save_string_xyz() )
f.close()
--------------------------------------------------------------------------

    Molecular point group: c1
  Charge       = 0
  Multiplicity = 1
  Basis Set: 6-31G*
  Basis Set:
  @DF-RHF Final Energy:  -344.58011118113023
    Total Energy =                       -344.5801111811304054
    Molecular point group: c1
  Basis Set: 6-31G*
  Basis Set:
  Basis Set: 6-31G*
  Basis Set:
  @DF-RHF Final Energy:  -344.58076765409629
    Total Energy =                       -344.5807676540960074
  Basis Set: 6-31G*
  Basis Set:
  Basis Set: 6-31G*
  Basis Set:
  @DF-RHF Final Energy:  -344.58097208711484
    Total Energy =                       -344.5809720871151285
  Basis Set: 6-31G*
  Basis Set:
  Basis Set: 6-31G*
  Basis Set:
  @DF-RHF Final Energy:  -344.58098229472051
    Total Energy =                       -344.5809822947203998
  Basis Set: 6-31G*
  Basis Set:
  Charge       = 0
  Multiplicity = 1
  Basis Set: 6-31G*
  Basis Set:

    Orbital Energies (a.u.)
    -----------------------

    Doubly Occupied:

       1A    -20.578759     2A    -11.290569     3A    -11.278109
       4A    -11.233305     5A    -11.231844     6A    -11.225060
       7A    -11.222016     8A    -11.220808     9A     -1.407312
      10A     -1.146461    11A     -1.019732    12A     -1.013448
      13A     -0.938188    14A     -0.831840    15A     -0.805289
      16A     -0.717837    17A     -0.665271    18A     -0.661558
      19A     -0.648426    20A     -0.614911    21A     -0.589754
      22A     -0.580030    23A     -0.527852    24A     -0.513108
      25A     -0.505991    26A     -0.480524    27A     -0.450134
      28A     -0.334675    29A     -0.310376

  @DF-RHF Final Energy:  -344.58098421795955

   => Energetics <=

    Nuclear Repulsion Energy =            347.9245296697637286
    One-Electron Energy =               -1156.9246524715031228
    Two-Electron Energy =                 464.4191385837796133
    DFT Exchange-Correlation Energy =       0.0000000000000000
    Empirical Dispersion Energy =           0.0000000000000000
    PCM Polarization Energy =               0.0000000000000000
    EFP Energy =                            0.0000000000000000
    Total Energy =                       -344.5809842179597808
    Molecular point group: c1
  Basis Set: 6-31G*
  Basis Set:

  -Total Gradient:
     Atom            X                  Y                   Z
    ------   -----------------  -----------------  -----------------
       1       -0.000007461368    -0.000013824729    -0.000005870628
       2        0.000061112164     0.000226236548     0.000001211776
       3        0.000172195239    -0.000133287795     0.000009166914
       4       -0.000256916546    -0.000067432461     0.000018350894
       5       -0.000003021466     0.000015451153     0.000002315540
       6       -0.000164213018    -0.000085670122    -0.000013164781
       7        0.000010321795    -0.000005744608    -0.000005485108
       8        0.000139095435    -0.000096751232    -0.001675690478
       9        0.000013545733     0.000000252174    -0.000012204864
      10       -0.000059388037    -0.000284820325     0.003220233639
      11       -0.000022186381     0.000004551966    -0.000015333762
      12        0.000338177324     0.001444972018    -0.002753632095
      13       -0.000263642375    -0.001047058537     0.001297550134
      14        0.000001204187     0.000076244369    -0.000056665875
      15       -0.000000802070    -0.000015198287     0.000025856936
      16        0.000041979376    -0.000017920133    -0.000036638244

  **** Optimization is complete! (in 5 steps) ****
    Final optimized geometry and variables:
    Molecular point group: c1

    Geometry (in Angstrom), charge = 0, multiplicity = 1:

    H           -3.287093023004     0.610575759474    -0.106789456895
    C           -2.237294707532     0.379678846656    -0.104945627980
    C           -1.808338324286    -0.940075757459    -0.142293172933
    C           -1.297659811588     1.393317002459    -0.068003746682
    H           -2.528032975905    -1.738765056053    -0.172817649225
    C           -0.459829292126    -1.240567361280    -0.134755201129
    H           -1.615051423630     2.420779885187    -0.045602522353
    C            0.059932054653     1.104422263878    -0.068466384378
    H           -0.112793380581    -2.256782751842    -0.162206806807
    C            0.478646245269    -0.217093314448    -0.093898669259
    H            0.776362387888     1.904238540598    -0.054231836629
    O            1.783448289067    -0.581599694268    -0.137618062152
    C            2.708690772281     0.138067392870     0.632083150010
    H            2.947654358004     1.095440516655     0.181560188662
    H            3.607351906099    -0.460318696254     0.670521597025
    H            2.339088152854     0.299808628893     1.638858198484

  Mulliken Charges: (a.u.)
   Center  Symbol    Alpha    Beta     Spin     Total
       1     H     0.40071  0.40071  0.00000  0.19859
       2     C     3.10963  3.10963  0.00000 -0.21925
       3     C     3.09387  3.09387  0.00000 -0.18775
       4     C     3.09329  3.09329  0.00000 -0.18658
       5     H     0.39859  0.39859  0.00000  0.20282
       6     C     3.12399  3.12399  0.00000 -0.24799
       7     H     0.39916  0.39916  0.00000  0.20167
       8     C     3.13431  3.13431  0.00000 -0.26862
       9     H     0.39302  0.39302  0.00000  0.21396
      10     C     2.78956  2.78956  0.00000  0.42088
      11     H     0.39735  0.39735  0.00000  0.20530
      12     O     4.32914  4.32914  0.00000 -0.65829
      13     C     3.08834  3.08834  0.00000 -0.17667
      14     H     0.42232  0.42232  0.00000  0.15537
      15     H     0.40729  0.40729  0.00000  0.18542
      16     H     0.41943  0.41943  0.00000  0.16114

   Total alpha = 29.00000, Total beta = 29.00000, Total charge = -0.00000
