  ==> Input File <==

--------------------------------------------------------------------------
set {
	reference rhf
	basis cc-pvtz
}

set_num_threads( 4 )
memory 2 gb

molecule MOL {
0 1

H	 -0.963940	 -0.888916	 1.230779
C	 -0.264826	 -0.060761	 1.207187
N	 0.526300	 -0.128137	 0.000000
H	 0.378586	 -0.149504	 2.073320
H	 -0.841429	 0.861711	 1.302816
C	 -0.247113	 0.037112	 -1.209233
H	 1.255285	 0.550951	 0.032849
H	 -0.996493	 -0.743733	 -1.271440
H	 0.397975	 -0.057351	 -2.073512
H	 -0.763794	 0.997171	 -1.271673

	symmetry c1
}
set optking {
	frozen_dihedral = ("
		2 3 6 8
	")
}

ee = optimize('scf')
oeprop('DIPOLE', 'QUADRUPOLE', 'MULLIKEN_CHARGES')
f=open( 'psi4out.xyz', 'w' )
f.write( "10  " )
f.write( str(ee) + "\n" )
f.write( MOL.save_string_xyz() )
f.close()
--------------------------------------------------------------------------

    Molecular point group: c1
  Charge       = 0
  Multiplicity = 1
  Basis Set: CC-PVTZ
  Basis Set:
  @DF-RHF Final Energy:  -134.29302068989915
    Total Energy =                       -134.2930206898991514
    Molecular point group: c1
  Basis Set: CC-PVTZ
  Basis Set:
  Basis Set: CC-PVTZ
  Basis Set:
  @DF-RHF Final Energy:  -134.29302677315681
    Total Energy =                       -134.2930267731568108
  Basis Set: CC-PVTZ
  Basis Set:
  Charge       = 0
  Multiplicity = 1
  Basis Set: CC-PVTZ
  Basis Set:

    Orbital Energies (a.u.)
    -----------------------

    Doubly Occupied:

       1A    -15.532337     2A    -11.234308     3A    -11.234272
       4A     -1.200852     5A     -0.948201     6A     -0.854916
       7A     -0.662948     8A     -0.612780     9A     -0.592497
      10A     -0.538862    11A     -0.511615    12A     -0.507627
      13A     -0.363648

  @DF-RHF Final Energy:  -134.29302726373095

   => Energetics <=

    Nuclear Repulsion Energy =             84.7522147043264340
    One-Electron Energy =                -348.5007557986224356
    Two-Electron Energy =                 129.4555138305650530
    DFT Exchange-Correlation Energy =       0.0000000000000000
    Empirical Dispersion Energy =           0.0000000000000000
    PCM Polarization Energy =               0.0000000000000000
    EFP Energy =                            0.0000000000000000
    Total Energy =                       -134.2930272637309486
    Molecular point group: c1
  Basis Set: CC-PVTZ
  Basis Set:

  -Total Gradient:
     Atom            X                  Y                   Z
    ------   -----------------  -----------------  -----------------
       1        0.000009129148     0.000002863682    -0.000015100401
       2       -0.000163789549    -0.000587804983     0.000003327305
       3        0.000083118930     0.000930477391     0.000145093061
       4        0.000014493352    -0.000002610589    -0.000017644653
       5        0.000009365615    -0.000003503690    -0.000000843503
       6        0.000524076509    -0.000814739880    -0.000541187710
       7        0.000029383989     0.000025388389     0.000017895539
       8       -0.000530002387     0.000475559853     0.000394660122
       9        0.000020017098     0.000005476196     0.000011145153
      10        0.000004207295    -0.000031106369     0.000002655084

  **** Optimization is complete! (in 3 steps) ****
    Final optimized geometry and variables:
    Molecular point group: c1

    Geometry (in Angstrom), charge = 0, multiplicity = 1:

    H           -0.956741387304    -0.855287040155     1.231451113097
    C           -0.258415571889    -0.026634477816     1.207196114059
    N            0.532914209557    -0.095158667316     0.000356799804
    H            0.385391301661    -0.114031450340     2.073167004590
    H           -0.835485200455     0.895643139979     1.302891170035
    C           -0.238919523244     0.070245472333    -1.209768112717
    H            1.266670920278     0.578765390085     0.032955404319
    H           -0.988189250979    -0.710613563500    -1.270584797979
    H            0.406073092608    -0.019508173050    -2.074528308390
    H           -0.760532390234     1.027930911290    -1.269684739720

  Mulliken Charges: (a.u.)
   Center  Symbol    Alpha    Beta     Spin     Total
       1     H     0.45691  0.45691  0.00000  0.08618
       2     C     3.08076  3.08076  0.00000 -0.16153
       3     N     3.62902  3.62902  0.00000 -0.25805
       4     H     0.45241  0.45241  0.00000  0.09518
       5     H     0.47533  0.47533  0.00000  0.04934
       6     C     3.08148  3.08148  0.00000 -0.16296
       7     H     0.44044  0.44044  0.00000  0.11912
       8     H     0.45736  0.45736  0.00000  0.08528
       9     H     0.45196  0.45196  0.00000  0.09607
      10     H     0.47432  0.47432  0.00000  0.05136

   Total alpha = 13.00000, Total beta = 13.00000, Total charge = -0.00000
