                              Psi4 1.0.54 Driver

  ==> Input File <==

--------------------------------------------------------------------------
set {
	reference rhf
	basis cc-pvtz
}

set_num_threads( 4 )
memory 2 gb

molecule MOL {
0 1

H	 2.426866	 -1.688463	 0.802605
O	 2.824271	 -1.154299	 0.131461
C	 2.076458	 -0.067370	 -0.038225
C	 0.626018	 -0.337582	 0.258241
O	 2.538288	 0.965419	 -0.381593
C	 -0.267326	 0.883135	 0.076490
H	 0.325620	 -1.161483	 -0.378003
H	 0.574537	 -0.713685	 1.275261
C	 -1.726822	 0.642622	 0.463839
H	 -0.210803	 1.217591	 -0.953497
H	 0.129920	 1.693110	 0.675679
C	 -2.480891	 -0.340606	 -0.429852
H	 -2.243098	 1.597649	 0.438609
H	 -1.776542	 0.301208	 1.495542
C	 -3.955933	 -0.460128	 -0.060472
H	 -2.393755	 -0.020485	 -1.464726
H	 -2.024244	 -1.323637	 -0.374360
H	 -4.467673	 -1.160944	 -0.709827
H	 -4.458917	 0.497287	 -0.144505
H	 -4.076458	 -0.806900	 0.960497

	symmetry c1
}
set optking {
	frozen_dihedral = ("
		1 2 3 5
	")
}

ee,wfn = optimize('scf', return_wfn=True)
oeprop( wfn, 'DIPOLE', 'QUADRUPOLE', 'MULLIKEN_CHARGES')
f=open( 'psi4out.xyz', 'w' )
f.write( "20  " )
f.write( str(ee) + "\n" )
f.write( MOL.save_string_xyz() )
f.close()
--------------------------------------------------------------------------

    Molecular point group: c1
  Charge       = 0
  Multiplicity = 1
  Basis Set: CC-PVTZ
  Basis Set:
  @DF-RHF Final Energy:  -384.08141677968484
    Total Energy =                       -384.0814167796850711
    Molecular point group: c1
  Basis Set: CC-PVTZ
  Basis Set:
  Basis Set: CC-PVTZ
  Basis Set:
  @DF-RHF Final Energy:  -384.08240364577944
    Total Energy =                       -384.0824036457798911
  Basis Set: CC-PVTZ
  Basis Set:
  Basis Set: CC-PVTZ
  Basis Set:
  @DF-RHF Final Energy:  -384.08264469173059
    Total Energy =                       -384.0826446917304224
  Basis Set: CC-PVTZ
  Basis Set:
  Basis Set: CC-PVTZ
  Basis Set:
  @DF-RHF Final Energy:  -384.08269279140643
    Total Energy =                       -384.0826927914057478
  Basis Set: CC-PVTZ
  Basis Set:
  Basis Set: CC-PVTZ
  Basis Set:
  @DF-RHF Final Energy:  -384.08282691597344
    Total Energy =                       -384.0828269159736692
  Basis Set: CC-PVTZ
  Basis Set:
  Charge       = 0
  Multiplicity = 1
  Basis Set: CC-PVTZ
  Basis Set:

    Orbital Energies (a.u.)
    -----------------------

    Doubly Occupied:

       1A    -20.599803     2A    -20.539389     3A    -11.372715
       4A    -11.248319     5A    -11.225925     6A    -11.223274
       7A    -11.222597     8A    -11.214128     9A     -1.468843
      10A     -1.373016    11A     -1.101777    12A     -1.044566
      13A     -0.961165    14A     -0.866963    15A     -0.830099
      16A     -0.793068    17A     -0.721146    18A     -0.671765
      19A     -0.663130    20A     -0.636777    21A     -0.618956
      22A     -0.597972    23A     -0.566026    24A     -0.562689
      25A     -0.549294    26A     -0.516021    27A     -0.501326
      28A     -0.484869    29A     -0.474702    30A     -0.472478
      31A     -0.462916    32A     -0.443517

  @DF-RHF Final Energy:  -384.08282740919162

   => Energetics <=

    Nuclear Repulsion Energy =            376.4121138904938562
    One-Electron Energy =               -1268.9314200407529825
    Two-Electron Energy =                 508.4364787410678446
    DFT Exchange-Correlation Energy =       0.0000000000000000
    Empirical Dispersion Energy =           0.0000000000000000
    PCM Polarization Energy =               0.0000000000000000
    EFP Energy =                            0.0000000000000000
    Total Energy =                       -384.0828274091912817
    Molecular point group: c1
  Basis Set: CC-PVTZ
  Basis Set:

  -Total Gradient:
     Atom            X                  Y                   Z
    ------   -----------------  -----------------  -----------------
       1        0.003122661434     0.002754685750     0.004462876971
       2       -0.003592446168    -0.002948968577    -0.003399123486
       3       -0.000327930982    -0.000816902991    -0.006185547477
       4       -0.000000881400    -0.000017049707    -0.000040841039
       5        0.000860503894     0.001028604620     0.005118632803
       6       -0.000029519495     0.000000088383    -0.000011433621
       7        0.000004032650     0.000008872060     0.000030482758
       8        0.000007940831     0.000000926394     0.000032461395
       9        0.000005688572    -0.000018254047     0.000006300018
      10        0.000007966617     0.000002195662    -0.000028329995
      11       -0.000002622400     0.000001515908    -0.000004918021
      12       -0.000015534585    -0.000008616080     0.000020898858
      13       -0.000014223957     0.000011723557     0.000010701183
      14        0.000000657314    -0.000019843773     0.000013567058
      15        0.000005262693     0.000017871264    -0.000014340937
      16        0.000007511539     0.000001523395    -0.000020837933
      17       -0.000019080465    -0.000000672558     0.000006503049
      18       -0.000009670947    -0.000004602399    -0.000013246413
      19       -0.000012674065     0.000015085718     0.000004552417
      20        0.000002358921    -0.000008182584     0.000011642411

  **** Optimization is complete! (in 6 steps) ****
    Final optimized geometry and variables:
    Molecular point group: c1

    Geometry (in Angstrom), charge = 0, multiplicity = 1:

    H            2.572260242512    -1.773364035258     0.671637127027
    O            2.892357629327    -1.145323787474     0.047606560866
    C            2.086842526279    -0.077005936087    -0.046126553786
    C            0.627353368813    -0.359563879849     0.229967892091
    O            2.529264905183     0.975817338550    -0.323552016779
    C           -0.259529012166     0.876227343969     0.139403857121
    H            0.317471273531    -1.129727325114    -0.467583266493
    H            0.556782397307    -0.803738567991     1.221351027073
    C           -1.722061324552     0.618219537110     0.503587720066
    H           -0.194902840179     1.284426017114    -0.862631402291
    H            0.143189135554     1.635653708457     0.797795054109
    C           -2.483007967669    -0.283762637847    -0.466905942382
    H           -2.229058812810     1.577112425040     0.552660573961
    H           -1.778858548103     0.197644378867     1.505530842171
    C           -3.959760456745    -0.419752057833    -0.110000936232
    H           -2.390919077011     0.117310464082    -1.472617801356
    H           -2.035201808750    -1.272428999970    -0.490352097049
    H           -4.475607205539    -1.063721408183    -0.812694148293
    H           -4.454756342138     0.545347033802    -0.120313762154
    H           -4.085551409655    -0.843655363774     0.880845982605

  Mulliken Charges: (a.u.)
   Center  Symbol    Alpha    Beta     Spin     Total
       1     H     0.38818  0.38818  0.00000  0.22365
       2     O     4.15152  4.15152  0.00000 -0.30304
       3     C     2.80124  2.80124  0.00000  0.39753
       4     C     3.12808  3.12808  0.00000 -0.25616
       5     O     4.17140  4.17140  0.00000 -0.34279
       6     C     3.09657  3.09657  0.00000 -0.19314
       7     H     0.43498  0.43498  0.00000  0.13003
       8     H     0.45099  0.45099  0.00000  0.09802
       9     C     3.09980  3.09980  0.00000 -0.19961
      10     H     0.44214  0.44214  0.00000  0.11572
      11     H     0.43750  0.43750  0.00000  0.12501
      12     C     3.08690  3.08690  0.00000 -0.17381
      13     H     0.44457  0.44457  0.00000  0.11086
      14     H     0.45448  0.45448  0.00000  0.09105
      15     C     3.14936  3.14936  0.00000 -0.29872
      16     H     0.45117  0.45117  0.00000  0.09767
      17     H     0.45585  0.45585  0.00000  0.08829
      18     H     0.44724  0.44724  0.00000  0.10552
      19     H     0.45288  0.45288  0.00000  0.09423
      20     H     0.45515  0.45515  0.00000  0.08970

   Total alpha = 32.00000, Total beta = 32.00000, Total charge = -0.00000

*** Psi4 exiting successfully. Buy a developer a beer!
