  ==> Input File <==

--------------------------------------------------------------------------
set {
	reference rhf
	basis 6-31G*
}

set_num_threads( 4 )
memory 2 gb

molecule MOL {
0 1

H	 -0.821032	 -1.655889	 0.000000
O	 -1.037828	 -0.728600	 0.000000
C	 0.100509	 -0.036935	 0.000000
C	 0.825857	 -0.154113	 1.309978
O	 0.465591	 0.586156	 -0.942176
H	 0.192784	 0.209714	 2.110955
H	 1.740014	 0.418469	 1.269754
H	 1.046743	 -1.195724	 1.512392

	symmetry c1
}
set optking {
	frozen_dihedral = ("
		4 3 2 1
	")
}

ee = optimize('scf')
oeprop('DIPOLE', 'QUADRUPOLE', 'MULLIKEN_CHARGES')
f=open( 'psi4out.xyz', 'w' )
f.write( "8  " )
f.write( str(ee) + "\n" )
f.write( MOL.save_string_xyz() )
f.close()
--------------------------------------------------------------------------

    Molecular point group: c1
  Charge       = 0
  Multiplicity = 1
  Basis Set: 6-31G*
  Basis Set:
  @DF-RHF Final Energy:  -227.78718409093287
    Total Energy =                       -227.7871840909328398
    Molecular point group: c1
  Basis Set: 6-31G*
  Basis Set:
  Basis Set: 6-31G*
  Basis Set:
  @DF-RHF Final Energy:  -227.78789085011493
    Total Energy =                       -227.7878908501148771
  Basis Set: 6-31G*
  Basis Set:
  Basis Set: 6-31G*
  Basis Set:
  @DF-RHF Final Energy:  -227.78802869341675
    Total Energy =                       -227.7880286934167771
  Basis Set: 6-31G*
  Basis Set:
  Basis Set: 6-31G*
  Basis Set:
  @DF-RHF Final Energy:  -227.78924667729058
    Total Energy =                       -227.7892466772906346
  Basis Set: 6-31G*
  Basis Set:
  Basis Set: 6-31G*
  Basis Set:
  @DF-RHF Final Energy:  -227.78927537245693
    Total Energy =                       -227.7892753724568138
  Basis Set: 6-31G*
  Basis Set:
  Basis Set: 6-31G*
  Basis Set:
  @DF-RHF Final Energy:  -227.78928716262345
    Total Energy =                       -227.7892871626235660
  Basis Set: 6-31G*
  Basis Set:
  Basis Set: 6-31G*
  Basis Set:
  @DF-RHF Final Energy:  -227.78929170957213
    Total Energy =                       -227.7892917095719554
  Basis Set: 6-31G*
  Basis Set:
  Charge       = 0
  Multiplicity = 1
  Basis Set: 6-31G*
  Basis Set:

    Orbital Energies (a.u.)
    -----------------------

    Doubly Occupied:

       1A    -20.600026     2A    -20.561906     3A    -11.385917
       4A    -11.245618     5A     -1.463184     6A     -1.371152
       7A     -1.023507     8A     -0.829547     9A     -0.712443
      10A     -0.666872    11A     -0.661437    12A     -0.595273
      13A     -0.576524    14A     -0.517299    15A     -0.494654
      16A     -0.449642

  @DF-RHF Final Energy:  -227.78929202832114

   => Energetics <=

    Nuclear Repulsion Energy =            121.7543843726615336
    One-Electron Energy =                -552.7773466737208992
    Two-Electron Energy =                 203.2336702727382090
    DFT Exchange-Correlation Energy =       0.0000000000000000
    Empirical Dispersion Energy =           0.0000000000000000
    PCM Polarization Energy =               0.0000000000000000
    EFP Energy =                            0.0000000000000000
    Total Energy =                       -227.7892920283211424
    Molecular point group: c1
  Basis Set: 6-31G*
  Basis Set:

  -Total Gradient:
     Atom            X                  Y                   Z
    ------   -----------------  -----------------  -----------------
       1        0.000130806088     0.000061847952    -0.004357842987
       2       -0.000920520704     0.000855181431     0.005935957142
       3        0.002248555830    -0.003071475356    -0.002569262511
       4       -0.001426416522     0.002210519508     0.000951707959
       5       -0.000036614305    -0.000053449310     0.000045299369
       6       -0.000001310935    -0.000001294223    -0.000006364124
       7        0.000007903729    -0.000000964586     0.000012049665
       8       -0.000002403178    -0.000000365420    -0.000011544510

  **** Optimization is complete! (in 8 steps) ****
    Final optimized geometry and variables:
    Molecular point group: c1

    Geometry (in Angstrom), charge = 0, multiplicity = 1:

    H           -0.943968404324    -1.594566548652    -0.146453068133
    O           -1.105987036820    -0.659182395358    -0.136644165683
    C            0.047859586878     0.056051942186    -0.095462904147
    C            0.783666547912    -0.039959167038     1.216284221507
    O            0.362111074154     0.759547036288    -0.987096712749
    H            0.156315601433     0.380476171094     1.994687830689
    H            1.714552090387     0.504282041010     1.160597824455
    H            0.978112824531    -1.074665264559     1.480323221525

  Mulliken Charges: (a.u.)
   Center  Symbol    Alpha    Beta     Spin     Total
       1     H     0.26790  0.26790  0.00000  0.46419
       2     O     4.35981  4.35981  0.00000 -0.71961
       3     C     2.64154  2.64154  0.00000  0.71691
       4     C     3.28831  3.28831  0.00000 -0.57663
       5     O     4.24193  4.24193  0.00000 -0.48386
       6     H     0.39452  0.39452  0.00000  0.21097
       7     H     0.39396  0.39396  0.00000  0.21207
       8     H     0.41202  0.41202  0.00000  0.17595

   Total alpha = 16.00000, Total beta = 16.00000, Total charge =  0.00000
