  ==> Input File <==

--------------------------------------------------------------------------
set {
	reference rhf
	basis cc-pvtz
}

set_num_threads( 4 )
memory 2 gb

molecule MOL {
0 1

O	 -0.294688	 1.318815	 -0.000872
C	 -0.448732	 0.145721	 -0.000187
C	 -1.780748	 -0.548101	 0.000195
O	 0.550743	 -0.719877	 0.000412
H	 -1.859389	 -1.183260	 -0.872613
H	 -2.570236	 0.185547	 -0.001342
H	 -1.860233	 -1.180337	 0.875064
C	 0.758984	 -1.468218	 1.181804
H	 0.970465	 -0.813962	 2.014422
H	 1.605270	 -2.105850	 0.984546
H	 -0.111393	 -2.063887	 1.413416

	symmetry c1
}
set optking {
	frozen_dihedral = ("
		8 4 2 1
	")
}

ee = optimize('scf')
oeprop('DIPOLE', 'QUADRUPOLE', 'MULLIKEN_CHARGES')
f=open( 'psi4out.xyz', 'w' )
f.write( "11  " )
f.write( str(ee) + "\n" )
f.write( MOL.save_string_xyz() )
f.close()
--------------------------------------------------------------------------

    Molecular point group: c1
  Charge       = 0
  Multiplicity = 1
  Basis Set: CC-PVTZ
  Basis Set:
  @DF-RHF Final Energy:  -266.91619147807580
    Total Energy =                       -266.9161914780759730
    Molecular point group: c1
  Basis Set: CC-PVTZ
  Basis Set:
  Basis Set: CC-PVTZ
  Basis Set:
  @DF-RHF Final Energy:  -266.91558726124543
    Total Energy =                       -266.9155872612453777
  Basis Set: CC-PVTZ
  Basis Set:
  Basis Set: CC-PVTZ
  Basis Set:
  @DF-RHF Final Energy:  -266.91776934397262
    Total Energy =                       -266.9177693439726795
  Basis Set: CC-PVTZ
  Basis Set:
  Basis Set: CC-PVTZ
  Basis Set:
  @DF-RHF Final Energy:  -266.91888620398589
    Total Energy =                       -266.9188862039856076
  Basis Set: CC-PVTZ
  Basis Set:
  Basis Set: CC-PVTZ
  Basis Set:
  @DF-RHF Final Energy:  -266.91893238654234
    Total Energy =                       -266.9189323865420533
  Basis Set: CC-PVTZ
  Basis Set:
  Basis Set: CC-PVTZ
  Basis Set:
  @DF-RHF Final Energy:  -266.91893912208309
    Total Energy =                       -266.9189391220830885
  Basis Set: CC-PVTZ
  Basis Set:
  Basis Set: CC-PVTZ
  Basis Set:
  @DF-RHF Final Energy:  -266.91894066482047
    Total Energy =                       -266.9189406648202407
  Basis Set: CC-PVTZ
  Basis Set:
  Charge       = 0
  Multiplicity = 1
  Basis Set: CC-PVTZ
  Basis Set:

    Orbital Energies (a.u.)
    -----------------------

    Doubly Occupied:

       1A    -20.582262     2A    -20.545508     3A    -11.372163
       4A    -11.292823     5A    -11.239175     6A     -1.463909
       7A     -1.372624     8A     -1.025185     9A     -0.970907
      10A     -0.781324    11A     -0.697631    12A     -0.687015
      13A     -0.673545    14A     -0.617935    15A     -0.590181
      16A     -0.580640    17A     -0.544767    18A     -0.496869
      19A     -0.465169    20A     -0.443835

  @DF-RHF Final Energy:  -266.91894134267670

   => Energetics <=

    Nuclear Repulsion Energy =            182.7582695850550181
    One-Electron Energy =                -726.4674869702442948
    Two-Electron Energy =                 276.7902760425121755
    DFT Exchange-Correlation Energy =       0.0000000000000000
    Empirical Dispersion Energy =           0.0000000000000000
    PCM Polarization Energy =               0.0000000000000000
    EFP Energy =                            0.0000000000000000
    Total Energy =                       -266.9189413426771011
    Molecular point group: c1
  Basis Set: CC-PVTZ
  Basis Set:

  -Total Gradient:
     Atom            X                  Y                   Z
    ------   -----------------  -----------------  -----------------
       1        0.000046001131    -0.000082728327     0.001100075298
       2        0.000064214745     0.000529433295    -0.001445334140
       3        0.000024312642    -0.000012007310     0.000082962269
       4       -0.000685499797    -0.001137218872     0.000051635935
       5        0.000007261528     0.000010357396    -0.000025544028
       6       -0.000011431443    -0.000000558124    -0.000008940212
       7        0.000009244993    -0.000010239979    -0.000042077770
       8        0.000527972351     0.000726372733     0.000258643350
       9        0.000000874815    -0.000013693715     0.000012912641
      10        0.000012422673    -0.000009916623     0.000008289131
      11        0.000004626363     0.000000199526     0.000007377527

  **** Optimization is complete! (in 8 steps) ****
    Final optimized geometry and variables:
    Molecular point group: c1

    Geometry (in Angstrom), charge = 0, multiplicity = 1:

    O           -0.049260232147     1.565191307541    -0.261585232259
    C           -0.237633281968     0.405463345896    -0.237586658969
    C           -1.604149262701    -0.225529082643    -0.269287156171
    O            0.792638912937    -0.463779064993    -0.238680337155
    H           -1.668073754938    -0.898056519606    -1.115414199885
    H           -2.355258306430     0.543514518808    -0.346144164927
    H           -1.776867578247    -0.807874609432     0.626951775781
    C            1.051462553003    -1.198974189685     0.933985958944
    H            1.199782981687    -0.535651875316     1.777434284295
    H            1.959403769079    -1.751468858043     0.755518283049
    H            0.253258514155    -1.897140394934     1.155680517069

  Mulliken Charges: (a.u.)
   Center  Symbol    Alpha    Beta     Spin     Total
       1     O     4.16613  4.16613  0.00000 -0.33226
       2     C     2.80113  2.80113  0.00000  0.39773
       3     C     3.15029  3.15029  0.00000 -0.30059
       4     O     4.15744  4.15744  0.00000 -0.31488
       5     H     0.44234  0.44234  0.00000  0.11532
       6     H     0.43389  0.43389  0.00000  0.13222
       7     H     0.45162  0.45162  0.00000  0.09676
       8     C     3.03567  3.03567  0.00000 -0.07134
       9     H     0.45790  0.45790  0.00000  0.08419
      10     H     0.43945  0.43945  0.00000  0.12110
      11     H     0.46413  0.46413  0.00000  0.07174

   Total alpha = 20.00000, Total beta = 20.00000, Total charge = -0.00000
