                              Psi4 1.0.54 Driver

  ==> Input File <==

--------------------------------------------------------------------------
set {
	reference rhf
	basis cc-pvtz
}

set_num_threads( 4 )
memory 2 gb

molecule MOL {
0 1

H	 2.854761	 -0.145018	 1.243463
O	 3.546431	 -0.261222	 0.619029
C	 3.396086	 -1.485604	 -0.049968
C	 2.247287	 -1.494652	 -1.047397
H	 4.328927	 -1.654028	 -0.570949
H	 3.275806	 -2.296736	 0.665608
C	 0.865288	 -1.352110	 -0.413672
H	 2.405552	 -0.694084	 -1.763777
H	 2.293934	 -2.428665	 -1.602232
C	 -0.264115	 -1.398578	 -1.441839
H	 0.816780	 -0.417035	 0.134310
H	 0.718579	 -2.149012	 0.313453
C	 -1.675409	 -1.334426	 -0.854993
H	 -0.133671	 -0.585866	 -2.152269
H	 -0.171929	 -2.317433	 -2.014269
C	 -2.041121	 -0.006551	 -0.194127
H	 -2.385804	 -1.529897	 -1.653527
H	 -1.801619	 -2.140728	 -0.135894
C	 -3.489218	 0.042606	 0.286507
H	 -1.871351	 0.803340	 -0.900330
H	 -1.385529	 0.183670	 0.650277
C	 -4.219984	 1.311773	 -0.139038
H	 -4.022855	 -0.824300	 -0.093339
H	 -3.510372	 -0.038577	 1.370031
H	 -4.244251	 1.405725	 -1.219696
H	 -5.244345	 1.313233	 0.215630
H	 -3.732090	 2.196311	 0.257073

	symmetry c1
}
set optking {
	frozen_dihedral = ("
		20 16 19 22
	")
}

ee,wfn = optimize('scf', return_wfn=True)
oeprop( wfn, 'DIPOLE', 'QUADRUPOLE', 'MULLIKEN_CHARGES')
f=open( 'psi4out.xyz', 'w' )
f.write( "27  " )
f.write( str(ee) + "\n" )
f.write( MOL.save_string_xyz() )
f.close()
--------------------------------------------------------------------------

    Molecular point group: c1
  Charge       = 0
  Multiplicity = 1
  Basis Set: CC-PVTZ
  Basis Set:
  @DF-RHF Final Energy:  -388.42243924096994
    Total Energy =                       -388.4224392409705615
    Molecular point group: c1
  Basis Set: CC-PVTZ
  Basis Set:
  Basis Set: CC-PVTZ
  Basis Set:
  @DF-RHF Final Energy:  -388.42267139368852
    Total Energy =                       -388.4226713936884607
  Basis Set: CC-PVTZ
  Basis Set:
  Basis Set: CC-PVTZ
  Basis Set:
  @DF-RHF Final Energy:  -388.42276005185033
    Total Energy =                       -388.4227600518499912
  Basis Set: CC-PVTZ
  Basis Set:
  Basis Set: CC-PVTZ
  Basis Set:
  @DF-RHF Final Energy:  -388.42276786885202
    Total Energy =                       -388.4227678688520200
  Basis Set: CC-PVTZ
  Basis Set:
  Basis Set: CC-PVTZ
  Basis Set:
  @DF-RHF Final Energy:  -388.42276995847214
    Total Energy =                       -388.4227699584727134
  Basis Set: CC-PVTZ
  Basis Set:
  Charge       = 0
  Multiplicity = 1
  Basis Set: CC-PVTZ
  Basis Set:

    Orbital Energies (a.u.)
    -----------------------

    Doubly Occupied:

       1A    -20.545402     2A    -11.265028     3A    -11.216828
       4A    -11.214685     5A    -11.213845     6A    -11.213599
       7A    -11.213288     8A    -11.211542     9A    -11.207525
      10A     -1.363296    11A     -1.095355    12A     -1.061009
      13A     -1.012185    14A     -0.949152    15A     -0.888797
      16A     -0.821905    17A     -0.801428    18A     -0.778876
      19A     -0.696339    20A     -0.648852    21A     -0.638275
      22A     -0.615927    23A     -0.598299    24A     -0.590010
      25A     -0.581166    26A     -0.554599    27A     -0.541389
      28A     -0.529351    29A     -0.510829    30A     -0.491850
      31A     -0.483573    32A     -0.477396    33A     -0.468344
      34A     -0.459622    35A     -0.450375    36A     -0.441556
      37A     -0.425437

  @DF-RHF Final Energy:  -388.42277014973251

   => Energetics <=

    Nuclear Repulsion Energy =            459.4888760595310941
    One-Electron Energy =               -1437.2694325556644799
    Two-Electron Energy =                 589.3577863464009852
    DFT Exchange-Correlation Energy =       0.0000000000000000
    Empirical Dispersion Energy =           0.0000000000000000
    PCM Polarization Energy =               0.0000000000000000
    EFP Energy =                            0.0000000000000000
    Total Energy =                       -388.4227701497324006
    Molecular point group: c1
  Basis Set: CC-PVTZ
  Basis Set:

  -Total Gradient:
     Atom            X                  Y                   Z
    ------   -----------------  -----------------  -----------------
       1       -0.000001454738     0.000001181465     0.000001795650
       2        0.000004481622    -0.000001778774    -0.000002750772
       3       -0.000003485861    -0.000002150650     0.000003410028
       4       -0.000003629956    -0.000001543543    -0.000003411320
       5        0.000000526506    -0.000000108503    -0.000001259138
       6        0.000000782806    -0.000001773978     0.000003151083
       7        0.000004471314     0.000021263144     0.000007817014
       8       -0.000000188117     0.000001402496    -0.000000257869
       9        0.000004616648    -0.000002857162    -0.000004580566
      10       -0.000001074464    -0.000014641239    -0.000008450479
      11       -0.000004172116     0.000000155531     0.000005094920
      12       -0.000002774673    -0.000000332657    -0.000009065385
      13       -0.000005601287     0.000012677315     0.000002757052
      14       -0.000001046618    -0.000003597387     0.000005855758
      15        0.000009365737    -0.000004731529    -0.000005761704
      16       -0.001277678101    -0.002493135097    -0.003188558882
      17       -0.000003023257     0.000002414617     0.000002703953
      18        0.000003306495     0.000005199210    -0.000001435858
      19        0.001121612078     0.001741203176     0.002813298472
      20        0.000817731591     0.001703425411     0.002035891020
      21        0.000018967338     0.000002527923     0.000017414720
      22       -0.000656316782    -0.000968944171    -0.001676353213
      23       -0.000018381543    -0.000002580403    -0.000003150214
      24        0.000004809346     0.000000522423     0.000009994149
      25        0.000001770719    -0.000000719697    -0.000021077880
      26       -0.000025748632     0.000004116083     0.000008898441
      27        0.000012133957     0.000002805994     0.000008031020

  **** Optimization is complete! (in 6 steps) ****
    Final optimized geometry and variables:
    Molecular point group: c1

    Geometry (in Angstrom), charge = 0, multiplicity = 1:

    H            2.992619052165     0.490336013825     1.584639079164
    O            3.685700120500     0.373522082911     0.962085619834
    C            3.533127472568    -0.848126744384     0.288712679147
    C            2.388034657644    -0.849734840670    -0.712906972064
    H            4.467233814580    -1.018601686765    -0.229303800672
    H            3.407042406050    -1.660891837601     1.001372592149
    C            1.004598224449    -0.698753720235    -0.084361545925
    H            2.553956069355    -0.049939986400    -1.428327672538
    H            2.431094661735    -1.783799779096    -1.267916010620
    C           -0.121741200678    -0.747733831420    -1.115907077520
    H            0.957832370014     0.239131240572     0.458766207719
    H            0.852966895525    -1.491411196583     0.646217662452
    C           -1.535095644608    -0.680938046970    -0.535054162627
    H            0.011486672264     0.061995443967    -1.829241310761
    H           -0.027809384873    -1.668938651039    -1.684232740462
    C           -1.911146136258     0.655360444054     0.102108166190
    H           -2.243314364216    -0.891908063178    -1.331573962554
    H           -1.661250377701    -1.475619095849     0.197107585427
    C           -3.354133164257     0.695216546685     0.642204525467
    H           -1.769179327060     1.454777481388    -0.620071487012
    H           -1.225370979153     0.880318452552     0.911804312887
    C           -4.122462861571     1.948711349347     0.234096584207
    H           -3.898335189787    -0.171647868509     0.279616767221
    H           -3.346874888650     0.609943098887     1.723527607712
    H           -4.199777579275     2.019505321515    -0.845702788712
    H           -5.127846938983     1.944292658847     0.640021823491
    H           -3.627140393962     2.847370057845     0.587547448808

  Mulliken Charges: (a.u.)
   Center  Symbol    Alpha    Beta     Spin     Total
       1     H     0.39230  0.39230  0.00000  0.21540
       2     O     4.20550  4.20550  0.00000 -0.41101
       3     C     2.97999  2.97999  0.00000  0.04002
       4     C     3.08913  3.08913  0.00000 -0.17825
       5     H     0.44857  0.44857  0.00000  0.10287
       6     H     0.46968  0.46968  0.00000  0.06064
       7     C     3.10269  3.10269  0.00000 -0.20537
       8     H     0.45074  0.45074  0.00000  0.09851
       9     H     0.45531  0.45531  0.00000  0.08939
      10     C     3.09872  3.09872  0.00000 -0.19744
      11     H     0.45585  0.45585  0.00000  0.08829
      12     H     0.45375  0.45375  0.00000  0.09250
      13     C     3.09796  3.09796  0.00000 -0.19592
      14     H     0.45159  0.45159  0.00000  0.09682
      15     H     0.44801  0.44801  0.00000  0.10398
      16     C     3.09438  3.09438  0.00000 -0.18876
      17     H     0.44749  0.44749  0.00000  0.10502
      18     H     0.45278  0.45278  0.00000  0.09444
      19     C     3.08625  3.08625  0.00000 -0.17251
      20     H     0.45340  0.45340  0.00000  0.09320
      21     H     0.45212  0.45212  0.00000  0.09575
      22     C     3.14744  3.14744  0.00000 -0.29488
      23     H     0.45539  0.45539  0.00000  0.08921
      24     H     0.45140  0.45140  0.00000  0.09720
      25     H     0.45532  0.45532  0.00000  0.08936
      26     H     0.44961  0.44961  0.00000  0.10079
      27     H     0.45463  0.45463  0.00000  0.09073

   Total alpha = 37.00000, Total beta = 37.00000, Total charge = -0.00000

*** Psi4 exiting successfully. Buy a developer a beer!
