                              Psi4 1.0.54 Driver

  ==> Input File <==

--------------------------------------------------------------------------
set {
	reference rhf
	basis cc-pvtz
}

set_num_threads( 4 )
memory 2 gb

molecule MOL {
0 1

H	 1.093948	 2.072765	 1.199920
O	 1.328914	 1.167248	 1.103575
C	 0.706474	 0.636793	 -0.025501
C	 -0.793473	 0.591216	 0.050087
H	 1.088450	 -0.370655	 -0.141458
H	 0.996765	 1.183084	 -0.921043
C	 -1.534243	 -0.493009	 -0.013340
H	 -1.266611	 1.552628	 0.164437
H	 -1.101195	 -1.466332	 -0.144046
H	 -2.604242	 -0.437780	 0.050785

	symmetry c1
}
set optking {
	frozen_dihedral = ("
		5 3 4 7
	")
}

ee,wfn = optimize('scf', return_wfn=True)
oeprop( wfn, 'DIPOLE', 'QUADRUPOLE', 'MULLIKEN_CHARGES')
f=open( 'psi4out.xyz', 'w' )
f.write( "10  " )
f.write( str(ee) + "\n" )
f.write( MOL.save_string_xyz() )
f.close()
--------------------------------------------------------------------------

    Molecular point group: c1
  Charge       = 0
  Multiplicity = 1
  Basis Set: CC-PVTZ
  Basis Set:
  @DF-RHF Final Energy:  -191.99635920357349
    Total Energy =                       -191.9963592035734905
    Molecular point group: c1
  Basis Set: CC-PVTZ
  Basis Set:
  Basis Set: CC-PVTZ
  Basis Set:
  @DF-RHF Final Energy:  -191.99669137093656
    Total Energy =                       -191.9966913709365031
  Basis Set: CC-PVTZ
  Basis Set:
  Basis Set: CC-PVTZ
  Basis Set:
  @DF-RHF Final Energy:  -191.99674477844903
    Total Energy =                       -191.9967447784489991
  Basis Set: CC-PVTZ
  Basis Set:
  Basis Set: CC-PVTZ
  Basis Set:
  @DF-RHF Final Energy:  -191.99674841825509
    Total Energy =                       -191.9967484182551516
  Basis Set: CC-PVTZ
  Basis Set:
  Charge       = 0
  Multiplicity = 1
  Basis Set: CC-PVTZ
  Basis Set:

    Orbital Energies (a.u.)
    -----------------------

    Doubly Occupied:

       1A    -20.551684     2A    -11.276015     3A    -11.230428
       4A    -11.222597     5A     -1.369716     6A     -1.066889
       7A     -0.923711     8A     -0.782400     9A     -0.690963
      10A     -0.659324    11A     -0.621869    12A     -0.572567
      13A     -0.544007    14A     -0.493968    15A     -0.445959
      16A     -0.376426

  @DF-RHF Final Energy:  -191.99674891480703

   => Energetics <=

    Nuclear Repulsion Energy =            117.5657001224097797
    One-Electron Energy =                -493.4678500579028650
    Two-Electron Energy =                 183.9054010206859857
    DFT Exchange-Correlation Energy =       0.0000000000000000
    Empirical Dispersion Energy =           0.0000000000000000
    PCM Polarization Energy =               0.0000000000000000
    EFP Energy =                            0.0000000000000000
    Total Energy =                       -191.9967489148070854
    Molecular point group: c1
  Basis Set: CC-PVTZ
  Basis Set:

  -Total Gradient:
     Atom            X                  Y                   Z
    ------   -----------------  -----------------  -----------------
       1       -0.000031575997    -0.000001096349     0.000002055560
       2        0.000063997014     0.000009498045     0.000004464380
       3        0.000000915596    -0.000121218250     0.000899007421
       4       -0.000028646195     0.000130527092    -0.000891732923
       5       -0.000045167397     0.000056676855    -0.000539034255
       6        0.000011320031     0.000006345363     0.000030092893
       7        0.000025141708    -0.000047025838     0.000484777920
       8        0.000003465608    -0.000016559368    -0.000010609545
       9       -0.000007943364    -0.000002956231     0.000010347561
      10        0.000008493000    -0.000014191317     0.000010630988

  **** Optimization is complete! (in 5 steps) ****
    Final optimized geometry and variables:
    Molecular point group: c1

    Geometry (in Angstrom), charge = 0, multiplicity = 1:

    H            1.095447638374     1.525764163075     0.935139439352
    O            1.308571202262     0.616638410959     0.827412096000
    C            0.713270483186     0.113911982461    -0.339189962190
    C           -0.786805331239     0.095931590393    -0.269375252317
    H            1.089066919959    -0.890601042625    -0.469097709399
    H            1.030831851094     0.694683586461    -1.202330263546
    C           -1.525145115481    -0.987900057538    -0.354793281728
    H           -1.266508536898     1.053375995746    -0.140052671404
    H           -1.084676284789    -1.961030612191    -0.476863789636
    H           -2.596927728496    -0.944505886480    -0.307880831390

  Mulliken Charges: (a.u.)
   Center  Symbol    Alpha    Beta     Spin     Total
       1     H     0.39396  0.39396  0.00000  0.21209
       2     O     4.19839  4.19839  0.00000 -0.39678
       3     C     2.95649  2.95649  0.00000  0.08702
       4     C     3.06701  3.06701  0.00000 -0.13402
       5     H     0.45506  0.45506  0.00000  0.08987
       6     H     0.47157  0.47157  0.00000  0.05685
       7     C     3.16792  3.16792  0.00000 -0.33585
       8     H     0.43090  0.43090  0.00000  0.13821
       9     H     0.43007  0.43007  0.00000  0.13987
      10     H     0.42863  0.42863  0.00000  0.14275

   Total alpha = 16.00000, Total beta = 16.00000, Total charge =  0.00000

*** Psi4 exiting successfully. Buy a developer a beer!
