  ==> Input File <==

--------------------------------------------------------------------------
set {
	reference rhf
	basis cc-pvtz
}

set_num_threads( 4 )
memory 2 gb

molecule MOL {
0 1

H	 2.581774	 -0.800676	 -0.305925
O	 1.675515	 -0.612943	 -0.465627
C	 1.135873	 0.113391	 0.608264
C	 0.027642	 1.012027	 0.090274
H	 1.902972	 0.727968	 1.072615
H	 0.756163	 -0.561896	 1.370018
C	 -1.138737	 0.285728	 -0.581921
H	 0.464661	 1.708096	 -0.618252
H	 -0.340737	 1.603071	 0.925246
C	 -1.933983	 -0.631436	 0.343653
H	 -0.763151	 -0.285569	 -1.422081
H	 -1.808359	 1.035291	 -0.992333
H	 -2.789188	 -1.049673	 -0.174718
H	 -1.335629	 -1.461368	 0.700418
H	 -2.305435	 -0.092167	 1.209725

	symmetry c1
}
set optking {
	frozen_dihedral = ("
		1 2 3 4
	")
}

ee = optimize('scf')
oeprop('DIPOLE', 'QUADRUPOLE', 'MULLIKEN_CHARGES')
f=open( 'psi4out.xyz', 'w' )
f.write( "15  " )
f.write( str(ee) + "\n" )
f.write( MOL.save_string_xyz() )
f.close()
--------------------------------------------------------------------------

    Molecular point group: c1
  Charge       = 0
  Multiplicity = 1
  Basis Set: CC-PVTZ
  Basis Set:
  @DF-RHF Final Energy:  -232.23670287149690
    Total Energy =                       -232.2367028714968455
    Molecular point group: c1
  Basis Set: CC-PVTZ
  Basis Set:
  Basis Set: CC-PVTZ
  Basis Set:
  @DF-RHF Final Energy:  -232.23674283554595
    Total Energy =                       -232.2367428355457264
  Basis Set: CC-PVTZ
  Basis Set:
  Basis Set: CC-PVTZ
  Basis Set:
  @DF-RHF Final Energy:  -232.23675177048108
    Total Energy =                       -232.2367517704812485
  Basis Set: CC-PVTZ
  Basis Set:
  Basis Set: CC-PVTZ
  Basis Set:
  @DF-RHF Final Energy:  -232.23675773702342
    Total Energy =                       -232.2367577370234244
  Basis Set: CC-PVTZ
  Basis Set:
  Charge       = 0
  Multiplicity = 1
  Basis Set: CC-PVTZ
  Basis Set:

    Orbital Energies (a.u.)
    -----------------------

    Doubly Occupied:

       1A    -20.545841     2A    -11.265535     3A    -11.210702
       4A    -11.206960     5A    -11.201880     6A     -1.363495
       7A     -1.064979     8A     -0.970902     9A     -0.869459
      10A     -0.776463    11A     -0.705350    12A     -0.648467
      13A     -0.611164    14A     -0.571856    15A     -0.566675
      16A     -0.532494    17A     -0.510552    18A     -0.478682
      19A     -0.467027    20A     -0.452109    21A     -0.431317

  @DF-RHF Final Energy:  -232.23675796359450

   => Energetics <=

    Nuclear Repulsion Energy =            191.8813361818261853
    One-Electron Energy =                -695.3323725330667457
    Two-Electron Energy =                 271.2142783876460612
    DFT Exchange-Correlation Energy =       0.0000000000000000
    Empirical Dispersion Energy =           0.0000000000000000
    PCM Polarization Energy =               0.0000000000000000
    EFP Energy =                            0.0000000000000000
    Total Energy =                       -232.2367579635944708
    Molecular point group: c1
  Basis Set: CC-PVTZ
  Basis Set:

  -Total Gradient:
     Atom            X                  Y                   Z
    ------   -----------------  -----------------  -----------------
       1        0.000447675094     0.001353112587    -0.000761812158
       2       -0.000289272169    -0.001399504917     0.000857257521
       3       -0.000788200674    -0.000675864384     0.000047607233
       4        0.000633845663     0.000684232936    -0.000159474086
       5        0.000022002462     0.000007338325     0.000007913143
       6       -0.000033463825     0.000026350594     0.000005517693
       7        0.000004031065     0.000008956745    -0.000015978479
       8        0.000004171966    -0.000020788766     0.000011615050
       9       -0.000000734227     0.000014360437    -0.000001512552
      10        0.000002496132    -0.000003357523     0.000005598762
      11       -0.000002144614     0.000002390249    -0.000000501187
      12        0.000002543626     0.000004160992    -0.000000789751
      13        0.000001590983    -0.000000125504     0.000000845344
      14       -0.000000191819    -0.000000072726     0.000001921520
      15       -0.000004349658    -0.000001189044     0.000001791947

  **** Optimization is complete! (in 5 steps) ****
    Final optimized geometry and variables:
    Molecular point group: c1

    Geometry (in Angstrom), charge = 0, multiplicity = 1:

    H            2.565482204396    -0.830181675567    -0.304636517398
    O            1.659706033607    -0.638645559118    -0.456461342207
    C            1.134932198306     0.116136451337     0.607591950617
    C            0.024549109804     1.016438637317     0.095013554453
    H            1.909776904588     0.734624714192     1.051559897857
    H            0.767282595694    -0.546432953497     1.385445556185
    C           -1.138247089974     0.288182987218    -0.581621733897
    H            0.458932762529     1.717412041997    -0.610193668365
    H           -0.347964744723     1.600445211455     0.933451981644
    C           -1.928866439326    -0.637306019319     0.339550538559
    H           -0.758733061831    -0.277959881871    -1.423683930943
    H           -1.810969453719     1.036051665828    -0.990018308947
    H           -2.779327450413    -1.060775023305    -0.182315836911
    H           -1.324400987728    -1.462957131546     0.695505154452
    H           -2.306967891924    -0.102887910086     1.205755290154

  Mulliken Charges: (a.u.)
   Center  Symbol    Alpha    Beta     Spin     Total
       1     H     0.39369  0.39369  0.00000  0.21262
       2     O     4.20124  4.20124  0.00000 -0.40247
       3     C     2.97650  2.97650  0.00000  0.04699
       4     C     3.09049  3.09049  0.00000 -0.18098
       5     H     0.46389  0.46389  0.00000  0.07223
       6     H     0.47101  0.47101  0.00000  0.05798
       7     C     3.08812  3.08812  0.00000 -0.17624
       8     H     0.45104  0.45104  0.00000  0.09791
       9     H     0.45597  0.45597  0.00000  0.08807
      10     C     3.15458  3.15458  0.00000 -0.30917
      11     H     0.44666  0.44666  0.00000  0.10668
      12     H     0.45055  0.45055  0.00000  0.09890
      13     H     0.44688  0.44688  0.00000  0.10624
      14     H     0.45193  0.45193  0.00000  0.09615
      15     H     0.45745  0.45745  0.00000  0.08509

   Total alpha = 21.00000, Total beta = 21.00000, Total charge =  0.00000
