  ==> Input File <==

--------------------------------------------------------------------------
set {
	reference rhf
	basis cc-pvtz
}

set_num_threads( 4 )
memory 2 gb

molecule MOL {
0 1

H	 1.707344	 -1.258646	 1.460776
C	 1.830917	 -0.334180	 0.881341
C	 0.586743	 0.496846	 0.732261
O	 2.886177	 -0.059020	 0.424890
C	 -0.554654	 -0.292621	 0.086567
H	 0.830873	 1.379519	 0.155957
H	 0.286818	 0.815391	 1.728480
C	 -1.846385	 0.513195	 -0.016346
H	 -0.249839	 -0.614112	 -0.905234
H	 -0.740646	 -1.197144	 0.660081
C	 -3.089953	 -0.365049	 -0.098564
H	 -1.798267	 1.154820	 -0.891143
H	 -1.925398	 1.173265	 0.842889
H	 -3.055079	 -1.012299	 -0.968245
H	 -3.988403	 0.236438	 -0.170014
H	 -3.183055	 -0.995885	 0.779079

	symmetry c1
}
set optking {
	frozen_dihedral = ("
		9 5 8 12
	")
}

ee = optimize('scf')
oeprop('DIPOLE', 'QUADRUPOLE', 'MULLIKEN_CHARGES')
f=open( 'psi4out.xyz', 'w' )
f.write( "16  " )
f.write( str(ee) + "\n" )
f.write( MOL.save_string_xyz() )
f.close()
--------------------------------------------------------------------------

    Molecular point group: c1
  Charge       = 0
  Multiplicity = 1
  Basis Set: CC-PVTZ
  Basis Set:
  @DF-RHF Final Energy:  -270.11713527817358
    Total Energy =                       -270.1171352781735777
    Molecular point group: c1
  Basis Set: CC-PVTZ
  Basis Set:
  Basis Set: CC-PVTZ
  Basis Set:
  @DF-RHF Final Energy:  -270.11734599982714
    Total Energy =                       -270.1173459998272506
  Basis Set: CC-PVTZ
  Basis Set:
  Basis Set: CC-PVTZ
  Basis Set:
  @DF-RHF Final Energy:  -270.11734117147216
    Total Energy =                       -270.1173411714719919
  Basis Set: CC-PVTZ
  Basis Set:
  Basis Set: CC-PVTZ
  Basis Set:
  @DF-RHF Final Energy:  -270.11736111772615
    Total Energy =                       -270.1173611177261478
  Basis Set: CC-PVTZ
  Basis Set:
  Basis Set: CC-PVTZ
  Basis Set:
  @DF-RHF Final Energy:  -270.11741747475105
    Total Energy =                       -270.1174174747511643
  Basis Set: CC-PVTZ
  Basis Set:
  Charge       = 0
  Multiplicity = 1
  Basis Set: CC-PVTZ
  Basis Set:

    Orbital Energies (a.u.)
    -----------------------

    Doubly Occupied:

       1A    -20.551976     2A    -11.321068     3A    -11.234738
       4A    -11.233824     5A    -11.227518     6A    -11.216800
       7A     -1.406684     8A     -1.097194     9A     -1.019923
      10A     -0.906402    11A     -0.812424    12A     -0.793644
      13A     -0.682601    14A     -0.645809    15A     -0.634650
      16A     -0.608441    17A     -0.580936    18A     -0.550111
      19A     -0.533569    20A     -0.508926    21A     -0.488337
      22A     -0.483194    23A     -0.478862    24A     -0.411134

  @DF-RHF Final Energy:  -270.11741783650632

   => Energetics <=

    Nuclear Repulsion Energy =            229.3503671349542685
    One-Electron Energy =                -820.0780371740926284
    Two-Electron Energy =                 320.6102522026320116
    DFT Exchange-Correlation Energy =       0.0000000000000000
    Empirical Dispersion Energy =           0.0000000000000000
    PCM Polarization Energy =               0.0000000000000000
    EFP Energy =                            0.0000000000000000
    Total Energy =                       -270.1174178365063767
    Molecular point group: c1
  Basis Set: CC-PVTZ
  Basis Set:

  -Total Gradient:
     Atom            X                  Y                   Z
    ------   -----------------  -----------------  -----------------
       1       -0.000001881684    -0.000004239834    -0.000000101634
       2        0.000001460412    -0.000020368680    -0.000006672765
       3       -0.000040790818    -0.000018302324    -0.000028043863
       4       -0.000011748859     0.000021128293     0.000017218926
       5       -0.003077116895    -0.004777745245     0.000006645545
       6       -0.000000933076     0.000007509953     0.000002774751
       7        0.000023236928     0.000007959421     0.000011637038
       8        0.002549271683     0.004362628515     0.002660081484
       9        0.002188552022     0.003337604573    -0.000440390264
      10       -0.000012096346     0.000012011232    -0.000002574305
      11        0.000019517046    -0.000017549496    -0.000001580512
      12       -0.001647417420    -0.002914723993    -0.002225641041
      13        0.000009843410     0.000002524652     0.000005274573
      14       -0.000003302776    -0.000008219537     0.000001043337
      15        0.000011176827     0.000006916311    -0.000003766560
      16       -0.000007770455     0.000002866159     0.000004095290

  **** Optimization is complete! (in 6 steps) ****
    Final optimized geometry and variables:
    Molecular point group: c1

    Geometry (in Angstrom), charge = 0, multiplicity = 1:

    H            1.788154095371    -1.240865538891     1.112533116550
    C            1.881521458716    -0.317032539788     0.526287789140
    C            0.625005411862     0.501835785546     0.421655598107
    O            2.916401403939    -0.034354983785     0.029330659721
    C           -0.530320459531    -0.299266113119    -0.188933110334
    H            0.840232861148     1.387917277176    -0.161443648146
    H            0.355071032658     0.815848511500     1.427572381177
    C           -1.814613300999     0.524734475190    -0.310412636631
    H           -0.222359839100    -0.629182466109    -1.176299410983
    H           -0.712411479833    -1.186454269070     0.409982540174
    C           -3.061254858435    -0.345520149297    -0.447673194871
    H           -1.745909405536     1.158191304061    -1.188798655860
    H           -1.921648018248     1.176009520017     0.550848380009
    H           -2.982811347816    -1.007855109876    -1.303463817924
    H           -3.948975343839     0.261624041942    -0.580711683407
    H           -3.208973536969    -0.960979271035     0.433274730778

  Mulliken Charges: (a.u.)
   Center  Symbol    Alpha    Beta     Spin     Total
       1     H     0.46541  0.46541  0.00000  0.06918
       2     C     2.91038  2.91038  0.00000  0.17925
       3     C     3.07727  3.07727  0.00000 -0.15454
       4     O     4.16392  4.16392  0.00000 -0.32784
       5     C     3.10260  3.10260  0.00000 -0.20521
       6     H     0.44239  0.44239  0.00000  0.11523
       7     H     0.45040  0.45040  0.00000  0.09919
       8     C     3.08460  3.08460  0.00000 -0.16920
       9     H     0.44481  0.44481  0.00000  0.11039
      10     H     0.45183  0.45183  0.00000  0.09633
      11     C     3.14849  3.14849  0.00000 -0.29697
      12     H     0.44926  0.44926  0.00000  0.10149
      13     H     0.45326  0.45326  0.00000  0.09347
      14     H     0.45315  0.45315  0.00000  0.09370
      15     H     0.44711  0.44711  0.00000  0.10578
      16     H     0.45512  0.45512  0.00000  0.08975

   Total alpha = 24.00000, Total beta = 24.00000, Total charge =  0.00000
