  ==> Input File <==

--------------------------------------------------------------------------
set {
	reference rhf
	basis 6-31G*
}

set_num_threads( 4 )
memory 2 gb

molecule MOL {
0 1

O	 0.391030	 1.298905	 0.000133
C	 0.503002	 0.111612	 0.000005
C	 -0.702327	 -0.811998	 -0.000075
C	 1.863306	 -0.554493	 0.000030
C	 -0.406840	 -2.201413	 -0.551768
H	 -1.076774	 -0.872406	 1.020176
H	 -1.493058	 -0.329025	 -0.571256
H	 0.362411	 -2.694423	 0.029965
H	 -1.300994	 -2.815544	 -0.527566
H	 -0.057565	 -2.146226	 -1.575576
H	 1.974395	 -1.189404	 -0.874166
H	 2.638695	 0.198920	 -0.000196
H	 1.974487	 -1.188655	 0.874727

	symmetry c1
}
set optking {
	frozen_dihedral = ("
		6 3 2 1
	")
}

ee = optimize('scf')
oeprop('DIPOLE', 'QUADRUPOLE', 'MULLIKEN_CHARGES')
f=open( 'psi4out.xyz', 'w' )
f.write( "13  " )
f.write( str(ee) + "\n" )
f.write( MOL.save_string_xyz() )
f.close()
--------------------------------------------------------------------------

    Molecular point group: c1
  Charge       = 0
  Multiplicity = 1
  Basis Set: 6-31G*
  Basis Set:
  @DF-RHF Final Energy:  -230.99198775257781
    Total Energy =                       -230.9919877525777565
    Molecular point group: c1
  Basis Set: 6-31G*
  Basis Set:
  Basis Set: 6-31G*
  Basis Set:
  @DF-RHF Final Energy:  -230.99271070754742
    Total Energy =                       -230.9927107075474169
  Basis Set: 6-31G*
  Basis Set:
  Basis Set: 6-31G*
  Basis Set:
  @DF-RHF Final Energy:  -230.99369685237426
    Total Energy =                       -230.9936968523743417
  Basis Set: 6-31G*
  Basis Set:
  Basis Set: 6-31G*
  Basis Set:
  @DF-RHF Final Energy:  -230.99390773437355
    Total Energy =                       -230.9939077343736074
  Basis Set: 6-31G*
  Basis Set:
  Basis Set: 6-31G*
  Basis Set:
  @DF-RHF Final Energy:  -230.99385480329207
    Total Energy =                       -230.9938548032918106
  Basis Set: 6-31G*
  Basis Set:
  Basis Set: 6-31G*
  Basis Set:
  @DF-RHF Final Energy:  -230.99395578548160
    Total Energy =                       -230.9939557854815462
  Basis Set: 6-31G*
  Basis Set:
  Basis Set: 6-31G*
  Basis Set:
  @DF-RHF Final Energy:  -230.99395736444009
    Total Energy =                       -230.9939573644400070
  Basis Set: 6-31G*
  Basis Set:
  Charge       = 0
  Multiplicity = 1
  Basis Set: 6-31G*
  Basis Set:

    Orbital Energies (a.u.)
    -----------------------

    Doubly Occupied:

       1A    -20.547306     2A    -11.326601     3A    -11.234236
       4A    -11.229122     5A    -11.228651     6A     -1.393923
       7A     -1.067279     8A     -0.993743     9A     -0.890851
      10A     -0.731891    11A     -0.652658    12A     -0.643865
      13A     -0.623483    14A     -0.585471    15A     -0.557175
      16A     -0.544617    17A     -0.529559    18A     -0.512146
      19A     -0.475492    20A     -0.399635

  @DF-RHF Final Energy:  -230.99395759325026

   => Energetics <=

    Nuclear Repulsion Energy =            176.6992853123379916
    One-Electron Energy =                -663.0510791274402891
    Two-Electron Energy =                 255.3578362218521249
    DFT Exchange-Correlation Energy =       0.0000000000000000
    Empirical Dispersion Energy =           0.0000000000000000
    PCM Polarization Energy =               0.0000000000000000
    EFP Energy =                            0.0000000000000000
    Total Energy =                       -230.9939575932501441
    Molecular point group: c1
  Basis Set: 6-31G*
  Basis Set:

  -Total Gradient:
     Atom            X                  Y                   Z
    ------   -----------------  -----------------  -----------------
       1        0.000021349195     0.000002471311     0.001434872619
       2       -0.000185051289     0.000216744456    -0.002040481164
       3        0.001010253973    -0.001317478302     0.000842833345
       4       -0.000000765052     0.000007426142    -0.000028017467
       5        0.000000006640    -0.000008926162     0.000000399328
       6       -0.000844762582     0.001092227184    -0.000238276831
       7        0.000006949120    -0.000001154806    -0.000000529342
       8       -0.000004540783     0.000003096128     0.000002150413
       9       -0.000006109767    -0.000000917219    -0.000000755241
      10        0.000006837538     0.000005245196     0.000004029226
      11       -0.000004334220    -0.000000938410     0.000008718128
      12        0.000000700730     0.000001417218     0.000005655497
      13       -0.000000533505     0.000000787261     0.000009401489

  **** Optimization is complete! (in 8 steps) ****
    Final optimized geometry and variables:
    Molecular point group: c1

    Geometry (in Angstrom), charge = 0, multiplicity = 1:

    O            0.028745559533     1.728781575248     0.100522198638
    C            0.189252323243     0.546351101156     0.096416412369
    C           -1.017462182288    -0.382723408790     0.109839193445
    C            1.579154386456    -0.051365028944     0.142073512707
    C           -0.813556436836    -1.796163819364    -0.435320405645
    H           -1.354246331165    -0.424522828787     1.144206069547
    H           -1.802768012660     0.128254988902    -0.435228427825
    H           -0.081763336759    -2.354982552658     0.137787395115
    H           -1.747333064293    -2.346077996336    -0.395786163753
    H           -0.487587592714    -1.780985020838    -1.470703931493
    H            1.777365636401    -0.635424095630    -0.751108775664
    H            2.305054698355     0.745792577393     0.218517084773
    H            1.680574392000    -0.719150633037     0.992746862505

  Mulliken Charges: (a.u.)
   Center  Symbol    Alpha    Beta     Spin     Total
       1     O     4.26230  4.26230  0.00000 -0.52460
       2     C     2.73594  2.73594  0.00000  0.52811
       3     C     3.20423  3.20423  0.00000 -0.40846
       4     C     3.29215  3.29215  0.00000 -0.58430
       5     C     3.25011  3.25011  0.00000 -0.50023
       6     H     0.40297  0.40297  0.00000  0.19405
       7     H     0.39792  0.39792  0.00000  0.20416
       8     H     0.41698  0.41698  0.00000  0.16604
       9     H     0.41089  0.41089  0.00000  0.17822
      10     H     0.41577  0.41577  0.00000  0.16846
      11     H     0.40632  0.40632  0.00000  0.18736
      12     H     0.39541  0.39541  0.00000  0.20917
      13     H     0.40900  0.40900  0.00000  0.18201

   Total alpha = 20.00000, Total beta = 20.00000, Total charge =  0.00000
