                              Psi4 1.0.54 Driver

  ==> Input File <==

--------------------------------------------------------------------------
set {
	reference rhf
	basis cc-pvtz
}

set_num_threads( 4 )
memory 2 gb

molecule MOL {
0 1

H	 -3.941973	 0.934228	 -0.390224
C	 -3.240162	 0.342701	 0.161016
C	 -2.105997	 -0.000418	 -0.398703
H	 -3.485368	 0.047206	 1.162193
O	 -1.189946	 -0.765863	 0.237511
H	 -1.846458	 0.297311	 -1.398265
C	 0.026572	 -0.995256	 -0.379403
C	 1.057223	 0.049888	 -0.004615
H	 -0.054361	 -1.010670	 -1.459674
H	 0.397526	 -1.952058	 -0.044198
F	 0.506061	 1.246191	 -0.051092
F	 1.518369	 -0.130295	 1.214559
F	 2.082009	 0.046896	 -0.822089

	symmetry c1
}
set optking {
	frozen_dihedral = ("
		11 8 7 9
	")
}

ee,wfn = optimize('scf', return_wfn=True)
oeprop( wfn, 'DIPOLE', 'QUADRUPOLE', 'MULLIKEN_CHARGES')
f=open( 'psi4out.xyz', 'w' )
f.write( "13  " )
f.write( str(ee) + "\n" )
f.write( MOL.save_string_xyz() )
f.close()
--------------------------------------------------------------------------

    Molecular point group: c1
  Charge       = 0
  Multiplicity = 1
  Basis Set: CC-PVTZ
  Basis Set:
  @DF-RHF Final Energy:  -527.74012484330569
    Total Energy =                       -527.7401248433059209
    Molecular point group: c1
  Basis Set: CC-PVTZ
  Basis Set:
  Basis Set: CC-PVTZ
  Basis Set:
  @DF-RHF Final Energy:  -527.74064465796755
    Total Energy =                       -527.7406446579680050
  Basis Set: CC-PVTZ
  Basis Set:
  Basis Set: CC-PVTZ
  Basis Set:
  @DF-RHF Final Energy:  -527.74076139033195
    Total Energy =                       -527.7407613903322954
  Basis Set: CC-PVTZ
  Basis Set:
  Basis Set: CC-PVTZ
  Basis Set:
  @DF-RHF Final Energy:  -527.74078330718453
    Total Energy =                       -527.7407833071843015
  Basis Set: CC-PVTZ
  Basis Set:
  Basis Set: CC-PVTZ
  Basis Set:
  @DF-RHF Final Energy:  -527.74078999225821
    Total Energy =                       -527.7407899922582146
  Basis Set: CC-PVTZ
  Basis Set:
  Basis Set: CC-PVTZ
  Basis Set:
  @DF-RHF Final Energy:  -527.74079363314468
    Total Energy =                       -527.7407936331450173
  Basis Set: CC-PVTZ
  Basis Set:
  Charge       = 0
  Multiplicity = 1
  Basis Set: CC-PVTZ
  Basis Set:

    Orbital Energies (a.u.)
    -----------------------

    Doubly Occupied:

       1A    -26.342925     2A    -26.340710     3A    -26.336562
       4A    -20.604513     5A    -11.498249     6A    -11.319925
       7A    -11.298792     8A    -11.213894     9A     -1.750557
      10A     -1.648393    11A     -1.643763    12A     -1.445171
      13A     -1.087716    14A     -1.020419    15A     -0.932422
      16A     -0.844025    17A     -0.839608    18A     -0.827511
      19A     -0.797057    20A     -0.731231    21A     -0.719772
      22A     -0.704380    23A     -0.680716    24A     -0.669144
      25A     -0.660973    26A     -0.650615    27A     -0.638782
      28A     -0.587689    29A     -0.565801    30A     -0.529746
      31A     -0.517853    32A     -0.356777

  @DF-RHF Final Energy:  -527.74079461397787

   => Energetics <=

    Nuclear Repulsion Energy =            413.1844701380098854
    One-Electron Energy =               -1550.2391464140050630
    Two-Electron Energy =                 609.3138816620173657
    DFT Exchange-Correlation Energy =       0.0000000000000000
    Empirical Dispersion Energy =           0.0000000000000000
    PCM Polarization Energy =               0.0000000000000000
    EFP Energy =                            0.0000000000000000
    Total Energy =                       -527.7407946139778687
    Molecular point group: c1
  Basis Set: CC-PVTZ
  Basis Set:

  -Total Gradient:
     Atom            X                  Y                   Z
    ------   -----------------  -----------------  -----------------
       1       -0.000009036854     0.000001678691     0.000004615458
       2        0.000021403589     0.000020944024    -0.000004567796
       3       -0.000113500705     0.000014529404     0.000022919106
       4        0.000001825909     0.000004268436     0.000000783967
       5       -0.000014121624     0.000008967107    -0.000015429545
       6        0.000019013902    -0.000013688871    -0.000008468992
       7       -0.003648976693     0.003251540428     0.001257202245
       8        0.001685345258    -0.000144334245    -0.004251038091
       9        0.002795107099    -0.002795632272    -0.000148878275
      10        0.000011914979     0.000001792383    -0.000028743868
      11       -0.000877204510    -0.000317806862     0.003218913329
      12        0.000022350971    -0.000005576942     0.000019515485
      13        0.000105878685    -0.000026681282    -0.000066823026

  **** Optimization is complete! (in 7 steps) ****
    Final optimized geometry and variables:
    Molecular point group: c1

    Geometry (in Angstrom), charge = 0, multiplicity = 1:

    H           -3.958415055350     0.956779026169    -0.336885278776
    C           -3.260151884300     0.339778575358     0.190423066536
    C           -2.114545787193     0.038482313443    -0.369897864972
    H           -3.517456670121    -0.013408771033     1.169651641803
    O           -1.199184676999    -0.750223891309     0.238587392028
    H           -1.842956140385     0.393548370426    -1.347249583991
    C            0.004586767886    -0.978460429603    -0.398559887506
    C            1.063590755608     0.042973451394    -0.020372434065
    H           -0.077230759652    -0.998885040596    -1.478618324886
    H            0.371020542454    -1.943286706263    -0.080106147785
    F            0.601653416204     1.271977064777    -0.053780142551
    F            1.525243574455    -0.165706356224     1.192849665899
    F            2.081601831608    -0.037533815300    -0.851985865773

  Mulliken Charges: (a.u.)
   Center  Symbol    Alpha    Beta     Spin     Total
       1     H     0.42521  0.42521  0.00000  0.14958
       2     C     3.19726  3.19726  0.00000 -0.39453
       3     C     2.95680  2.95680  0.00000  0.08640
       4     H     0.42493  0.42493  0.00000  0.15014
       5     O     4.14359  4.14359  0.00000 -0.28718
       6     H     0.43471  0.43471  0.00000  0.13057
       7     C     3.02389  3.02389  0.00000 -0.04778
       8     C     2.67339  2.67339  0.00000  0.65322
       9     H     0.45544  0.45544  0.00000  0.08913
      10     H     0.43626  0.43626  0.00000  0.12748
      11     F     4.60760  4.60760  0.00000 -0.21521
      12     F     4.60904  4.60904  0.00000 -0.21807
      13     F     4.61187  4.61187  0.00000 -0.22375

   Total alpha = 32.00000, Total beta = 32.00000, Total charge = -0.00000

*** Psi4 exiting successfully. Buy a developer a beer!
