  ==> Input File <==

--------------------------------------------------------------------------
set {
	reference rhf
	basis cc-pvtz
}

set_num_threads( 4 )
memory 2 gb

molecule MOL {
0 1

H	 -0.000105	 1.988529	 0.748933
O	 -0.000098	 1.879786	 -0.188206
C	 -0.000014	 0.545691	 -0.532416
C	 -0.794692	 -0.264437	 0.493233
C	 1.432718	 0.056982	 -0.751997
H	 -0.513939	 0.446667	 -1.477264
F	 -2.027522	 0.177599	 0.533177
F	 -0.834118	 -1.539199	 0.198039
F	 -0.286345	 -0.138772	 1.700364
F	 1.986913	 0.756876	 -1.711098
F	 1.480814	 -1.205156	 -1.096104
F	 2.163611	 0.214775	 0.330718

	symmetry c1
}
set optking {
	frozen_dihedral = ("
		6 3 2 1
	")
}

ee = optimize('scf')
oeprop('DIPOLE', 'QUADRUPOLE', 'MULLIKEN_CHARGES')
f=open( 'psi4out.xyz', 'w' )
f.write( "12  " )
f.write( str(ee) + "\n" )
f.write( MOL.save_string_xyz() )
f.close()
--------------------------------------------------------------------------

    Molecular point group: c1
  Charge       = 0
  Multiplicity = 1
  Basis Set: CC-PVTZ
  Basis Set:
  @DF-RHF Final Energy:  -786.58765731817050
    Total Energy =                       -786.5876573181700451
    Molecular point group: c1
  Basis Set: CC-PVTZ
  Basis Set:
  Basis Set: CC-PVTZ
  Basis Set:
  @DF-RHF Final Energy:  -786.58788071674371
    Total Energy =                       -786.5878807167437117
  Basis Set: CC-PVTZ
  Basis Set:
  Basis Set: CC-PVTZ
  Basis Set:
  @DF-RHF Final Energy:  -786.58792397128263
    Total Energy =                       -786.5879239712826347
  Basis Set: CC-PVTZ
  Basis Set:
  Basis Set: CC-PVTZ
  Basis Set:
  @DF-RHF Final Energy:  -786.58792880999226
    Total Energy =                       -786.5879288099923770
  Basis Set: CC-PVTZ
  Basis Set:
  Charge       = 0
  Multiplicity = 1
  Basis Set: CC-PVTZ
  Basis Set:

    Orbital Energies (a.u.)
    -----------------------

    Doubly Occupied:

       1A    -26.363775     2A    -26.362146     3A    -26.358910
       4A    -26.353202     5A    -26.353025     6A    -26.349677
       7A    -20.608744     8A    -11.525159     9A    -11.515458
      10A    -11.351705    11A     -1.775170    12A     -1.764061
      13A     -1.671346    14A     -1.667097    15A     -1.660093
      16A     -1.657928    17A     -1.438471    18A     -1.103927
      19A     -1.002561    20A     -0.945156    21A     -0.873570
      22A     -0.869327    23A     -0.861483    24A     -0.850831
      25A     -0.839522    26A     -0.818332    27A     -0.750684
      28A     -0.737689    29A     -0.728805    30A     -0.725451
      31A     -0.698509    32A     -0.695937    33A     -0.691164
      34A     -0.679838    35A     -0.675378    36A     -0.672284
      37A     -0.661270    38A     -0.658053    39A     -0.623961
      40A     -0.552664    41A     -0.509261

  @DF-RHF Final Energy:  -786.58792949012593

   => Energetics <=

    Nuclear Repulsion Energy =            670.9489643835569268
    One-Electron Energy =               -2429.0705467459333704
    Two-Electron Energy =                 971.5336528722511957
    DFT Exchange-Correlation Energy =       0.0000000000000000
    Empirical Dispersion Energy =           0.0000000000000000
    PCM Polarization Energy =               0.0000000000000000
    EFP Energy =                            0.0000000000000000
    Total Energy =                       -786.5879294901253616
    Molecular point group: c1
  Basis Set: CC-PVTZ
  Basis Set:

  -Total Gradient:
     Atom            X                  Y                   Z
    ------   -----------------  -----------------  -----------------
       1       -0.003208246645     0.000018401681     0.000092338969
       2        0.003412939095    -0.000069706573     0.000246497857
       3        0.002146439834     0.000440729758    -0.001725378967
       4        0.000056837546     0.000000663095     0.000108195862
       5        0.000065967521    -0.000079294028    -0.000027050554
       6       -0.002328681863    -0.000322858980     0.001390858332
       7       -0.000020274937    -0.000003375213    -0.000043970138
       8       -0.000025164941    -0.000050157842    -0.000045938876
       9        0.000035564544     0.000025603203    -0.000012357670
      10       -0.000017643792     0.000037552955     0.000002607124
      11       -0.000035575260    -0.000028581794     0.000006557383
      12       -0.000082161099     0.000031023747     0.000007640681

  **** Optimization is complete! (in 5 steps) ****
    Final optimized geometry and variables:
    Molecular point group: c1

    Geometry (in Angstrom), charge = 0, multiplicity = 1:

    H           -0.290942491613     1.987520661365     0.818240831159
    O           -0.313004352332     1.861829486439    -0.115364458670
    C           -0.326443921865     0.523418322027    -0.449779977722
    C           -1.111203597272    -0.282371438488     0.586263961915
    C            1.103863361245     0.031643447765    -0.674444409309
    H           -0.860972457496     0.407366147318    -1.382089053501
    F           -2.365611277362     0.102934095362     0.573312040174
    F           -1.080606579947    -1.567121020287     0.350824518784
    F           -0.650480873891    -0.074872763491     1.802552329193
    F            1.686426893734     0.788771829774    -1.569982713418
    F            1.129098283214    -1.202838489076    -1.116805888044
    F            1.816629949528     0.086352908707     0.426930005107

  Mulliken Charges: (a.u.)
   Center  Symbol    Alpha    Beta     Spin     Total
       1     H     0.38155  0.38155  0.00000  0.23691
       2     O     4.19017  4.19017  0.00000 -0.38033
       3     C     3.00240  3.00240  0.00000 -0.00481
       4     C     2.68655  2.68655  0.00000  0.62691
       5     C     2.68231  2.68231  0.00000  0.63539
       6     H     0.42879  0.42879  0.00000  0.14241
       7     F     4.60356  4.60356  0.00000 -0.20711
       8     F     4.59912  4.59912  0.00000 -0.19824
       9     F     4.61092  4.61092  0.00000 -0.22183
      10     F     4.60158  4.60158  0.00000 -0.20316
      11     F     4.60509  4.60509  0.00000 -0.21019
      12     F     4.60797  4.60797  0.00000 -0.21595

   Total alpha = 41.00000, Total beta = 41.00000, Total charge = -0.00000
