  ==> Input File <==

--------------------------------------------------------------------------
set {
	reference rhf
	basis 6-31G*
}

set_num_threads( 4 )
memory 2 gb

molecule MOL {
0 1

H	 1.501182	 -2.871002	 -2.446656
O	 2.358525	 -2.529153	 -2.654437
C	 2.236719	 -1.467594	 -3.566748
C	 1.675828	 -0.196534	 -2.938628
H	 3.236661	 -1.281709	 -3.937203
H	 1.626673	 -1.765461	 -4.418745
C	 0.241711	 -0.337800	 -2.422662
H	 2.329278	 0.102497	 -2.123183
H	 1.715567	 0.596048	 -3.684015
C	 -0.311246	 0.969221	 -1.847552
H	 0.211065	 -1.111282	 -1.660329
H	 -0.404028	 -0.672041	 -3.234847
C	 -1.774407	 0.905191	 -1.394342
H	 0.310912	 1.284056	 -1.011701
H	 -0.218683	 1.746376	 -2.603305
C	 -2.037799	 -0.007733	 -0.193645
H	 -2.098176	 1.912664	 -1.141386
H	 -2.396243	 0.589607	 -2.230741
C	 -3.489788	 0.042957	 0.286558
H	 -1.379359	 0.277638	 0.625581
H	 -1.786163	 -1.035789	 -0.442810
C	 -4.216917	 1.317354	 -0.141063
H	 -4.025645	 -0.823308	 -0.095450
H	 -3.513059	 -0.038752	 1.371301
H	 -4.239342	 1.411634	 -1.223113
H	 -5.243387	 1.322503	 0.212445
H	 -3.726170	 2.201406	 0.256408

	symmetry c1
}
set optking {
	frozen_dihedral = ("
		20 16 19 22
	")
}

ee = optimize('scf')
oeprop('DIPOLE', 'QUADRUPOLE', 'MULLIKEN_CHARGES')
f=open( 'psi4out.xyz', 'w' )
f.write( "27  " )
f.write( str(ee) + "\n" )
f.write( MOL.save_string_xyz() )
f.close()
--------------------------------------------------------------------------

    Molecular point group: c1
  Charge       = 0
  Multiplicity = 1
  Basis Set: 6-31G*
  Basis Set:
  @DF-RHF Final Energy:  -388.27052376294739
    Total Energy =                       -388.2705237629464818
    Molecular point group: c1
  Basis Set: 6-31G*
  Basis Set:
  Basis Set: 6-31G*
  Basis Set:
  @DF-RHF Final Energy:  -388.27101836319963
    Total Energy =                       -388.2710183631994596
  Basis Set: 6-31G*
  Basis Set:
  Basis Set: 6-31G*
  Basis Set:
  @DF-RHF Final Energy:  -388.27387672823841
    Total Energy =                       -388.2738767282374965
  Basis Set: 6-31G*
  Basis Set:
  Basis Set: 6-31G*
  Basis Set:
  @DF-RHF Final Energy:  -388.27426551212636
    Total Energy =                       -388.2742655121265898
  Basis Set: 6-31G*
  Basis Set:
  @DF-RHF Final Energy:  -388.27429156236786
    Total Energy =                       -388.2742915623690578
  @DF-RHF Final Energy:  -388.27430741182212
    Total Energy =                       -388.2743074118220648
  Basis Set: 6-31G*
  Basis Set:
  @DF-RHF Final Energy:  -388.27430591925332
    Total Energy =                       -388.2743059192537203
  Basis Set: 6-31G*
  Basis Set:
  Basis Set: 6-31G*
  Basis Set:
  @DF-RHF Final Energy:  -388.27430413761505
    Total Energy =                       -388.2743041376149904
  Basis Set: 6-31G*
  Basis Set:
  Basis Set: 6-31G*
  Basis Set:
  @DF-RHF Final Energy:  -388.27431167268116
    Total Energy =                       -388.2743116726813923
  Basis Set: 6-31G*
  Basis Set:
  Charge       = 0
  Multiplicity = 1
  Basis Set: 6-31G*
  Basis Set:

    Orbital Energies (a.u.)
    -----------------------

    Doubly Occupied:

       1A    -20.552317     2A    -11.267062     3A    -11.219753
       4A    -11.217388     5A    -11.216791     6A    -11.215701
       7A    -11.215213     8A    -11.214490     9A    -11.208870
      10A     -1.359066    11A     -1.094183    12A     -1.058973
      13A     -1.009014    14A     -0.946220    15A     -0.895539
      16A     -0.830616    17A     -0.798011    18A     -0.764915
      19A     -0.693683    20A     -0.647335    21A     -0.636085
      22A     -0.614781    23A     -0.607561    24A     -0.586944
      25A     -0.579102    26A     -0.555319    27A     -0.536173
      28A     -0.526667    29A     -0.510190    30A     -0.498823
      31A     -0.485190    32A     -0.476271    33A     -0.467982
      34A     -0.451483    35A     -0.447569    36A     -0.441438
      37A     -0.423290

  @DF-RHF Final Energy:  -388.27431162680568

   => Energetics <=

    Nuclear Repulsion Energy =            462.1556070311404483
    One-Electron Energy =               -1442.3198178472534892
    Two-Electron Energy =                 591.8898991893067887
    DFT Exchange-Correlation Energy =       0.0000000000000000
    Empirical Dispersion Energy =           0.0000000000000000
    PCM Polarization Energy =               0.0000000000000000
    EFP Energy =                            0.0000000000000000
    Total Energy =                       -388.2743116268062522
    Molecular point group: c1
  Basis Set: 6-31G*
  Basis Set:

  -Total Gradient:
     Atom            X                  Y                   Z
    ------   -----------------  -----------------  -----------------
       1        0.000009985156    -0.000002092969    -0.000006904332
       2        0.000015497012    -0.000001936501    -0.000002127282
       3       -0.000027674195    -0.000010798323    -0.000011115369
       4        0.000004926417     0.000007596036     0.000014980802
       5       -0.000002698424    -0.000002206525     0.000002175189
       6        0.000001088739    -0.000004624130    -0.000003463766
       7       -0.000003264629     0.000002939131    -0.000012294053
       8       -0.000001911485    -0.000002652074     0.000007381376
       9       -0.000000522058     0.000004788486     0.000009828939
      10        0.000003440932     0.000000773310    -0.000001586564
      11       -0.000007085001     0.000016430077     0.000011228097
      12        0.000008593469    -0.000009790750     0.000000150792
      13        0.000002322451    -0.000009108703    -0.000005039098
      14        0.000002046537    -0.000000206945    -0.000004152814
      15       -0.000001047098     0.000002454296    -0.000000917644
      16       -0.001370373228     0.006167720830    -0.003475193812
      17       -0.000004781931     0.000003433287     0.000005331318
      18        0.000005645532     0.000000695322     0.000000678007
      19        0.001881474176     0.001437119341     0.005833468510
      20        0.000688816934    -0.005681564575     0.001443273732
      21        0.000004524147     0.000002472002    -0.000002211743
      22       -0.001199194138    -0.001922179004    -0.003810418194
      23        0.000001214621     0.000003903303    -0.000005884680
      24       -0.000010598979    -0.000003054629     0.000003782872
      25       -0.000011283782    -0.000002733191     0.000010222624
      26        0.000001231633     0.000002052693     0.000005593161
      27        0.000009627194     0.000000570203    -0.000006786066

  **** Optimization is complete! (in 10 steps) ****
    Final optimized geometry and variables:
    Molecular point group: c1

    Geometry (in Angstrom), charge = 0, multiplicity = 1:

    H            2.003209248602    -2.720229651578    -0.780398353855
    O            2.873000676853    -2.404160942470    -0.976952346059
    C            2.794547061503    -1.339150372182    -1.889970770875
    C            2.266454778498    -0.051346484188    -1.267517614503
    H            3.804014699667    -1.184433926263    -2.248685143668
    H            2.185464306599    -1.617719252942    -2.749152925810
    C            0.822733558625    -0.148001956622    -0.768207583414
    H            2.919426807737     0.226954618512    -0.444390426593
    H            2.339611190471     0.739756377818    -2.011923744634
    C            0.304585312580     1.176934092383    -0.201237836211
    H            0.760260583596    -0.920218920319    -0.006861400698
    H            0.176620641038    -0.462440295757    -1.587958850979
    C           -1.166836890681     1.167840100831     0.232716115425
    H            0.926337165228     1.473941392826     0.641439681299
    H            0.432654195937     1.948090712196    -0.957949603127
    C           -1.452802013824     0.289759289964     1.453434226825
    H           -1.459778700310     2.191278748369     0.446435585577
    H           -1.782943752326     0.843842830664    -0.604549750892
    C           -2.921122850801     0.236868204353     1.941035074973
    H           -0.805549349934     0.578773644675     2.279205103021
    H           -1.154303401959    -0.730557115268     1.228481468805
    C           -3.798602962185     1.446372630874     1.608135626320
    H           -3.398934567979    -0.638268719891     1.506949396932
    H           -2.927368163671     0.074135601130     3.014625133744
    H           -3.906975998767     1.582740218908     0.538035835348
    H           -4.792799643395     1.310473622940     2.022862522898
    H           -3.396609729787     2.367301619842     2.021401196942

  Mulliken Charges: (a.u.)
   Center  Symbol    Alpha    Beta     Spin     Total
       1     H     0.27990  0.27990  0.00000  0.44020
       2     O     4.37093  4.37093  0.00000 -0.74185
       3     C     2.99739  2.99739  0.00000  0.00521
       4     C     3.16089  3.16089  0.00000 -0.32178
       5     H     0.41444  0.41444  0.00000  0.17113
       6     H     0.43205  0.43205  0.00000  0.13591
       7     C     3.16332  3.16332  0.00000 -0.32664
       8     H     0.41494  0.41494  0.00000  0.17012
       9     H     0.42436  0.42436  0.00000  0.15129
      10     C     3.15231  3.15231  0.00000 -0.30462
      11     H     0.42290  0.42290  0.00000  0.15421
      12     H     0.42550  0.42550  0.00000  0.14899
      13     C     3.15586  3.15586  0.00000 -0.31173
      14     H     0.42144  0.42144  0.00000  0.15712
      15     H     0.42137  0.42137  0.00000  0.15726
      16     C     3.15721  3.15721  0.00000 -0.31442
      17     H     0.41804  0.41804  0.00000  0.16391
      18     H     0.42434  0.42434  0.00000  0.15132
      19     C     3.15265  3.15265  0.00000 -0.30530
      20     H     0.42214  0.42214  0.00000  0.15573
      21     H     0.42195  0.42195  0.00000  0.15611
      22     C     3.24271  3.24271  0.00000 -0.48542
      23     H     0.42294  0.42294  0.00000  0.15411
      24     H     0.41969  0.41969  0.00000  0.16063
      25     H     0.41957  0.41957  0.00000  0.16086
      26     H     0.41925  0.41925  0.00000  0.16150
      27     H     0.42192  0.42192  0.00000  0.15616

   Total alpha = 37.00000, Total beta = 37.00000, Total charge =  0.00000
