  ==> Input File <==

--------------------------------------------------------------------------
set {
	reference rhf
	basis 6-31G*
}

set_num_threads( 1 )
memory 2 gb

molecule MOL {
0 1

H	 -3.420663	 1.227371	 -1.044276
O	 -3.452007	 0.283848	 -0.965577
C	 -3.181085	 -0.079926	 0.364119
C	 -1.765924	 0.277073	 0.805136
H	 -3.327791	 -1.152017	 0.410903
H	 -3.905698	 0.375695	 1.036898
C	 -0.677594	 -0.417312	 -0.014550
H	 -1.637766	 1.358238	 0.744969
H	 -1.659588	 0.017670	 1.857098
C	 0.738335	 -0.034840	 0.421385
H	 -0.814977	 -0.178223	 -1.064632
H	 -0.802730	 -1.495410	 0.071702
C	 1.641112	 0.339609	 -0.757116
H	 0.680578	 0.793827	 1.123094
H	 1.186375	 -0.865200	 0.965780
C	 3.095211	 0.645053	 -0.379681
H	 1.217606	 1.198225	 -1.275881
H	 1.635571	 -0.479350	 -1.473421
C	 3.279123	 1.894845	 0.483220
H	 3.670111	 0.766193	 -1.294616
H	 3.521518	 -0.214363	 0.134002
H	 2.850706	 2.768927	 -0.000079
H	 4.332801	 2.095115	 0.652016
H	 2.808798	 1.790473	 1.455365

	symmetry c1
}
set optking {
	frozen_dihedral = ("
		20 16 13 17,
		17 13 10 7,
		11 7 4 3,
		1 2 3 5,
		7 4 3 2
	")
}

ee = energy('scf')
oeprop('DIPOLE', 'QUADRUPOLE', 'MULLIKEN_CHARGES')
f=open( 'psi4out.xyz', 'w' )
f.write( "24  " )
f.write( str(ee) + "\n" )
f.write( MOL.save_string_xyz() )
f.close()
--------------------------------------------------------------------------

    Molecular point group: c1

    Geometry (in Angstrom), charge = 0, multiplicity = 1:

       Center              X                  Y                   Z               Mass
    ------------   -----------------  -----------------  -----------------  -----------------
           H         -3.323522209139     0.847557598641    -1.026559392219     1.007825032070
           O         -3.354866209139    -0.095965401359    -0.947860392219    15.994914619560
           C         -3.083944209139    -0.459739401359     0.381835607781    12.000000000000
           C         -1.668783209139    -0.102740401359     0.822852607781    12.000000000000
           H         -3.230650209139    -1.531830401359     0.428619607781     1.007825032070
           H         -3.808557209139    -0.004118401359     1.054614607781     1.007825032070
           C         -0.580453209139    -0.797125401359     0.003166607781    12.000000000000
           H         -1.540625209139     0.978424598641     0.762685607781     1.007825032070
           H         -1.562447209139    -0.362143401359     1.874814607781     1.007825032070
           C          0.835475790861    -0.414653401359     0.439101607781    12.000000000000
           H         -0.717836209139    -0.558036401359    -1.046915392219     1.007825032070
           H         -0.705589209139    -1.875223401359     0.089418607781     1.007825032070
           C          1.738252790861    -0.040204401359    -0.739399392219    12.000000000000
           H          0.777718790861     0.414013598641     1.140810607781     1.007825032070
           H          1.283515790861    -1.245013401359     0.983496607781     1.007825032070
           C          3.192351790861     0.265239598641    -0.361964392219    12.000000000000
           H          1.314746790861     0.818411598641    -1.258164392219     1.007825032070
           H          1.732711790861    -0.859163401359    -1.455704392219     1.007825032070
           C          3.376263790861     1.515031598641     0.500936607781    12.000000000000
           H          3.767251790861     0.386379598641    -1.276899392219     1.007825032070
           H          3.618658790861    -0.594176401359     0.151718607781     1.007825032070
           H          2.947846790861     2.389113598641     0.017637607781     1.007825032070
           H          4.429941790861     1.715301598641     0.669732607781     1.007825032070
           H          2.905938790861     1.410659598641     1.473081607781     1.007825032070

  Charge       = 0
  Multiplicity = 1
  Basis Set: 6-31G*
  Basis Set:

    Orbital Energies (a.u.)
    -----------------------

    Doubly Occupied:

       1A    -20.553456     2A    -11.267222     3A    -11.217740
       4A    -11.213794     5A    -11.212277     6A    -11.210759
       7A    -11.209642     8A    -11.207639     9A     -1.359995
      10A     -1.088785    11A     -1.048036    12A     -0.985396
      13A     -0.914942    14A     -0.850468    15A     -0.802083
      16A     -0.776535    17A     -0.679994    18A     -0.643865
      19A     -0.631318    20A     -0.616074    21A     -0.600156
      22A     -0.588370    23A     -0.553304    24A     -0.544960
      25A     -0.514299    26A     -0.509625    27A     -0.498973
      28A     -0.474231    29A     -0.466641    30A     -0.459299
      31A     -0.451986    32A     -0.450338    33A     -0.417801

  @DF-RHF Final Energy:  -349.24248906096284

   => Energetics <=

    Nuclear Repulsion Energy =            386.5220754182922747
    One-Electron Energy =               -1239.4893745419449260
    Two-Electron Energy =                 503.7248100626904943
    DFT Exchange-Correlation Energy =       0.0000000000000000
    Empirical Dispersion Energy =           0.0000000000000000
    PCM Polarization Energy =               0.0000000000000000
    EFP Energy =                            0.0000000000000000
    Total Energy =                       -349.2424890609621571

  Mulliken Charges: (a.u.)
   Center  Symbol    Alpha    Beta     Spin     Total
       1     H     0.28342  0.28342  0.00000  0.43315
       2     O     4.36824  4.36824  0.00000 -0.73648
       3     C     2.99669  2.99669  0.00000  0.00662
       4     C     3.17138  3.17138  0.00000 -0.34277
       5     H     0.41636  0.41636  0.00000  0.16727
       6     H     0.42836  0.42836  0.00000  0.14329
       7     C     3.15456  3.15456  0.00000 -0.30912
       8     H     0.42798  0.42798  0.00000  0.14403
       9     H     0.42192  0.42192  0.00000  0.15617
      10     C     3.15618  3.15618  0.00000 -0.31236
      11     H     0.40924  0.40924  0.00000  0.18151
      12     H     0.42130  0.42130  0.00000  0.15741
      13     C     3.15453  3.15453  0.00000 -0.30906
      14     H     0.42080  0.42080  0.00000  0.15840
      15     H     0.42204  0.42204  0.00000  0.15591
      16     C     3.15294  3.15294  0.00000 -0.30588
      17     H     0.42496  0.42496  0.00000  0.15007
      18     H     0.42065  0.42065  0.00000  0.15870
      19     C     3.24095  3.24095  0.00000 -0.48191
      20     H     0.42126  0.42126  0.00000  0.15749
      21     H     0.42347  0.42347  0.00000  0.15306
      22     H     0.42300  0.42300  0.00000  0.15399
      23     H     0.41942  0.41942  0.00000  0.16116
      24     H     0.42032  0.42032  0.00000  0.15935

   Total alpha = 33.00000, Total beta = 33.00000, Total charge = -0.00000
