  ==> Input File <==

--------------------------------------------------------------------------
set {
	reference rhf
	basis cc-pvtz
}

set_num_threads( 4 )
memory 2 gb

molecule MOL {
0 1

O	 -0.694481	 1.313155	 -0.204815
C	 -0.862519	 0.151932	 -0.046791
C	 -2.171428	 -0.477048	 0.339095
O	 0.085519	 -0.757083	 -0.192238
H	 -2.467997	 -1.191667	 -0.417688
H	 -2.923379	 0.287970	 0.444097
H	 -2.053854	 -1.015120	 1.270901
C	 1.392036	 -0.330828	 -0.560749
C	 1.356087	 0.654876	 -1.710094
H	 1.991124	 -1.193553	 -0.806951
H	 1.790399	 0.131390	 0.329988
H	 2.360173	 1.007059	 -1.918015
H	 0.966780	 0.190340	 -2.605654
H	 0.739910	 1.510452	 -1.461281

	symmetry c1
}
set optking {
	frozen_dihedral = ("
		10 8 4 2
	")
}

ee = optimize('scf')
oeprop('DIPOLE', 'QUADRUPOLE', 'MULLIKEN_CHARGES')
f=open( 'psi4out.xyz', 'w' )
f.write( "14  " )
f.write( str(ee) + "\n" )
f.write( MOL.save_string_xyz() )
f.close()
--------------------------------------------------------------------------

    Molecular point group: c1
  Charge       = 0
  Multiplicity = 1
  Basis Set: CC-PVTZ
  Basis Set:
  @DF-RHF Final Energy:  -305.97625906904977
    Total Energy =                       -305.9762590690498882
    Molecular point group: c1
  Basis Set: CC-PVTZ
  Basis Set:
  Basis Set: CC-PVTZ
  Basis Set:
  @DF-RHF Final Energy:  -305.98568550857669
    Total Energy =                       -305.9856855085770917
  Basis Set: CC-PVTZ
  Basis Set:
  Basis Set: CC-PVTZ
  Basis Set:
  @DF-RHF Final Energy:  -305.98679787522053
    Total Energy =                       -305.9867978752207591
  Basis Set: CC-PVTZ
  Basis Set:
  Basis Set: CC-PVTZ
  Basis Set:
  @DF-RHF Final Energy:  -305.98473166551526
    Total Energy =                       -305.9847316655151985
  Basis Set: CC-PVTZ
  Basis Set:
  @DF-RHF Final Energy:  -305.98698603285959
    Total Energy =                       -305.9869860328593631
  @DF-RHF Final Energy:  -305.98701081712619
    Total Energy =                       -305.9870108171259631
  @DF-RHF Final Energy:  -305.98701368171510
    Total Energy =                       -305.9870136817150978
  Basis Set: CC-PVTZ
  Basis Set:
  @DF-RHF Final Energy:  -305.98701547374958
    Total Energy =                       -305.9870154737495795
  Basis Set: CC-PVTZ
  Basis Set:
  Basis Set: CC-PVTZ
  Basis Set:
  @DF-RHF Final Energy:  -305.98701611097204
    Total Energy =                       -305.9870161109717515
  Basis Set: CC-PVTZ
  Basis Set:
  Basis Set: CC-PVTZ
  Basis Set:
  @DF-RHF Final Energy:  -305.98701721530136
    Total Energy =                       -305.9870172153013641
  Basis Set: CC-PVTZ
  Basis Set:
  Charge       = 0
  Multiplicity = 1
  Basis Set: CC-PVTZ
  Basis Set:

    Orbital Energies (a.u.)
    -----------------------

    Doubly Occupied:

       1A    -20.593406     2A    -20.532262     3A    -11.367727
       4A    -11.286959     5A    -11.230797     6A    -11.214280
       7A     -1.468604     8A     -1.365662     9A     -1.055406
      10A     -0.998584    11A     -0.889169    12A     -0.756432
      13A     -0.700136    14A     -0.684481    15A     -0.665599
      16A     -0.616013    17A     -0.587939    18A     -0.571061
      19A     -0.552888    20A     -0.531640    21A     -0.514132
      22A     -0.497376    23A     -0.455083    24A     -0.437318

  @DF-RHF Final Energy:  -305.98701763321162

   => Energetics <=

    Nuclear Repulsion Energy =            250.1278393285554955
    One-Electron Energy =                -913.0838071588682396
    Two-Electron Energy =                 356.9689501971012078
    DFT Exchange-Correlation Energy =       0.0000000000000000
    Empirical Dispersion Energy =           0.0000000000000000
    PCM Polarization Energy =               0.0000000000000000
    EFP Energy =                            0.0000000000000000
    Total Energy =                       -305.9870176332115079
    Molecular point group: c1
  Basis Set: CC-PVTZ
  Basis Set:

  -Total Gradient:
     Atom            X                  Y                   Z
    ------   -----------------  -----------------  -----------------
       1       -0.000087620523     0.000130179142     0.000090847858
       2       -0.001548514860    -0.000649741015    -0.005686169714
       3        0.000049662643    -0.000002878232     0.000017447855
       4        0.001987367946     0.000801040811     0.007136320886
       5        0.000009699244     0.000002650862    -0.000009032867
       6        0.000040350516     0.000022106060    -0.000007955473
       7        0.000013700475    -0.000012058490     0.000017482897
       8        0.001772435390    -0.000652695060     0.004368203138
       9       -0.000044716330    -0.000021149384    -0.000010740321
      10       -0.002163969304     0.000132937410    -0.005824356699
      11       -0.000051325621     0.000110638511    -0.000092824649
      12        0.000004889731     0.000055413711    -0.000038946366
      13        0.000021916030     0.000003324163     0.000034135769
      14       -0.000003875340     0.000080231508     0.000005587687

  **** Optimization is complete! (in 11 steps) ****
    Final optimized geometry and variables:
    Molecular point group: c1

    Geometry (in Angstrom), charge = 0, multiplicity = 1:

    O           -0.616885264053     1.235563332529     0.394974146636
    C           -0.737239720896     0.058071143146     0.402895651570
    C           -2.035789553729    -0.662230767145     0.635676859707
    O            0.257589525640    -0.793507844637     0.233073067302
    H           -2.290662247908    -1.238732344348    -0.244635675553
    H           -2.813348831279     0.053909465285     0.846069446429
    H           -1.927826625332    -1.353526502288     1.461011394033
    C            1.546620683655    -0.349597817561    -0.181046179447
    C            1.555322809647     0.496225083634    -1.443451772423
    H            2.064836560353    -1.270548091450    -0.400431663281
    H            2.027250364876     0.161828945911     0.640933889460
    H            2.583503552285     0.602814446119    -1.771788345381
    H            1.004598399965    -0.000334876694    -2.234521013508
    H            1.137607676748     1.476606975922    -1.287689237469

  Mulliken Charges: (a.u.)
   Center  Symbol    Alpha    Beta     Spin     Total
       1     O     4.19959  4.19959  0.00000 -0.39918
       2     C     2.80041  2.80041  0.00000  0.39918
       3     C     3.13821  3.13821  0.00000 -0.27641
       4     O     4.15646  4.15646  0.00000 -0.31291
       5     H     0.44707  0.44707  0.00000  0.10586
       6     H     0.43848  0.43848  0.00000  0.12304
       7     H     0.44461  0.44461  0.00000  0.11078
       8     C     2.98036  2.98036  0.00000  0.03928
       9     C     3.15757  3.15757  0.00000 -0.31514
      10     H     0.44652  0.44652  0.00000  0.10695
      11     H     0.45348  0.45348  0.00000  0.09305
      12     H     0.45025  0.45025  0.00000  0.09949
      13     H     0.45401  0.45401  0.00000  0.09197
      14     H     0.43298  0.43298  0.00000  0.13405

   Total alpha = 24.00000, Total beta = 24.00000, Total charge = -0.00000
