  ==> Input File <==

--------------------------------------------------------------------------
set {
	reference rhf
	basis 6-31G*
}

set_num_threads( 4 )
memory 2 gb

molecule MOL {
0 1

O	 -2.821601	 1.309235	 -0.001213
C	 -2.668563	 0.129746	 -0.000350
C	 -3.801572	 -0.864014	 -0.000442
O	 -1.481751	 -0.454642	 0.000584
H	 -4.417280	 -0.689587	 -0.874708
H	 -3.443784	 -1.883046	 -0.000565
H	 -4.417179	 -0.689832	 0.873954
C	 -0.334255	 0.388708	 0.000906
C	 0.891947	 -0.504646	 0.000751
H	 -0.365390	 1.025305	 -0.873475
H	 -0.365484	 1.024911	 0.875569
C	 2.191998	 0.301789	 0.000897
H	 0.855148	 -1.151283	 -0.871571
H	 0.855132	 -1.151660	 0.872805
C	 3.441114	 -0.581407	 0.000108
H	 2.215074	 0.954890	 -0.869742
H	 2.215465	 0.953923	 0.872248
C	 3.595375	 -1.395296	 1.284108
H	 4.321480	 0.041604	 -0.140915
H	 3.403995	 -1.255373	 -0.852806
H	 3.669303	 -0.747272	 2.152793
H	 4.489100	 -2.010573	 1.253679
H	 2.745116	 -2.054226	 1.435378

	symmetry c1
}
set optking {
	frozen_dihedral = ("
		19 15 12 16
	")
}

ee = optimize('scf')
oeprop('DIPOLE', 'QUADRUPOLE', 'MULLIKEN_CHARGES')
f=open( 'psi4out.xyz', 'w' )
f.write( "23  " )
f.write( str(ee) + "\n" )
f.write( MOL.save_string_xyz() )
f.close()
--------------------------------------------------------------------------

    Molecular point group: c1
  Charge       = 0
  Multiplicity = 1
  Basis Set: 6-31G*
  Basis Set:
  @DF-RHF Final Energy:  -422.97745311412024
    Total Energy =                       -422.9774531141202942
    Molecular point group: c1
  Basis Set: 6-31G*
  Basis Set:
  Basis Set: 6-31G*
  Basis Set:
  @DF-RHF Final Energy:  -422.97773494913326
    Total Energy =                       -422.9777349491328096
  Basis Set: 6-31G*
  Basis Set:
  Basis Set: 6-31G*
  Basis Set:
  @DF-RHF Final Energy:  -422.97797333337599
    Total Energy =                       -422.9779733333755303
  Basis Set: 6-31G*
  Basis Set:
  Basis Set: 6-31G*
  Basis Set:
  @DF-RHF Final Energy:  -422.97783774288354
    Total Energy =                       -422.9778377428845033
  Basis Set: 6-31G*
  Basis Set:
  Basis Set: 6-31G*
  Basis Set:
  @DF-RHF Final Energy:  -422.97798496214091
    Total Energy =                       -422.9779849621404537
  Basis Set: 6-31G*
  Basis Set:
  Charge       = 0
  Multiplicity = 1
  Basis Set: 6-31G*
  Basis Set:

    Orbital Energies (a.u.)
    -----------------------

    Doubly Occupied:

       1A    -20.603002     2A    -20.540540     3A    -11.374092
       4A    -11.281497     5A    -11.232399     6A    -11.224435
       7A    -11.223680     8A    -11.222011     9A    -11.213014
      10A     -1.467962    11A     -1.360746    12A     -1.094141
      13A     -1.041153    14A     -1.001982    15A     -0.931196
      16A     -0.853550    17A     -0.793494    18A     -0.771704
      19A     -0.691336    20A     -0.685109    21A     -0.669806
      22A     -0.635266    23A     -0.616834    24A     -0.599338
      25A     -0.576222    26A     -0.571541    27A     -0.547012
      28A     -0.537548    29A     -0.525619    30A     -0.507853
      31A     -0.497161    32A     -0.472160    33A     -0.466951
      34A     -0.466418    35A     -0.451223    36A     -0.435330

  @DF-RHF Final Energy:  -422.97798560582436

   => Energetics <=

    Nuclear Repulsion Energy =            453.9825505051313144
    One-Electron Energy =               -1475.5544229284150788
    Two-Electron Energy =                 598.5938868174596337
    DFT Exchange-Correlation Energy =       0.0000000000000000
    Empirical Dispersion Energy =           0.0000000000000000
    PCM Polarization Energy =               0.0000000000000000
    EFP Energy =                            0.0000000000000000
    Total Energy =                       -422.9779856058241876
    Molecular point group: c1
  Basis Set: 6-31G*
  Basis Set:

  -Total Gradient:
     Atom            X                  Y                   Z
    ------   -----------------  -----------------  -----------------
       1       -0.000003805363     0.000003186794     0.000023363206
       2        0.000004543558     0.000005407812    -0.000045076767
       3        0.000003342124     0.000000373426     0.000013606768
       4        0.000006022091    -0.000007682341     0.000019129623
       5        0.000003424614     0.000000744319    -0.000001531210
       6        0.000000681272    -0.000000372641     0.000000231597
       7       -0.000000266475     0.000000743925    -0.000001082686
       8        0.000001278418     0.000010953624    -0.000059329673
       9        0.000034205530    -0.000000888735     0.000018698426
      10       -0.000003702211     0.000004606878     0.000006457456
      11       -0.000004196050    -0.000007320109     0.000009134519
      12       -0.000138823379    -0.000216591674    -0.000193775924
      13        0.000007971333    -0.000000993686     0.000010523542
      14        0.000013615706    -0.000013991344     0.000020874425
      15        0.000021864105     0.000054563069     0.000290810232
      16        0.000111965053     0.000166044765     0.000119857218
      17        0.000002253368    -0.000009932092     0.000019057680
      18       -0.000010638265     0.000037641367    -0.000004759766
      19       -0.000010824509    -0.000018259944    -0.000228442241
      20       -0.000010777748    -0.000012314839     0.000000615204
      21       -0.000010626513    -0.000004586749    -0.000002809016
      22        0.000006193983     0.000010656790    -0.000008412468
      23       -0.000023700639    -0.000001988618    -0.000007140148

  **** Optimization is complete! (in 6 steps) ****
    Final optimized geometry and variables:
    Molecular point group: c1

    Geometry (in Angstrom), charge = 0, multiplicity = 1:

    O           -2.691054840667     1.509570972035    -0.223939654917
    C           -2.548557088316     0.329780465895    -0.174772925491
    C           -3.690372073029    -0.653578647989    -0.151685978760
    O           -1.367209911144    -0.264174998225    -0.133816931175
    H           -4.292787877212    -0.508189792424    -1.040395925966
    H           -3.341824160668    -1.674847007032    -0.107234681279
    H           -4.315966627501    -0.440165949389     0.706782695030
    C           -0.212213676107     0.568778124081    -0.150762146105
    C            1.005840053552    -0.334253982218    -0.094012919504
    H           -0.224397887916     1.168628500299    -1.051151652195
    H           -0.250976980151     1.241100531935     0.696218099143
    C            2.308686887354     0.469895958592    -0.097083832140
    H            0.983673450410    -1.007700099935    -0.946751532568
    H            0.936658421635    -0.950736829273     0.796142533256
    C            3.578101443295    -0.388441124873    -0.135616237377
    H            2.313704783679     1.132393000798    -0.960163702749
    H            2.339820046866     1.114213016170     0.779996981085
    C            3.812313647413    -1.229619847247     1.120078124347
    H            4.431485814654     0.268510170432    -0.282096980381
    H            3.544327043464    -1.039353299678    -1.006676494775
    H            3.840561838139    -0.604913252736     2.008754104546
    H            4.758979506634    -1.757133048319     1.057957395438
    H            3.035090989641    -1.973168987203     1.262202341159

  Mulliken Charges: (a.u.)
   Center  Symbol    Alpha    Beta     Spin     Total
       1     O     4.28390  4.28390  0.00000 -0.56780
       2     C     2.61536  2.61536  0.00000  0.76928
       3     C     3.28774  3.28774  0.00000 -0.57548
       4     O     4.31276  4.31276  0.00000 -0.62553
       5     H     0.39750  0.39750  0.00000  0.20501
       6     H     0.39990  0.39990  0.00000  0.20019
       7     H     0.39750  0.39750  0.00000  0.20501
       8     C     2.99532  2.99532  0.00000  0.00936
       9     C     3.16653  3.16653  0.00000 -0.33306
      10     H     0.41070  0.41070  0.00000  0.17860
      11     H     0.41064  0.41064  0.00000  0.17872
      12     C     3.16178  3.16178  0.00000 -0.32357
      13     H     0.41481  0.41481  0.00000  0.17038
      14     H     0.41218  0.41218  0.00000  0.17564
      15     C     3.15247  3.15247  0.00000 -0.30494
      16     H     0.41921  0.41921  0.00000  0.16158
      17     H     0.42086  0.42086  0.00000  0.15827
      18     C     3.24205  3.24205  0.00000 -0.48411
      19     H     0.41883  0.41883  0.00000  0.16233
      20     H     0.42165  0.42165  0.00000  0.15669
      21     H     0.42129  0.42129  0.00000  0.15742
      22     H     0.41772  0.41772  0.00000  0.16456
      23     H     0.41928  0.41928  0.00000  0.16143

   Total alpha = 36.00000, Total beta = 36.00000, Total charge = -0.00000
