  ==> Input File <==

--------------------------------------------------------------------------
set {
	reference rhf
	basis 6-31G*
}

set_num_threads( 1 )
memory 2 gb

molecule MOL {
0 1

H	 0.014252	 2.224685	 4.851987
C	 0.266411	 1.843659	 3.878325
C	 -0.172260	 2.506281	 2.741818
C	 1.028801	 0.691880	 3.763868
H	 -0.763459	 3.399433	 2.831989
C	 0.152368	 2.015749	 1.490228
H	 1.367954	 0.179580	 4.645985
C	 1.354972	 0.199016	 2.512041
H	 -0.178395	 2.515374	 0.599923
C	 0.916850	 0.860808	 1.371058
H	 1.944721	 -0.691950	 2.418787
C	 1.239129	 0.373821	 0.000060
O	 1.970282	 -0.730723	 0.000018
O	 0.881385	 0.914179	 -0.999386
C	 3.377318	 -0.566646	 -0.000065
H	 3.695437	 -0.028981	 -0.881264
H	 3.789299	 -1.563704	 0.000236
H	 3.695516	 -0.028316	 0.880770

	symmetry c1
}
set optking {
	frozen_dihedral = ("
		12 13 15 16,
		13 12 10 6
	")
}

ee = energy('scf')
oeprop('DIPOLE', 'QUADRUPOLE', 'MULLIKEN_CHARGES')
f=open( 'psi4out.xyz', 'w' )
f.write( "18  " )
f.write( str(ee) + "\n" )
f.write( MOL.save_string_xyz() )
f.close()
--------------------------------------------------------------------------

    Molecular point group: c1

    Geometry (in Angstrom), charge = 0, multiplicity = 1:

       Center              X                  Y                   Z               Mass
    ------------   -----------------  -----------------  -----------------  -----------------
           H         -1.141528259672     1.459668906339     3.465964672509     1.007825032070
           C         -0.889369259672     1.078642906339     2.492302672509    12.000000000000
           C         -1.328040259672     1.741264906339     1.355795672509    12.000000000000
           C         -0.126979259672    -0.073136093661     2.377845672509    12.000000000000
           H         -1.919239259672     2.634416906339     1.445966672509     1.007825032070
           C         -1.003412259672     1.250732906339     0.104205672509    12.000000000000
           H          0.212173740328    -0.585436093661     3.259962672509     1.007825032070
           C          0.199191740328    -0.566000093661     1.126018672509    12.000000000000
           H         -1.334175259672     1.750357906339    -0.786099327491     1.007825032070
           C         -0.238930259672     0.095791906339    -0.014964327491    12.000000000000
           H          0.788940740328    -1.456966093661     1.032764672509     1.007825032070
           C          0.083348740328    -0.391195093661    -1.385962327491    12.000000000000
           O          0.814501740328    -1.495739093661    -1.386004327491    15.994914619560
           O         -0.274395259672     0.149162906339    -2.385408327491    15.994914619560
           C          2.221537740328    -1.331662093661    -1.386087327491    12.000000000000
           H          2.539656740328    -0.793997093661    -2.267286327491     1.007825032070
           H          2.633518740328    -2.328720093661    -1.385786327491     1.007825032070
           H          2.539735740328    -0.793332093661    -0.505252327491     1.007825032070

  Charge       = 0
  Multiplicity = 1
  Basis Set: 6-31G*
  Basis Set:

    Orbital Energies (a.u.)
    -----------------------

    Doubly Occupied:

       1A    -20.589904     2A    -20.553080     3A    -11.378256
       4A    -11.294611     5A    -11.249881     6A    -11.249304
       7A    -11.246277     8A    -11.244293     9A    -11.242049
      10A    -11.240248    11A     -1.466260    12A     -1.367628
      13A     -1.168602    14A     -1.045984    15A     -1.028790
      16A     -0.982461    17A     -0.870678    18A     -0.839841
      19A     -0.781332    20A     -0.739979    21A     -0.685462
      22A     -0.676684    23A     -0.666608    24A     -0.640372
      25A     -0.627366    26A     -0.608536    27A     -0.596289
      28A     -0.562267    29A     -0.528512    30A     -0.521234
      31A     -0.503878    32A     -0.490578    33A     -0.464215
      34A     -0.442504    35A     -0.348425    36A     -0.344793

  @DF-RHF Final Energy:  -457.32968155037258

   => Energetics <=

    Nuclear Repulsion Energy =            497.7253948147302935
    One-Electron Energy =               -1609.5357988699317957
    Two-Electron Energy =                 654.4807225048297141
    DFT Exchange-Correlation Energy =       0.0000000000000000
    Empirical Dispersion Energy =           0.0000000000000000
    PCM Polarization Energy =               0.0000000000000000
    EFP Energy =                            0.0000000000000000
    Total Energy =                       -457.3296815503719017

  Mulliken Charges: (a.u.)
   Center  Symbol    Alpha    Beta     Spin     Total
       1     H     0.39447  0.39447  0.00000  0.21105
       2     C     3.09022  3.09022  0.00000 -0.18045
       3     C     3.10653  3.10653  0.00000 -0.21306
       4     C     3.10651  3.10651  0.00000 -0.21302
       5     H     0.39456  0.39456  0.00000  0.21087
       6     C     3.08510  3.08510  0.00000 -0.17021
       7     H     0.39575  0.39575  0.00000  0.20850
       8     C     3.09318  3.09318  0.00000 -0.18635
       9     H     0.37544  0.37544  0.00000  0.24913
      10     C     3.07694  3.07694  0.00000 -0.15388
      11     H     0.38469  0.38469  0.00000  0.23062
      12     C     2.59348  2.59348  0.00000  0.81305
      13     O     4.31685  4.31685  0.00000 -0.63369
      14     O     4.26527  4.26527  0.00000 -0.53055
      15     C     3.09654  3.09654  0.00000 -0.19308
      16     H     0.40512  0.40512  0.00000  0.18975
      17     H     0.40178  0.40178  0.00000  0.19644
      18     H     0.41757  0.41757  0.00000  0.16486

   Total alpha = 36.00000, Total beta = 36.00000, Total charge =  0.00000
