  ==> Input File <==

--------------------------------------------------------------------------
set {
	reference rhf
	basis 6-31G*
}

set_num_threads( 1 )
memory 2 gb

molecule MOL {
0 1

H	 -4.015462	 -0.335522	 0.537760
O	 -3.517110	 -0.026191	 -0.205115
C	 -2.306886	 0.532354	 0.237577
C	 -1.177863	 -0.397191	 -0.171080
H	 -2.156308	 1.517575	 -0.201710
H	 -2.315015	 0.655684	 1.319734
C	 0.198102	 0.111031	 0.262842
H	 -1.208843	 -0.518759	 -1.250427
H	 -1.368741	 -1.376554	 0.258909
C	 1.331804	 -0.827780	 -0.158768
H	 0.361943	 1.100838	 -0.156218
H	 0.217265	 0.229072	 1.345532
C	 2.723619	 -0.410569	 0.329459
H	 1.342964	 -0.912588	 -1.244120
H	 1.116806	 -1.824343	 0.220779
C	 3.243875	 0.895854	 -0.272975
H	 3.424222	 -1.207124	 0.091250
H	 2.714788	 -0.329854	 1.414619
H	 3.251977	 0.848779	 -1.358681
H	 2.637085	 1.747371	 0.016682
H	 4.259473	 1.094070	 0.055697

	symmetry c1
}
set optking {
	frozen_dihedral = ("
		2 3 4 8,
		8 4 7 10,
		4 7 10 14,
		16 13 10 14
	")
}

ee = energy('scf')
oeprop('DIPOLE', 'QUADRUPOLE', 'MULLIKEN_CHARGES')
f=open( 'psi4out.xyz', 'w' )
f.write( "21  " )
f.write( str(ee) + "\n" )
f.write( MOL.save_string_xyz() )
f.close()
--------------------------------------------------------------------------

    Molecular point group: c1

    Geometry (in Angstrom), charge = 0, multiplicity = 1:

       Center              X                  Y                   Z               Mass
    ------------   -----------------  -----------------  -----------------  -----------------
           H         -4.017643525189    -0.326898467826     0.532844604252     1.007825032070
           O         -3.519291525189    -0.017567467826    -0.210030395748    15.994914619560
           C         -2.309067525189     0.540977532174     0.232661604252    12.000000000000
           C         -1.180044525189    -0.388567467826    -0.175995395748    12.000000000000
           H         -2.158489525189     1.526198532174    -0.206625395748     1.007825032070
           H         -2.317196525189     0.664307532174     1.314818604252     1.007825032070
           C          0.195920474811     0.119654532174     0.257926604252    12.000000000000
           H         -1.211024525189    -0.510135467826    -1.255342395748     1.007825032070
           H         -1.370922525189    -1.367930467826     0.253993604252     1.007825032070
           C          1.329622474811    -0.819156467826    -0.163683395748    12.000000000000
           H          0.359761474811     1.109461532174    -0.161133395748     1.007825032070
           H          0.215083474811     0.237695532174     1.340616604252     1.007825032070
           C          2.721437474811    -0.401945467826     0.324543604252    12.000000000000
           H          1.340782474811    -0.903964467826    -1.249035395748     1.007825032070
           H          1.114624474811    -1.815719467826     0.215863604252     1.007825032070
           C          3.241693474811     0.904477532174    -0.277890395748    12.000000000000
           H          3.422040474811    -1.198500467826     0.086334604252     1.007825032070
           H          2.712606474811    -0.321230467826     1.409703604252     1.007825032070
           H          3.249795474811     0.857402532174    -1.363596395748     1.007825032070
           H          2.634903474811     1.755994532174     0.011766604252     1.007825032070
           H          4.257291474811     1.102693532174     0.050781604252     1.007825032070

  Charge       = 0
  Multiplicity = 1
  Basis Set: 6-31G*
  Basis Set:

    Orbital Energies (a.u.)
    -----------------------

    Doubly Occupied:

       1A    -20.551254     2A    -11.267805     3A    -11.215300
       4A    -11.215071     5A    -11.213718     6A    -11.208998
       7A    -11.208198     8A     -1.359273     9A     -1.086141
      10A     -1.032860    11A     -0.954160    12A     -0.876440
      13A     -0.810249    14A     -0.778804    15A     -0.700490
      16A     -0.649980    17A     -0.619201    18A     -0.609317
      19A     -0.587139    20A     -0.568994    21A     -0.541126
      22A     -0.525998    23A     -0.500369    24A     -0.495531
      25A     -0.470415    26A     -0.467453    27A     -0.460297
      28A     -0.455639    29A     -0.417730

  @DF-RHF Final Energy:  -310.21028678255243

   => Energetics <=

    Nuclear Repulsion Energy =            312.6846106998948471
    One-Electron Energy =               -1040.0939678172101139
    Two-Electron Energy =                 417.1990703347642580
    DFT Exchange-Correlation Energy =       0.0000000000000000
    Empirical Dispersion Energy =           0.0000000000000000
    PCM Polarization Energy =               0.0000000000000000
    EFP Energy =                            0.0000000000000000
    Total Energy =                       -310.2102867825510089

  Mulliken Charges: (a.u.)
   Center  Symbol    Alpha    Beta     Spin     Total
       1     H     0.27976  0.27976  0.00000  0.44048
       2     O     4.37165  4.37165  0.00000 -0.74331
       3     C     2.99591  2.99591  0.00000  0.00818
       4     C     3.15451  3.15451  0.00000 -0.30902
       5     H     0.42166  0.42166  0.00000  0.15668
       6     H     0.43250  0.43250  0.00000  0.13501
       7     C     3.16322  3.16322  0.00000 -0.32644
       8     H     0.41451  0.41451  0.00000  0.17097
       9     H     0.42352  0.42352  0.00000  0.15296
      10     C     3.15130  3.15130  0.00000 -0.30261
      11     H     0.42099  0.42099  0.00000  0.15802
      12     H     0.42572  0.42572  0.00000  0.14855
      13     C     3.15235  3.15235  0.00000 -0.30469
      14     H     0.42285  0.42285  0.00000  0.15429
      15     H     0.42202  0.42202  0.00000  0.15596
      16     C     3.24118  3.24118  0.00000 -0.48236
      17     H     0.42084  0.42084  0.00000  0.15832
      18     H     0.42394  0.42394  0.00000  0.15212
      19     H     0.42183  0.42183  0.00000  0.15634
      20     H     0.42044  0.42044  0.00000  0.15911
      21     H     0.41928  0.41928  0.00000  0.16143

   Total alpha = 29.00000, Total beta = 29.00000, Total charge =  0.00000
