                              Psi4 1.0.54 Driver

  ==> Input File <==

--------------------------------------------------------------------------
set {
	reference rhf
	basis cc-pvtz
}

set_num_threads( 4 )
memory 2 gb

molecule MOL {
0 1

H	 2.335206	 -0.102806	 -0.133469
O	 1.579624	 -0.670735	 -0.137737
C	 0.489979	 0.078084	 0.002623
C	 -0.763662	 -0.754014	 0.000816
O	 0.541962	 1.254781	 0.105550
C	 -2.038001	 0.074705	 -0.000833
H	 -0.712945	 -1.405886	 -0.864342
H	 -0.715137	 -1.405770	 0.866182
H	 -2.087267	 0.710831	 -0.874232
H	 -2.903419	 -0.576199	 -0.001922
H	 -2.089467	 0.710909	 0.872389

	symmetry c1
}
set optking {
	frozen_dihedral = ("
		2 3 4 7
	")
}

ee,wfn = optimize('scf', return_wfn=True)
oeprop( wfn, 'DIPOLE', 'QUADRUPOLE', 'MULLIKEN_CHARGES')
f=open( 'psi4out.xyz', 'w' )
f.write( "11  " )
f.write( str(ee) + "\n" )
f.write( MOL.save_string_xyz() )
f.close()
--------------------------------------------------------------------------

    Molecular point group: c1
  Charge       = 0
  Multiplicity = 1
  Basis Set: CC-PVTZ
  Basis Set:
  @DF-RHF Final Energy:  -266.95325199802357
    Total Energy =                       -266.9532519980235747
    Molecular point group: c1
  Basis Set: CC-PVTZ
  Basis Set:
  Basis Set: CC-PVTZ
  Basis Set:
  @DF-RHF Final Energy:  -266.95312677919031
    Total Energy =                       -266.9531267791902565
  Basis Set: CC-PVTZ
  Basis Set:
  Basis Set: CC-PVTZ
  Basis Set:
  @DF-RHF Final Energy:  -266.95326973710962
    Total Energy =                       -266.9532697371095082
  Basis Set: CC-PVTZ
  Basis Set:
  Charge       = 0
  Multiplicity = 1
  Basis Set: CC-PVTZ
  Basis Set:

    Orbital Energies (a.u.)
    -----------------------

    Doubly Occupied:

       1A    -20.605214     2A    -20.541556     3A    -11.374397
       4A    -11.242854     5A    -11.218884     6A     -1.478763
       7A     -1.370263     8A     -1.066531     9A     -0.918903
      10A     -0.803838    11A     -0.705867    12A     -0.693630
      13A     -0.665365    14A     -0.597948    15A     -0.596596
      16A     -0.534182    17A     -0.527233    18A     -0.505850
      19A     -0.485257    20A     -0.448910

  @DF-RHF Final Energy:  -266.95327502620125

   => Energetics <=

    Nuclear Repulsion Energy =            180.1686284114955470
    One-Electron Energy =                -721.4797283560384358
    Two-Electron Energy =                 274.3578249183416347
    DFT Exchange-Correlation Energy =       0.0000000000000000
    Empirical Dispersion Energy =           0.0000000000000000
    PCM Polarization Energy =               0.0000000000000000
    EFP Energy =                            0.0000000000000000
    Total Energy =                       -266.9532750262012541
    Molecular point group: c1
  Basis Set: CC-PVTZ
  Basis Set:

  -Total Gradient:
     Atom            X                  Y                   Z
    ------   -----------------  -----------------  -----------------
       1       -0.000048211038     0.000013605623    -0.000009714744
       2       -0.000077020336     0.000064136609    -0.000301834407
       3        0.000131014826    -0.000345714698     0.000436568020
       4       -0.000218423114     0.000373178625    -0.000357689537
       5       -0.000003446486     0.000156667813     0.000036154205
       6        0.000002022855     0.000023920743    -0.000027683169
       7        0.000179727620    -0.000277240535     0.000228680527
       8        0.000022145074     0.000002677360    -0.000003740282
       9       -0.000009281033     0.000009842883     0.000000283754
      10        0.000009056035    -0.000005438811     0.000005280385
      11        0.000012415599    -0.000015635611    -0.000006304753

  **** Optimization is complete! (in 4 steps) ****
    Final optimized geometry and variables:
    Molecular point group: c1

    Geometry (in Angstrom), charge = 0, multiplicity = 1:

    H            2.336784009136    -0.105097344742    -0.109266997879
    O            1.580313477440    -0.671789488717    -0.128132735808
    C            0.490214385742     0.077486791767     0.005376744952
    C           -0.764043849520    -0.753923865805     0.004158719786
    O            0.543132375727     1.253552528884     0.115304700903
    C           -2.038180753376     0.074960678497     0.011794001926
    H           -0.717859941613    -1.412558531275    -0.855225056180
    H           -0.710197104684    -1.400313905753     0.874224750131
    H           -2.096781862990     0.707295855339    -0.864253890337
    H           -2.903862386319    -0.575600411801     0.021739306098
    H           -2.079999779369     0.714949114740     0.882405805692

  Mulliken Charges: (a.u.)
   Center  Symbol    Alpha    Beta     Spin     Total
       1     H     0.38175  0.38175  0.00000  0.23649
       2     O     4.16036  4.16036  0.00000 -0.32072
       3     C     2.80319  2.80319  0.00000  0.39362
       4     C     3.10102  3.10102  0.00000 -0.20205
       5     O     4.19079  4.19079  0.00000 -0.38157
       6     C     3.13899  3.13899  0.00000 -0.27797
       7     H     0.43845  0.43845  0.00000  0.12310
       8     H     0.44026  0.44026  0.00000  0.11947
       9     H     0.44893  0.44893  0.00000  0.10215
      10     H     0.44964  0.44964  0.00000  0.10073
      11     H     0.44662  0.44662  0.00000  0.10675

   Total alpha = 20.00000, Total beta = 20.00000, Total charge =  0.00000

*** Psi4 exiting successfully. Buy a developer a beer!
