                              Psi4 1.0.54 Driver

  ==> Input File <==

--------------------------------------------------------------------------
set {
	reference rhf
	basis cc-pvtz
}

set_num_threads( 4 )
memory 2 gb

molecule MOL {
0 1

H	 -2.703082	 0.688670	 0.864306
C	 -2.197863	 1.649557	 0.930132
O	 -0.823588	 1.512052	 0.788705
H	 -2.550873	 2.283385	 0.129799
H	 -2.458010	 2.110318	 1.881398
C	 -0.222750	 0.723314	 1.762627
C	 1.243796	 0.558040	 1.452348
H	 -0.325816	 1.189652	 2.742360
H	 -0.691560	 -0.257338	 1.806987
O	 1.401606	 -0.295166	 0.366636
H	 1.676795	 1.533481	 1.241498
H	 1.746217	 0.149817	 2.329217
C	 2.714315	 -0.441627	 -0.061017
H	 2.765292	 -0.641548	 -1.128869
H	 3.305661	 0.447341	 0.150952
H	 3.143725	 -1.278506	 0.470147

	symmetry c1
}
set optking {
	frozen_dihedral = ("
		7 10 13 14
	")
}

ee,wfn = optimize('scf', return_wfn=True)
oeprop( wfn, 'DIPOLE', 'QUADRUPOLE', 'MULLIKEN_CHARGES')
f=open( 'psi4out.xyz', 'w' )
f.write( "16  " )
f.write( str(ee) + "\n" )
f.write( MOL.save_string_xyz() )
f.close()
--------------------------------------------------------------------------

    Molecular point group: c1
  Charge       = 0
  Multiplicity = 1
  Basis Set: CC-PVTZ
  Basis Set:
  @DF-RHF Final Energy:  -307.09512880637016
    Total Energy =                       -307.0951288063702123
    Molecular point group: c1
  Basis Set: CC-PVTZ
  Basis Set:
  Basis Set: CC-PVTZ
  Basis Set:
  @DF-RHF Final Energy:  -307.09594100531143
    Total Energy =                       -307.0959410053116017
  Basis Set: CC-PVTZ
  Basis Set:
  Basis Set: CC-PVTZ
  Basis Set:
  @DF-RHF Final Energy:  -307.09611929109377
    Total Energy =                       -307.0961192910939417
  Basis Set: CC-PVTZ
  Basis Set:
  Charge       = 0
  Multiplicity = 1
  Basis Set: CC-PVTZ
  Basis Set:

    Orbital Energies (a.u.)
    -----------------------

    Doubly Occupied:

       1A    -20.547619     2A    -20.546078     3A    -11.267673
       4A    -11.266787     5A    -11.261477     6A    -11.261289
       7A     -1.390626     8A     -1.373111     9A     -1.031961
      10A     -0.937286    11A     -0.892183    12A     -0.824242
      13A     -0.685576    14A     -0.682101    15A     -0.658854
      16A     -0.638093    17A     -0.631030    18A     -0.597752
      19A     -0.553549    20A     -0.536654    21A     -0.508891
      22A     -0.478819    23A     -0.464298    24A     -0.422384
      25A     -0.412291

  @DF-RHF Final Energy:  -307.09612003482982

   => Energetics <=

    Nuclear Repulsion Energy =            258.7792847737802049
    One-Electron Energy =                -932.0095682062642481
    Two-Electron Energy =                 366.1341633976541061
    DFT Exchange-Correlation Energy =       0.0000000000000000
    Empirical Dispersion Energy =           0.0000000000000000
    PCM Polarization Energy =               0.0000000000000000
    EFP Energy =                            0.0000000000000000
    Total Energy =                       -307.0961200348299371
    Molecular point group: c1
  Basis Set: CC-PVTZ
  Basis Set:

  -Total Gradient:
     Atom            X                  Y                   Z
    ------   -----------------  -----------------  -----------------
       1        0.000000833023     0.000000400276    -0.000005220114
       2        0.000008407206    -0.000023157546     0.000048084717
       3        0.000042343293     0.000016600618    -0.000021982325
       4        0.000025633174    -0.000004335651    -0.000002248326
       5       -0.000012874560     0.000004779800    -0.000000177835
       6       -0.000040036123    -0.000052149501     0.000018993618
       7       -0.000313805870     0.001956742424    -0.001363064208
       8       -0.000005503618     0.000010606633    -0.000001749910
       9       -0.000006722512    -0.000000625881     0.000004163500
      10        0.000446872137    -0.002053694323     0.001807036192
      11        0.000020695305     0.000014698821     0.000000929302
      12       -0.000021805807    -0.000021598979    -0.000055654963
      13       -0.000275562938    -0.002641513570    -0.000011040943
      14        0.000098453087     0.002809111850    -0.000396260653
      15        0.000034487383     0.000000082397    -0.000021007700
      16       -0.000001413182    -0.000015947370    -0.000000800355

  **** Optimization is complete! (in 4 steps) ****
    Final optimized geometry and variables:
    Molecular point group: c1

    Geometry (in Angstrom), charge = 0, multiplicity = 1:

    H           -3.052800159659     0.011758120137     0.022824060077
    C           -2.565971517930     0.979496315807     0.119514644384
    O           -1.190217608151     0.874040066433    -0.034105069426
    H           -2.935997285499     1.633773927258    -0.656294461080
    H           -2.829361311295     1.401675710516     1.087673402262
    C           -0.568439916028     0.063456625594     0.908166282740
    C            0.899277092357    -0.061601652589     0.584395142049
    H           -0.674151778460     0.493437773668     1.904185103117
    H           -1.018227065511    -0.926888278296     0.920923765106
    O            1.064002526129    -0.866667672679    -0.536939000689
    H            1.312313180908     0.928609924487     0.409138418155
    H            1.411422902283    -0.493155938665     1.444513874088
    C            2.371229123056    -0.990491761334    -0.996479922746
    H            2.341338239941    -1.144603113310    -2.066200995802
    H            2.946804899790    -0.087531465035    -0.810543268244
    H            2.881326073700    -1.825247859242    -0.523133962324

  Mulliken Charges: (a.u.)
   Center  Symbol    Alpha    Beta     Spin     Total
       1     H     0.47019  0.47019  0.00000  0.05962
       2     C     3.03204  3.03204  0.00000 -0.06408
       3     O     4.17029  4.17029  0.00000 -0.34059
       4     H     0.44641  0.44641  0.00000  0.10717
       5     H     0.47372  0.47372  0.00000  0.05255
       6     C     2.96210  2.96210  0.00000  0.07580
       7     C     2.95983  2.95983  0.00000  0.08034
       8     H     0.47622  0.47622  0.00000  0.04755
       9     H     0.47078  0.47078  0.00000  0.05844
      10     O     4.17275  4.17275  0.00000 -0.34550
      11     H     0.46899  0.46899  0.00000  0.06202
      12     H     0.47734  0.47734  0.00000  0.04531
      13     C     3.02918  3.02918  0.00000 -0.05835
      14     H     0.44925  0.44925  0.00000  0.10150
      15     H     0.47460  0.47460  0.00000  0.05080
      16     H     0.46630  0.46630  0.00000  0.06741

   Total alpha = 25.00000, Total beta = 25.00000, Total charge = -0.00000

*** Psi4 exiting successfully. Buy a developer a beer!
