  ==> Input File <==

--------------------------------------------------------------------------
set {
	reference rhf
	basis cc-pvtz
}

set_num_threads( 4 )
memory 2 gb

molecule MOL {
0 1

O	 -2.071633	 -1.227563	 -0.223463
C	 -1.652164	 -0.152425	 0.058082
C	 -0.327811	 0.006324	 0.778296
C	 -2.402515	 1.108629	 -0.298924
C	 0.843231	 -0.001575	 -0.211665
H	 -0.319484	 0.928173	 1.350354
H	 -0.227804	 -0.823091	 1.466705
C	 2.197693	 0.138030	 0.476937
H	 0.722944	 0.805202	 -0.930230
H	 0.813976	 -0.926978	 -0.776588
C	 3.312427	 -0.606126	 -0.250224
H	 2.456184	 1.190550	 0.553799
H	 2.119813	 -0.232855	 1.494737
H	 3.438258	 -0.233072	 -1.261180
H	 3.096723	 -1.667116	 -0.314568
H	 4.259208	 -0.491466	 0.264421
H	 -3.240910	 0.874416	 -0.936711
H	 -1.747554	 1.818823	 -0.790984
H	 -2.760419	 1.579708	 0.610998

	symmetry c1
}
set optking {
	frozen_dihedral = ("
		11 8 5 9
	")
}

ee = optimize('scf')
oeprop('DIPOLE', 'QUADRUPOLE', 'MULLIKEN_CHARGES')
f=open( 'psi4out.xyz', 'w' )
f.write( "19  " )
f.write( str(ee) + "\n" )
f.write( MOL.save_string_xyz() )
f.close()
--------------------------------------------------------------------------

    Molecular point group: c1
  Charge       = 0
  Multiplicity = 1
  Basis Set: CC-PVTZ
  Basis Set:
  @DF-RHF Final Energy:  -309.17410821578460
    Total Energy =                       -309.1741082157847700
    Molecular point group: c1
  Basis Set: CC-PVTZ
  Basis Set:
  Basis Set: CC-PVTZ
  Basis Set:
  @DF-RHF Final Energy:  -309.17430129627922
    Total Energy =                       -309.1743012962789408
  Basis Set: CC-PVTZ
  Basis Set:
  Basis Set: CC-PVTZ
  Basis Set:
  @DF-RHF Final Energy:  -309.17430092903589
    Total Energy =                       -309.1743009290356667
  Basis Set: CC-PVTZ
  Basis Set:
  Basis Set: CC-PVTZ
  Basis Set:
  @DF-RHF Final Energy:  -309.17440794928933
    Total Energy =                       -309.1744079492896731
  Basis Set: CC-PVTZ
  Basis Set:
  Basis Set: CC-PVTZ
  Basis Set:
  @DF-RHF Final Energy:  -309.17436830016692
    Total Energy =                       -309.1743683001671457
  Basis Set: CC-PVTZ
  Basis Set:
  Basis Set: CC-PVTZ
  Basis Set:
  @DF-RHF Final Energy:  -309.17440890369113
    Total Energy =                       -309.1744089036914716
  Basis Set: CC-PVTZ
  Basis Set:
  Charge       = 0
  Multiplicity = 1
  Basis Set: CC-PVTZ
  Basis Set:

    Orbital Energies (a.u.)
    -----------------------

    Doubly Occupied:

       1A    -20.536912     2A    -11.319244     3A    -11.228893
       4A    -11.227892     5A    -11.227033     6A    -11.223068
       7A    -11.212859     8A     -1.396955     9A     -1.091731
      10A     -1.029969    11A     -0.984519    12A     -0.890609
      13A     -0.807472    14A     -0.735074    15A     -0.662098
      16A     -0.650664    17A     -0.621581    18A     -0.615180
      19A     -0.584200    20A     -0.579476    21A     -0.548664
      22A     -0.536512    23A     -0.520321    24A     -0.498415
      25A     -0.482121    26A     -0.476754    27A     -0.467843
      28A     -0.398923

  @DF-RHF Final Energy:  -309.17440908379388

   => Energetics <=

    Nuclear Repulsion Energy =            301.8548821728588791
    One-Electron Energy =               -1016.9486182961585428
    Two-Electron Energy =                 405.9193270395055606
    DFT Exchange-Correlation Energy =       0.0000000000000000
    Empirical Dispersion Energy =           0.0000000000000000
    PCM Polarization Energy =               0.0000000000000000
    EFP Energy =                            0.0000000000000000
    Total Energy =                       -309.1744090837941030
    Molecular point group: c1
  Basis Set: CC-PVTZ
  Basis Set:

  -Total Gradient:
     Atom            X                  Y                   Z
    ------   -----------------  -----------------  -----------------
       1        0.000000182033     0.000002630111     0.000008459607
       2        0.000008696759    -0.000002686761    -0.000024962104
       3        0.000001287992    -0.000001682329     0.000007981028
       4       -0.000014568181     0.000001684392     0.000020132975
       5        0.002146287248    -0.004062394096    -0.003163817989
       6        0.000002080488     0.000001597724     0.000001796926
       7        0.000001507327    -0.000003436067    -0.000003778936
       8        0.000301269676     0.004231816409    -0.001714609765
       9       -0.001911362642     0.002460087764     0.003122139703
      10        0.000007472719     0.000004054024     0.000003586207
      11       -0.000541205271    -0.002629987590     0.001754831813
      12       -0.000000484291    -0.000000453708    -0.000009601524
      13       -0.000004875901    -0.000003171846     0.000002806953
      14        0.000001609017    -0.000004905070     0.000001822617
      15       -0.000002829625     0.000000835426     0.000007874568
      16        0.000000397026     0.000003024764    -0.000003852376
      17        0.000001263743     0.000000406031    -0.000002495294
      18        0.000001541651    -0.000001753792    -0.000003523110
      19        0.000001730234     0.000004334608    -0.000004791299

  **** Optimization is complete! (in 7 steps) ****
    Final optimized geometry and variables:
    Molecular point group: c1

    Geometry (in Angstrom), charge = 0, multiplicity = 1:

    O           -2.093557079788    -1.103609065534    -0.259214764089
    C           -1.650958157291    -0.037357366397     0.021206110121
    C           -0.322321065097     0.092671904829     0.738694725904
    C           -2.376021204560     1.238893368618    -0.334300091624
    C            0.847949409200     0.061597622808    -0.255171499951
    H           -0.292620599441     1.014268020856     1.311106937513
    H           -0.237373474545    -0.738696407892     1.426491828050
    C            2.206204569892     0.241946346358     0.435061655419
    H            0.702871154387     0.860429636479    -0.976610751786
    H            0.817218231412    -0.876811301084    -0.795016499818
    C            3.344857037523    -0.472192318126    -0.286191131398
    H            2.429784411214     1.299219151761     0.532768360979
    H            2.146448837079    -0.148745959427     1.446538005698
    H            3.445730908191    -0.125280676044    -1.309584906657
    H            3.168823348887    -1.541541555190    -0.316846704679
    H            4.291649970054    -0.304102944482     0.213887462224
    H           -3.217031277181     1.022486396487    -0.974943406580
    H           -1.706999455545     1.938793720689    -0.822079698111
    H           -2.727784783635     1.713213825769     0.576368144848

  Mulliken Charges: (a.u.)
   Center  Symbol    Alpha    Beta     Spin     Total
       1     O     4.17716  4.17716  0.00000 -0.35431
       2     C     2.85868  2.85868  0.00000  0.28264
       3     C     3.09962  3.09962  0.00000 -0.19924
       4     C     3.15506  3.15506  0.00000 -0.31011
       5     C     3.09825  3.09825  0.00000 -0.19650
       6     H     0.44869  0.44869  0.00000  0.10261
       7     H     0.43938  0.43938  0.00000  0.12124
       8     C     3.08718  3.08718  0.00000 -0.17437
       9     H     0.45104  0.45104  0.00000  0.09792
      10     H     0.44122  0.44122  0.00000  0.11756
      11     C     3.14756  3.14756  0.00000 -0.29511
      12     H     0.45131  0.45131  0.00000  0.09739
      13     H     0.45420  0.45420  0.00000  0.09159
      14     H     0.45410  0.45410  0.00000  0.09180
      15     H     0.45266  0.45266  0.00000  0.09468
      16     H     0.44848  0.44848  0.00000  0.10303
      17     H     0.43603  0.43603  0.00000  0.12795
      18     H     0.45109  0.45109  0.00000  0.09782
      19     H     0.44830  0.44830  0.00000  0.10341

   Total alpha = 28.00000, Total beta = 28.00000, Total charge =  0.00000
