  ==> Input File <==

--------------------------------------------------------------------------
set {
	reference rhf
	basis 6-31G*
}

set_num_threads( 1 )
memory 2 gb

molecule MOL {
0 1

H	 1.916900	 -3.787134	 0.348955
C	 2.167876	 -2.734802	 0.263172
C	 0.908473	 -1.875269	 0.162826
H	 2.758858	 -2.465008	 1.133906
H	 2.798497	 -2.616511	 -0.613510
C	 1.217350	 -0.386724	 0.039429
H	 0.280651	 -2.026904	 1.035314
H	 0.323642	 -2.192942	 -0.698829
N	 0.000003	 0.397874	 -0.023260
H	 1.778705	 -0.063596	 0.912030
H	 1.866931	 -0.217950	 -0.825983
C	 -1.217365	 -0.386708	 0.039277
H	 -0.000031	 1.072115	 0.718656
C	 -2.452633	 0.504241	 -0.042481
H	 -1.215291	 -1.074557	 -0.802042
H	 -1.269739	 -1.003477	 0.942735
C	 -3.758029	 -0.289423	 -0.010781
H	 -2.394220	 1.093569	 -0.952170
H	 -2.440793	 1.210787	 0.785871
H	 -3.816659	 -0.981993	 -0.845726
H	 -4.617837	 0.370165	 -0.069296
H	 -3.847478	 -0.867502	 0.904682

	symmetry c1
}
set optking {
	frozen_dihedral = ("
		15 12 14 18
	")
}

ee = energy('scf')
oeprop('DIPOLE', 'QUADRUPOLE', 'MULLIKEN_CHARGES')
f=open( 'psi4out.xyz', 'w' )
f.write( "22  " )
f.write( str(ee) + "\n" )
f.write( MOL.save_string_xyz() )
f.close()
--------------------------------------------------------------------------

    Molecular point group: c1

    Geometry (in Angstrom), charge = 0, multiplicity = 1:

       Center              X                  Y                   Z               Mass
    ------------   -----------------  -----------------  -----------------  -----------------
           H          2.367366772654    -3.093805046120     0.278923302275     1.007825032070
           C          2.618342772654    -2.041473046120     0.193140302275    12.000000000000
           C          1.358939772654    -1.181940046120     0.092794302275    12.000000000000
           H          3.209324772654    -1.771679046120     1.063874302275     1.007825032070
           H          3.248963772654    -1.923182046120    -0.683541697725     1.007825032070
           C          1.667816772654     0.306604953880    -0.030602697725    12.000000000000
           H          0.731117772654    -1.333575046120     0.965282302275     1.007825032070
           H          0.774108772654    -1.499613046120    -0.768860697725     1.007825032070
           N          0.450469772654     1.091202953880    -0.093291697725    14.003074004780
           H          2.229171772654     0.629732953880     0.841998302275     1.007825032070
           H          2.317397772654     0.475378953880    -0.896014697725     1.007825032070
           C         -0.766898227346     0.306620953880    -0.030754697725    12.000000000000
           H          0.450435772654     1.765443953880     0.648624302275     1.007825032070
           C         -2.002166227346     1.197569953880    -0.112512697725    12.000000000000
           H         -0.764824227346    -0.381228046120    -0.872073697725     1.007825032070
           H         -0.819272227346    -0.310148046120     0.872703302275     1.007825032070
           C         -3.307562227346     0.403905953880    -0.080812697725    12.000000000000
           H         -1.943753227346     1.786897953880    -1.022201697725     1.007825032070
           H         -1.990326227346     1.904115953880     0.715839302275     1.007825032070
           H         -3.366192227346    -0.288664046120    -0.915757697725     1.007825032070
           H         -4.167370227346     1.063493953880    -0.139327697725     1.007825032070
           H         -3.397011227346    -0.174173046120     0.834650302275     1.007825032070

  Charge       = 0
  Multiplicity = 1
  Basis Set: 6-31G*
  Basis Set:

    Orbital Energies (a.u.)
    -----------------------

    Doubly Occupied:

       1A    -15.530231     2A    -11.237933     3A    -11.235167
       4A    -11.213149     5A    -11.211327     6A    -11.209524
       7A    -11.208810     8A     -1.207575     9A     -1.054289
      10A     -1.027395    11A     -0.928480    12A     -0.881096
      13A     -0.820257    14A     -0.770689    15A     -0.674974
      16A     -0.626831    17A     -0.620490    18A     -0.613112
      19A     -0.569932    20A     -0.560951    21A     -0.540531
      22A     -0.534164    23A     -0.503761    24A     -0.489920
      25A     -0.481156    26A     -0.471071    27A     -0.465420
      28A     -0.453329    29A     -0.348461

  @DF-RHF Final Energy:  -290.36073483008551

   => Energetics <=

    Nuclear Repulsion Energy =            323.0185120594334762
    One-Electron Energy =               -1031.7785115196611514
    Two-Electron Energy =                 418.3992646301426817
    DFT Exchange-Correlation Energy =       0.0000000000000000
    Empirical Dispersion Energy =           0.0000000000000000
    PCM Polarization Energy =               0.0000000000000000
    EFP Energy =                            0.0000000000000000
    Total Energy =                       -290.3607348300849367

  Mulliken Charges: (a.u.)
   Center  Symbol    Alpha    Beta     Spin     Total
       1     H     0.41869  0.41869  0.00000  0.16262
       2     C     3.23799  3.23799  0.00000 -0.47598
       3     C     3.17336  3.17336  0.00000 -0.34673
       4     H     0.42247  0.42247  0.00000  0.15506
       5     H     0.42072  0.42072  0.00000  0.15856
       6     C     3.03800  3.03800  0.00000 -0.07601
       7     H     0.41814  0.41814  0.00000  0.16372
       8     H     0.41711  0.41711  0.00000  0.16578
       9     N     3.86131  3.86131  0.00000 -0.72261
      10     H     0.42973  0.42973  0.00000  0.14055
      11     H     0.42302  0.42302  0.00000  0.15396
      12     C     3.05704  3.05704  0.00000 -0.11408
      13     H     0.33258  0.33258  0.00000  0.33483
      14     C     3.15054  3.15054  0.00000 -0.30108
      15     H     0.41882  0.41882  0.00000  0.16235
      16     H     0.43425  0.43425  0.00000  0.13150
      17     C     3.24299  3.24299  0.00000 -0.48599
      18     H     0.41370  0.41370  0.00000  0.17259
      19     H     0.42797  0.42797  0.00000  0.14406
      20     H     0.42127  0.42127  0.00000  0.15746
      21     H     0.41786  0.41786  0.00000  0.16428
      22     H     0.42243  0.42243  0.00000  0.15515

   Total alpha = 29.00000, Total beta = 29.00000, Total charge =  0.00000
