  ==> Input File <==

--------------------------------------------------------------------------
set {
	reference rhf
	basis 6-31G*
}

set_num_threads( 1 )
memory 2 gb

molecule MOL {
0 1

H	 -2.449482	 1.909615	 -2.141383
C	 -1.601796	 2.446740	 -2.584719
C	 -0.724761	 3.177143	 -1.599867
O	 -1.429987	 2.425204	 -3.760205
C	 -0.249239	 2.274528	 -0.452949
H	 0.110060	 3.608768	 -2.139759
H	 -1.316209	 3.995080	 -1.190205
C	 0.706163	 1.166783	 -0.903957
H	 0.242435	 2.894158	 0.291093
H	 -1.113342	 1.834786	 0.042742
C	 1.180775	 0.282413	 0.250794
H	 1.566892	 1.616944	 -1.394210
H	 0.222643	 0.545822	 -1.655725
C	 2.148627	 -0.814315	 -0.201312
H	 1.653374	 0.909052	 1.002928
H	 0.317861	 -0.176125	 0.731945
C	 3.580890	 -0.659131	 0.322722
H	 2.166869	 -0.852443	 -1.289387
H	 1.762857	 -1.776509	 0.128956
C	 4.324889	 0.564933	 -0.213704
H	 4.142010	 -1.551473	 0.056605
H	 3.564836	 -0.624694	 1.410140
H	 4.342616	 0.565491	 -1.300421
H	 3.866655	 1.493402	 0.110242
H	 5.353900	 0.572371	 0.132816

	symmetry c1
}
set optking {
	frozen_dihedral = ("
		6 3 5 8,
		6 3 2 4,
		3 5 8 12,
		12 8 11 14,
		20 17 14 18
	")
}

ee = energy('scf')
oeprop('DIPOLE', 'QUADRUPOLE', 'MULLIKEN_CHARGES')
f=open( 'psi4out.xyz', 'w' )
f.write( "25  " )
f.write( str(ee) + "\n" )
f.write( MOL.save_string_xyz() )
f.close()
--------------------------------------------------------------------------

    Molecular point group: c1

    Geometry (in Angstrom), charge = 0, multiplicity = 1:

       Center              X                  Y                   Z               Mass
    ------------   -----------------  -----------------  -----------------  -----------------
           H         -3.340358717896     0.698709128963    -1.111099399557     1.007825032070
           C         -2.492672717896     1.235834128963    -1.554435399557    12.000000000000
           C         -1.615637717896     1.966237128963    -0.569583399557    12.000000000000
           O         -2.320863717896     1.214298128963    -2.729921399557    15.994914619560
           C         -1.140115717896     1.063622128963     0.577334600443    12.000000000000
           H         -0.780816717896     2.397862128963    -1.109475399557     1.007825032070
           H         -2.207085717896     2.784174128963    -0.159921399557     1.007825032070
           C         -0.184713717896    -0.044122871037     0.126326600443    12.000000000000
           H         -0.648441717896     1.683252128963     1.321376600443     1.007825032070
           H         -2.004218717896     0.623880128963     1.073025600443     1.007825032070
           C          0.289898282104    -0.928492871037     1.281077600443    12.000000000000
           H          0.676015282104     0.406038128963    -0.363926399557     1.007825032070
           H         -0.668233717896    -0.665083871037    -0.625441399557     1.007825032070
           C          1.257750282104    -2.025220871037     0.828971600443    12.000000000000
           H          0.762497282104    -0.301853871037     2.033211600443     1.007825032070
           H         -0.573015717896    -1.387030871037     1.762228600443     1.007825032070
           C          2.690013282104    -1.870036871037     1.353005600443    12.000000000000
           H          1.275992282104    -2.063348871037    -0.259103399557     1.007825032070
           H          0.871980282104    -2.987414871037     1.159239600443     1.007825032070
           C          3.434012282104    -0.645972871037     0.816579600443    12.000000000000
           H          3.251133282104    -2.762378871037     1.086888600443     1.007825032070
           H          2.673959282104    -1.835599871037     2.440423600443     1.007825032070
           H          3.451739282104    -0.645414871037    -0.270137399557     1.007825032070
           H          2.975778282104     0.282496128963     1.140525600443     1.007825032070
           H          4.463023282104    -0.638534871037     1.163099600443     1.007825032070

  Charge       = 0
  Multiplicity = 1
  Basis Set: 6-31G*
  Basis Set:

    Orbital Energies (a.u.)
    -----------------------

    Doubly Occupied:

       1A    -20.561835     2A    -11.326024     3A    -11.234796
       4A    -11.234210     5A    -11.223604     6A    -11.218639
       7A    -11.217989     8A    -11.215417     9A    -11.211144
      10A     -1.401852    11A     -1.104243    12A     -1.069404
      13A     -1.012003    14A     -0.943913    15A     -0.875071
      16A     -0.820448    17A     -0.787962    18A     -0.781404
      19A     -0.664384    20A     -0.660907    21A     -0.631150
      22A     -0.625374    23A     -0.607073    24A     -0.592187
      25A     -0.569774    26A     -0.556002    27A     -0.533600
      28A     -0.522354    29A     -0.514276    30A     -0.495450
      31A     -0.487771    32A     -0.484596    33A     -0.464022
      34A     -0.452238    35A     -0.440228    36A     -0.409393

  @DF-RHF Final Energy:  -387.11675659573808

   => Energetics <=

    Nuclear Repulsion Energy =            445.8876186294793911
    One-Electron Energy =               -1408.1073198612116357
    Two-Electron Energy =                 575.1029446359942767
    DFT Exchange-Correlation Energy =       0.0000000000000000
    Empirical Dispersion Energy =           0.0000000000000000
    PCM Polarization Energy =               0.0000000000000000
    EFP Energy =                            0.0000000000000000
    Total Energy =                       -387.1167565957379111

  Mulliken Charges: (a.u.)
   Center  Symbol    Alpha    Beta     Spin     Total
       1     H     0.43261  0.43261  0.00000  0.13479
       2     C     2.83085  2.83085  0.00000  0.33829
       3     C     3.20807  3.20807  0.00000 -0.41614
       4     O     4.23787  4.23787  0.00000 -0.47573
       5     C     3.16706  3.16706  0.00000 -0.33413
       6     H     0.39980  0.39980  0.00000  0.20040
       7     H     0.40681  0.40681  0.00000  0.18638
       8     C     3.15849  3.15849  0.00000 -0.31698
       9     H     0.41310  0.41310  0.00000  0.17379
      10     H     0.41969  0.41969  0.00000  0.16061
      11     C     3.15588  3.15588  0.00000 -0.31176
      12     H     0.41625  0.41625  0.00000  0.16751
      13     H     0.41777  0.41777  0.00000  0.16445
      14     C     3.15705  3.15705  0.00000 -0.31410
      15     H     0.42032  0.42032  0.00000  0.15936
      16     H     0.42033  0.42033  0.00000  0.15934
      17     C     3.15333  3.15333  0.00000 -0.30666
      18     H     0.41927  0.41927  0.00000  0.16147
      19     H     0.41901  0.41901  0.00000  0.16198
      20     C     3.24123  3.24123  0.00000 -0.48246
      21     H     0.42090  0.42090  0.00000  0.15821
      22     H     0.42305  0.42305  0.00000  0.15391
      23     H     0.42090  0.42090  0.00000  0.15819
      24     H     0.42202  0.42202  0.00000  0.15596
      25     H     0.41834  0.41834  0.00000  0.16333

   Total alpha = 36.00000, Total beta = 36.00000, Total charge = -0.00000
