  ==> Input File <==

--------------------------------------------------------------------------
set {
	reference rhf
	basis 6-31G*
}

set_num_threads( 4 )
memory 2 gb

molecule MOL {
0 1

H	 -2.646257	 1.692711	 -1.480502
O	 -2.605349	 2.081887	 -0.617530
C	 -1.292718	 2.002635	 -0.143523
C	 -0.793441	 0.596080	 0.058728
H	 -1.280069	 2.532988	 0.801871
H	 -0.609268	 2.532335	 -0.806350
C	 -1.530462	 -0.493172	 -0.025500
H	 0.256809	 0.515249	 0.293084
H	 -1.092586	 -1.461565	 -0.186463
H	 -2.602122	 -0.450675	 0.050101

	symmetry c1
}
set optking {
	frozen_dihedral = ("
		3 4 7 9
	")
}

ee = optimize('scf')
oeprop('DIPOLE', 'QUADRUPOLE', 'MULLIKEN_CHARGES')
f=open( 'psi4out.xyz', 'w' )
f.write( "10  " )
f.write( str(ee) + "\n" )
f.write( MOL.save_string_xyz() )
f.close()
--------------------------------------------------------------------------

    Molecular point group: c1
  Charge       = 0
  Multiplicity = 1
  Basis Set: 6-31G*
  Basis Set:
  @DF-RHF Final Energy:  -191.90853057561898
    Total Energy =                       -191.9085305756189825
    Molecular point group: c1
  Basis Set: 6-31G*
  Basis Set:
  Basis Set: 6-31G*
  Basis Set:
  @DF-RHF Final Energy:  -191.91320126652562
    Total Energy =                       -191.9132012665255616
  Basis Set: 6-31G*
  Basis Set:
  Basis Set: 6-31G*
  Basis Set:
  @DF-RHF Final Energy:  -191.91333183105056
    Total Energy =                       -191.9133318310506411
  Basis Set: 6-31G*
  Basis Set:
  Basis Set: 6-31G*
  Basis Set:
  @DF-RHF Final Energy:  -191.91335796828014
    Total Energy =                       -191.9133579682801383
  Basis Set: 6-31G*
  Basis Set:
  Charge       = 0
  Multiplicity = 1
  Basis Set: 6-31G*
  Basis Set:

    Orbital Energies (a.u.)
    -----------------------

    Doubly Occupied:

       1A    -20.560821     2A    -11.279550     3A    -11.233010
       4A    -11.220648     5A     -1.369957     6A     -1.058779
       7A     -0.929789     8A     -0.769660     9A     -0.689090
      10A     -0.661352    11A     -0.616501    12A     -0.572007
      13A     -0.536368    14A     -0.495282    15A     -0.447528
      16A     -0.363864

  @DF-RHF Final Energy:  -191.91335861722882

   => Energetics <=

    Nuclear Repulsion Energy =            119.3821660216991063
    One-Electron Energy =                -496.9826326363152020
    Two-Electron Energy =                 185.6871079973873009
    DFT Exchange-Correlation Energy =       0.0000000000000000
    Empirical Dispersion Energy =           0.0000000000000000
    PCM Polarization Energy =               0.0000000000000000
    EFP Energy =                            0.0000000000000000
    Total Energy =                       -191.9133586172287949
    Molecular point group: c1
  Basis Set: 6-31G*
  Basis Set:

  -Total Gradient:
     Atom            X                  Y                   Z
    ------   -----------------  -----------------  -----------------
       1        0.000006439246    -0.000010599255    -0.000004217119
       2       -0.000002352357    -0.000000342223     0.000000532362
       3        0.002874794402    -0.000662729199    -0.009163629078
       4       -0.004682040875     0.001865964553     0.009883298823
       5       -0.000011290497    -0.000014672830     0.000002646078
       6       -0.000004860978    -0.000019956889     0.000004644180
       7        0.001703150216    -0.002717402142     0.012076879793
       8        0.000016233007     0.000001260531    -0.000042468474
       9        0.000133249220     0.001570520432    -0.012745626701
      10       -0.000033321381    -0.000012042981    -0.000012059862

  **** Optimization is complete! (in 5 steps) ****
    Final optimized geometry and variables:
    Molecular point group: c1

    Geometry (in Angstrom), charge = 0, multiplicity = 1:

    H           -1.089703478869     0.535262516967    -1.204093323037
    O           -1.004247462089     0.989137928071    -0.376653275342
    C            0.320635157024     0.900444248344     0.056368313327
    C            0.797564709984    -0.505971943534     0.310667787805
    H            0.383758678639     1.502746177373     0.955723675149
    H            0.998329726536     1.351068154811    -0.667890910452
    C            0.077082048927    -1.601580934438     0.168331264336
    H            1.861752352363    -0.591983158531     0.470778016581
    H            0.535308110025    -2.567621288992     0.055023726381
    H           -0.983326402662    -1.554973464237    -0.006307877853

  Mulliken Charges: (a.u.)
   Center  Symbol    Alpha    Beta     Spin     Total
       1     H     0.28111  0.28111  0.00000  0.43778
       2     O     4.36614  4.36614  0.00000 -0.73229
       3     C     3.00134  3.00134  0.00000 -0.00269
       4     C     3.08921  3.08921  0.00000 -0.17842
       5     H     0.40905  0.40905  0.00000  0.18190
       6     H     0.42424  0.42424  0.00000  0.15151
       7     C     3.19926  3.19926  0.00000 -0.39852
       8     H     0.41095  0.41095  0.00000  0.17810
       9     H     0.41035  0.41035  0.00000  0.17931
      10     H     0.40834  0.40834  0.00000  0.18331

   Total alpha = 16.00000, Total beta = 16.00000, Total charge =  0.00000
