  ==> Input File <==

--------------------------------------------------------------------------
set {
	reference rhf
	basis 6-31G*
}

set_num_threads( 4 )
memory 2 gb

molecule MOL {
0 1

H	 -3.058258	 1.802327	 0.707057
O	 -2.424770	 1.802788	 1.411717
C	 -1.137408	 1.819384	 0.867304
C	 -0.793441	 0.596080	 0.058728
H	 -0.455605	 1.905238	 1.705741
H	 -0.988345	 2.706899	 0.253200
C	 -1.530462	 -0.493172	 -0.025500
H	 0.140972	 0.653253	 -0.478008
H	 -1.092586	 -1.461565	 -0.186463
H	 -2.602122	 -0.450675	 0.050101

	symmetry c1
}
set optking {
	frozen_dihedral = ("
		3 4 7 9
	")
}

ee = optimize('scf')
oeprop('DIPOLE', 'QUADRUPOLE', 'MULLIKEN_CHARGES')
f=open( 'psi4out.xyz', 'w' )
f.write( "10  " )
f.write( str(ee) + "\n" )
f.write( MOL.save_string_xyz() )
f.close()
--------------------------------------------------------------------------

    Molecular point group: c1
  Charge       = 0
  Multiplicity = 1
  Basis Set: 6-31G*
  Basis Set:
  @DF-RHF Final Energy:  -191.89485369205042
    Total Energy =                       -191.8948536920503898
    Molecular point group: c1
  Basis Set: 6-31G*
  Basis Set:
  Basis Set: 6-31G*
  Basis Set:
  @DF-RHF Final Energy:  -191.90624911280426
    Total Energy =                       -191.9062491128042609
  Basis Set: 6-31G*
  Basis Set:
  Basis Set: 6-31G*
  Basis Set:
  @DF-RHF Final Energy:  -191.90834137371127
    Total Energy =                       -191.9083413737113233
  Basis Set: 6-31G*
  Basis Set:
  Basis Set: 6-31G*
  Basis Set:
  @DF-RHF Final Energy:  -191.90838926611588
    Total Energy =                       -191.9083892661159325
  Basis Set: 6-31G*
  Basis Set:
  Basis Set: 6-31G*
  Basis Set:
  @DF-RHF Final Energy:  -191.90839167004157
    Total Energy =                       -191.9083916700415386
  Basis Set: 6-31G*
  Basis Set:
  Charge       = 0
  Multiplicity = 1
  Basis Set: 6-31G*
  Basis Set:

    Orbital Energies (a.u.)
    -----------------------

    Doubly Occupied:

       1A    -20.561210     2A    -11.280172     3A    -11.230915
       4A    -11.218230     5A     -1.369535     6A     -1.057832
       7A     -0.928110     8A     -0.768290     9A     -0.687674
      10A     -0.658495    11A     -0.616550    12A     -0.571554
      13A     -0.538619    14A     -0.488596    15A     -0.449280
      16A     -0.359687

  @DF-RHF Final Energy:  -191.90839185642238

   => Energetics <=

    Nuclear Repulsion Energy =            119.1753893821062888
    One-Electron Energy =                -496.5980638170836983
    Two-Electron Energy =                 185.5142825785550258
    DFT Exchange-Correlation Energy =       0.0000000000000000
    Empirical Dispersion Energy =           0.0000000000000000
    PCM Polarization Energy =               0.0000000000000000
    EFP Energy =                            0.0000000000000000
    Total Energy =                       -191.9083918564223836
    Molecular point group: c1
  Basis Set: 6-31G*
  Basis Set:

  -Total Gradient:
     Atom            X                  Y                   Z
    ------   -----------------  -----------------  -----------------
       1        0.000009496862     0.000001135166    -0.000003515076
       2        0.000023467732    -0.000002126243    -0.000022482042
       3        0.008136465411    -0.005496077046     0.010523165185
       4       -0.012134223832     0.007752047857    -0.009282881934
       5        0.000004856248     0.000000159313     0.000009945367
       6       -0.000016185893    -0.000012476528     0.000000658703
       7        0.000684373397     0.000639757905    -0.020136985187
       8       -0.000031992648     0.000065769258    -0.000036608981
       9        0.003291579753    -0.002945474552     0.018907148830
      10        0.000032162972    -0.000002715131     0.000041555135

  **** Optimization is complete! (in 6 steps) ****
    Final optimized geometry and variables:
    Molecular point group: c1

    Geometry (in Angstrom), charge = 0, multiplicity = 1:

    H           -1.526343395615     0.957712971803     0.062147892012
    O           -0.920829374034     0.834802935275     0.780302491128
    C            0.385128466699     0.819696925306     0.281205104046
    C            0.708146569932    -0.368374035994    -0.587774965861
    H            1.040892331796     0.772848288877     1.142378112227
    H            0.610839546823     1.752513938405    -0.234533965385
    C            0.019549696874    -1.492228157282    -0.642514980439
    H            1.707483864588    -0.345743956671    -0.997739940880
    H            0.484020318711    -2.435252331278    -0.869811340951
    H           -0.952875727798    -1.557126593830    -0.185816919780

  Mulliken Charges: (a.u.)
   Center  Symbol    Alpha    Beta     Spin     Total
       1     H     0.28013  0.28013  0.00000  0.43974
       2     O     4.36683  4.36683  0.00000 -0.73366
       3     C     3.00003  3.00003  0.00000 -0.00007
       4     C     3.09598  3.09598  0.00000 -0.19196
       5     H     0.40619  0.40619  0.00000  0.18761
       6     H     0.42670  0.42670  0.00000  0.14661
       7     C     3.19327  3.19327  0.00000 -0.38654
       8     H     0.41304  0.41304  0.00000  0.17392
       9     H     0.40935  0.40935  0.00000  0.18131
      10     H     0.40849  0.40849  0.00000  0.18303

   Total alpha = 16.00000, Total beta = 16.00000, Total charge = -0.00000
