  ==> Input File <==

--------------------------------------------------------------------------
set {
	reference rhf
	basis 6-31G*
}

set_num_threads( 1 )
memory 2 gb

molecule MOL {
0 1

O	 3.225979	 0.970355	 -0.599647
C	 2.701189	 0.057885	 -0.047330
C	 1.245376	 -0.013843	 0.345420
O	 3.347903	 -1.046386	 0.304773
C	 0.455112	 1.231400	 -0.050772
H	 0.838542	 -0.913825	 -0.103701
H	 1.208210	 -0.175333	 1.419774
C	 -0.998893	 1.219485	 0.433193
H	 0.482531	 1.345121	 -1.130325
H	 0.957290	 2.103070	 0.354729
C	 -1.252322	 1.986401	 1.734240
H	 -1.297589	 0.183676	 0.576741
H	 -1.644918	 1.613604	 -0.349962
C	 -2.692704	 1.852815	 2.232690
H	 -0.571040	 1.623050	 2.502127
H	 -1.024432	 3.041131	 1.597916
C	 -2.958895	 2.619409	 3.529459
H	 -2.924659	 0.800022	 2.384535
H	 -3.374999	 2.206019	 1.461056
C	 -4.398528	 2.477708	 4.022487
H	 -2.277254	 2.268403	 4.301341
H	 -2.731762	 3.672677	 3.378399
H	 -4.555976	 3.031904	 4.942641
H	 -4.645926	 1.437805	 4.216373
H	 -5.103872	 2.852352	 3.286005
C	 4.728119	 -1.109107	 -0.004993
H	 4.882018	 -1.033965	 -1.071845
H	 5.068212	 -2.067527	 0.355250
H	 5.265056	 -0.311663	 0.488280

	symmetry c1
}
set optking {
	frozen_dihedral = ("
		21 17 14 11,
		17 14 11 15,
		15 11 8 5,
		6 3 5 9,
		2 4 26 27,
		1 2 4 26,
		6 3 2 1
	")
}

ee = energy('scf')
oeprop('DIPOLE', 'QUADRUPOLE', 'MULLIKEN_CHARGES')
f=open( 'psi4out.xyz', 'w' )
f.write( "29  " )
f.write( str(ee) + "\n" )
f.write( MOL.save_string_xyz() )
f.close()
--------------------------------------------------------------------------

    Molecular point group: c1

    Geometry (in Angstrom), charge = 0, multiplicity = 1:

       Center              X                  Y                   Z               Mass
    ------------   -----------------  -----------------  -----------------  -----------------
           O          2.874687521890     0.056579967310    -1.677549445626    15.994914619560
           C          2.349897521890    -0.855890032690    -1.125232445626    12.000000000000
           C          0.894084521890    -0.927618032690    -0.732482445626    12.000000000000
           O          2.996611521890    -1.960161032690    -0.773129445626    15.994914619560
           C          0.103820521890     0.317624967310    -1.128674445626    12.000000000000
           H          0.487250521890    -1.827600032690    -1.181603445626     1.007825032070
           H          0.856918521890    -1.089108032690     0.341871554374     1.007825032070
           C         -1.350184478110     0.305709967310    -0.644709445626    12.000000000000
           H          0.131239521890     0.431345967310    -2.208227445626     1.007825032070
           H          0.605998521890     1.189294967310    -0.723173445626     1.007825032070
           C         -1.603613478110     1.072625967310     0.656337554374    12.000000000000
           H         -1.648880478110    -0.730099032690    -0.501161445626     1.007825032070
           H         -1.996209478110     0.699828967310    -1.427864445626     1.007825032070
           C         -3.043995478110     0.939039967310     1.154787554374    12.000000000000
           H         -0.922331478110     0.709274967310     1.424224554374     1.007825032070
           H         -1.375723478110     2.127355967310     0.520013554374     1.007825032070
           C         -3.310186478110     1.705633967310     2.451556554374    12.000000000000
           H         -3.275950478110    -0.113753032690     1.306632554374     1.007825032070
           H         -3.726290478110     1.292243967310     0.383153554374     1.007825032070
           C         -4.749819478110     1.563932967310     2.944584554374    12.000000000000
           H         -2.628545478110     1.354627967310     3.223438554374     1.007825032070
           H         -3.083053478110     2.758901967310     2.300496554374     1.007825032070
           H         -4.907267478110     2.118128967310     3.864738554374     1.007825032070
           H         -4.997217478110     0.524029967310     3.138470554374     1.007825032070
           H         -5.455163478110     1.938576967310     2.208102554374     1.007825032070
           C          4.376827521890    -2.022882032690    -1.082895445626    12.000000000000
           H          4.530726521890    -1.947740032690    -2.149747445626     1.007825032070
           H          4.716920521890    -2.981302032690    -0.722652445626     1.007825032070
           H          4.913764521890    -1.225438032690    -0.589622445626     1.007825032070

  Charge       = 0
  Multiplicity = 1
  Basis Set: 6-31G*
  Basis Set:

    Orbital Energies (a.u.)
    -----------------------

    Doubly Occupied:

       1A    -20.603503     2A    -20.545370     3A    -11.372062
       4A    -11.280776     5A    -11.235852     6A    -11.217966
       7A    -11.216572     8A    -11.215662     9A    -11.215338
      10A    -11.213762    11A    -11.208706    12A     -1.469218
      13A     -1.362644    14A     -1.097199    15A     -1.067056
      16A     -1.019884    17A     -0.977392    18A     -0.927802
      19A     -0.858802    20A     -0.799808    21A     -0.790309
      22A     -0.766339    23A     -0.700261    24A     -0.682420
      25A     -0.672479    26A     -0.649931    27A     -0.628528
      28A     -0.603383    29A     -0.595832    30A     -0.581561
      31A     -0.566104    32A     -0.547959    33A     -0.533653
      34A     -0.529808    35A     -0.515247    36A     -0.505383
      37A     -0.501502    38A     -0.476138    39A     -0.469218
      40A     -0.461913    41A     -0.459790    42A     -0.456089
      43A     -0.441343    44A     -0.433586

  @DF-RHF Final Energy:  -501.04112380213473

   => Energetics <=

    Nuclear Repulsion Energy =            607.4285047221010245
    One-Electron Energy =               -1885.9913399888134791
    Two-Electron Energy =                 777.5217114645787433
    DFT Exchange-Correlation Energy =       0.0000000000000000
    Empirical Dispersion Energy =           0.0000000000000000
    PCM Polarization Energy =               0.0000000000000000
    EFP Energy =                            0.0000000000000000
    Total Energy =                       -501.0411238021337113

  Mulliken Charges: (a.u.)
   Center  Symbol    Alpha    Beta     Spin     Total
       1     O     4.28570  4.28570  0.00000 -0.57140
       2     C     2.60567  2.60567  0.00000  0.78867
       3     C     3.20956  3.20956  0.00000 -0.41912
       4     O     4.30754  4.30754  0.00000 -0.61508
       5     C     3.15520  3.15520  0.00000 -0.31040
       6     H     0.39994  0.39994  0.00000  0.20011
       7     H     0.40066  0.40066  0.00000  0.19867
       8     C     3.15784  3.15784  0.00000 -0.31568
       9     H     0.41044  0.41044  0.00000  0.17911
      10     H     0.40900  0.40900  0.00000  0.18200
      11     C     3.15332  3.15332  0.00000 -0.30665
      12     H     0.42366  0.42366  0.00000  0.15268
      13     H     0.41801  0.41801  0.00000  0.16398
      14     C     3.15128  3.15128  0.00000 -0.30256
      15     H     0.42510  0.42510  0.00000  0.14979
      16     H     0.42070  0.42070  0.00000  0.15861
      17     C     3.15147  3.15147  0.00000 -0.30294
      18     H     0.42424  0.42424  0.00000  0.15152
      19     H     0.42348  0.42348  0.00000  0.15305
      20     C     3.23929  3.23929  0.00000 -0.47857
      21     H     0.42327  0.42327  0.00000  0.15346
      22     H     0.42267  0.42267  0.00000  0.15465
      23     H     0.41923  0.41923  0.00000  0.16154
      24     H     0.42196  0.42196  0.00000  0.15607
      25     H     0.42167  0.42167  0.00000  0.15666
      26     C     3.09243  3.09243  0.00000 -0.18486
      27     H     0.40905  0.40905  0.00000  0.18190
      28     H     0.40850  0.40850  0.00000  0.18300
      29     H     0.40910  0.40910  0.00000  0.18179

   Total alpha = 44.00000, Total beta = 44.00000, Total charge = -0.00000
