                              Psi4 1.0.54 Driver

  ==> Input File <==

--------------------------------------------------------------------------
set {
	reference rhf
	basis cc-pvtz
}

set_num_threads( 4 )
memory 2 gb

molecule MOL {
0 1

O	 0.623971	 1.347241	 -0.000777
C	 0.485107	 0.171416	 -0.000134
C	 1.606966	 -0.836201	 0.000174
O	 -0.695554	 -0.422406	 0.000602
C	 2.988788	 -0.202529	 -0.000115
H	 1.465110	 -1.474645	 -0.864821
H	 1.465209	 -1.474077	 0.865596
H	 3.131767	 0.419673	 -0.873407
H	 3.750876	 -0.972315	 0.000098
H	 3.131883	 0.420264	 0.872742
C	 -1.481241	 -0.337103	 -1.179952
C	 -2.769001	 -1.087465	 -0.932729
H	 -0.926457	 -0.761867	 -2.004656
H	 -1.665511	 0.703474	 -1.407037
H	 -2.571960	 -2.127605	 -0.705450
H	 -3.393986	 -1.042177	 -1.816797
H	 -3.315264	 -0.653901	 -0.104484

	symmetry c1
}
set optking {
	frozen_dihedral = ("
		11 4 2 3
	")
}

ee,wfn = optimize('scf', return_wfn=True)
oeprop( wfn, 'DIPOLE', 'QUADRUPOLE', 'MULLIKEN_CHARGES')
f=open( 'psi4out.xyz', 'w' )
f.write( "17  " )
f.write( str(ee) + "\n" )
f.write( MOL.save_string_xyz() )
f.close()
--------------------------------------------------------------------------

    Molecular point group: c1
  Charge       = 0
  Multiplicity = 1
  Basis Set: CC-PVTZ
  Basis Set:
  @DF-RHF Final Energy:  -345.02407007822802
    Total Energy =                       -345.0240700782281920
    Molecular point group: c1
  Basis Set: CC-PVTZ
  Basis Set:
  Basis Set: CC-PVTZ
  Basis Set:
  @DF-RHF Final Energy:  -345.02398538347103
    Total Energy =                       -345.0239853834710289
  Basis Set: CC-PVTZ
  Basis Set:
  Basis Set: CC-PVTZ
  Basis Set:
  @DF-RHF Final Energy:  -345.02416924111816
    Total Energy =                       -345.0241692411181020
  Basis Set: CC-PVTZ
  Basis Set:
  Basis Set: CC-PVTZ
  Basis Set:
  @DF-RHF Final Energy:  -345.02492986738628
    Total Energy =                       -345.0249298673861631
  Basis Set: CC-PVTZ
  Basis Set:
  Basis Set: CC-PVTZ
  Basis Set:
  @DF-RHF Final Energy:  -345.02495473513704
    Total Energy =                       -345.0249547351369301
  Basis Set: CC-PVTZ
  Basis Set:
  Basis Set: CC-PVTZ
  Basis Set:
  @DF-RHF Final Energy:  -345.02495725604058
    Total Energy =                       -345.0249572560402953
  Basis Set: CC-PVTZ
  Basis Set:
  Charge       = 0
  Multiplicity = 1
  Basis Set: CC-PVTZ
  Basis Set:

    Orbital Energies (a.u.)
    -----------------------

    Doubly Occupied:

       1A    -20.576298     2A    -20.543117     3A    -11.366431
       4A    -11.290029     5A    -11.239482     6A    -11.221496
       7A    -11.216288     8A     -1.461434     9A     -1.367400
      10A     -1.067573    11A     -1.035273    12A     -0.907365
      13A     -0.858922    14A     -0.770819    15A     -0.702792
      16A     -0.685191    17A     -0.660415    18A     -0.635315
      19A     -0.602759    20A     -0.564056    21A     -0.557699
      22A     -0.529262    23A     -0.525067    24A     -0.520229
      25A     -0.505255    26A     -0.494648    27A     -0.452808
      28A     -0.436839

  @DF-RHF Final Energy:  -345.02495735381899

   => Energetics <=

    Nuclear Repulsion Energy =            314.8470716924350654
    One-Electron Energy =               -1094.1555312656357728
    Two-Electron Energy =                 434.2835022193813188
    DFT Exchange-Correlation Energy =       0.0000000000000000
    Empirical Dispersion Energy =           0.0000000000000000
    PCM Polarization Energy =               0.0000000000000000
    EFP Energy =                            0.0000000000000000
    Total Energy =                       -345.0249573538193886
    Molecular point group: c1
  Basis Set: CC-PVTZ
  Basis Set:

  -Total Gradient:
     Atom            X                  Y                   Z
    ------   -----------------  -----------------  -----------------
       1        0.000004397307    -0.000013612790     0.000018703901
       2        0.001196527871    -0.001674758488     0.006208500335
       3       -0.000038286233    -0.000343199088    -0.004855929669
       4       -0.003423395961     0.006617794176     0.000177239675
       5       -0.000006035572    -0.000006776868    -0.000001081430
       6       -0.000001302664     0.000001138642    -0.000001353985
       7       -0.000001661714     0.000008136457    -0.000004485286
       8       -0.000000959917     0.000000490048    -0.000001226620
       9       -0.000001770494    -0.000000342218    -0.000000262792
      10       -0.000003262963    -0.000000857415     0.000000707898
      11        0.002282456786    -0.004573077829    -0.001533745697
      12       -0.000006690284    -0.000005400474    -0.000011835115
      13       -0.000000380038    -0.000002334374     0.000018285078
      14       -0.000003235809    -0.000003903111    -0.000002521579
      15        0.000001092295     0.000000981640     0.000000407178
      16       -0.000008310685    -0.000005045685    -0.000004709674
      17        0.000010818072     0.000000767381    -0.000006692218

  **** Optimization is complete! (in 7 steps) ****
    Final optimized geometry and variables:
    Molecular point group: c1

    Geometry (in Angstrom), charge = 0, multiplicity = 1:

    O            0.491985426602     1.541067555656     0.152283802653
    C            0.394664134883     0.373643924495     0.275264976863
    C            1.551871180614    -0.588321494714     0.334251030525
    O           -0.798225449316    -0.245515851557     0.332427000452
    C            2.914427013945     0.084255012818     0.361750411593
    H            1.449541624992    -1.237863917894    -0.530506292247
    H            1.403965879366    -1.227832066799     1.197430453329
    H            3.061915969270     0.701220320264    -0.514325239206
    H            3.699300371206    -0.661611535015     0.392425499119
    H            3.014951240148     0.720422019609     1.231290631803
    C           -1.578805521848    -0.244545998713    -0.852655643095
    C           -2.890592143698    -0.931452739054    -0.555873379228
    H           -1.037736008749    -0.771626229033    -1.632488554778
    H           -1.736428259072     0.775825426006    -1.175643776241
    H           -2.724932563171    -1.949134883592    -0.225951763957
    H           -3.504716294524    -0.953570152315    -1.448560250836
    H           -3.427903937705    -0.401840133694     0.220028009566

  Mulliken Charges: (a.u.)
   Center  Symbol    Alpha    Beta     Spin     Total
       1     O     4.17613  4.17613  0.00000 -0.35225
       2     C     2.79890  2.79890  0.00000  0.40219
       3     C     3.10000  3.10000  0.00000 -0.20000
       4     O     4.17286  4.17286  0.00000 -0.34571
       5     C     3.13869  3.13869  0.00000 -0.27738
       6     H     0.44622  0.44622  0.00000  0.10756
       7     H     0.43901  0.43901  0.00000  0.12198
       8     H     0.44785  0.44785  0.00000  0.10430
       9     H     0.45066  0.45066  0.00000  0.09867
      10     H     0.44782  0.44782  0.00000  0.10435
      11     C     2.97601  2.97601  0.00000  0.04798
      12     C     3.13490  3.13490  0.00000 -0.26979
      13     H     0.46727  0.46727  0.00000  0.06545
      14     H     0.44899  0.44899  0.00000  0.10203
      15     H     0.45113  0.45113  0.00000  0.09775
      16     H     0.45648  0.45648  0.00000  0.08703
      17     H     0.44708  0.44708  0.00000  0.10584

   Total alpha = 28.00000, Total beta = 28.00000, Total charge =  0.00000

*** Psi4 exiting successfully. Buy a developer a beer!
