  ==> Input File <==

--------------------------------------------------------------------------
set {
	reference rhf
	basis cc-pvtz
}

set_num_threads( 4 )
memory 2 gb

molecule MOL {
0 1

H	 -1.778178	 -0.363296	 -1.050193
O	 -1.432053	 -0.565244	 -0.200812
C	 -0.727158	 0.534527	 0.310686
C	 0.680222	 0.664433	 -0.252229
H	 -1.306802	 1.408001	 0.044211
H	 -0.690821	 0.490158	 1.397609
C	 1.605391	 -0.489360	 0.123098
H	 0.615089	 0.745647	 -1.332226
H	 1.101414	 1.597893	 0.110950
H	 1.247627	 -1.432485	 -0.275204
H	 2.601435	 -0.332816	 -0.273062
H	 1.691776	 -0.589902	 1.200774

	symmetry c1
}
set optking {
	frozen_dihedral = ("
		1 2 3 4
	")
}

ee = optimize('scf')
oeprop('DIPOLE', 'QUADRUPOLE', 'MULLIKEN_CHARGES')
f=open( 'psi4out.xyz', 'w' )
f.write( "12  " )
f.write( str(ee) + "\n" )
f.write( MOL.save_string_xyz() )
f.close()
--------------------------------------------------------------------------

    Molecular point group: c1
  Charge       = 0
  Multiplicity = 1
  Basis Set: CC-PVTZ
  Basis Set:
  @DF-RHF Final Energy:  -193.18899828054069
    Total Energy =                       -193.1889982805407726
    Molecular point group: c1
  Basis Set: CC-PVTZ
  Basis Set:
  Basis Set: CC-PVTZ
  Basis Set:
  @DF-RHF Final Energy:  -193.19036705183336
    Total Energy =                       -193.1903670518333058
  Basis Set: CC-PVTZ
  Basis Set:
  Basis Set: CC-PVTZ
  Basis Set:
  @DF-RHF Final Energy:  -193.19073049170564
    Total Energy =                       -193.1907304917056649
  Basis Set: CC-PVTZ
  Basis Set:
  Basis Set: CC-PVTZ
  Basis Set:
  @DF-RHF Final Energy:  -193.19073419426755
    Total Energy =                       -193.1907341942675203
  Basis Set: CC-PVTZ
  Basis Set:
  Basis Set: CC-PVTZ
  Basis Set:
  @DF-RHF Final Energy:  -193.19073522949461
    Total Energy =                       -193.1907352294946350
  Basis Set: CC-PVTZ
  Basis Set:
  Charge       = 0
  Multiplicity = 1
  Basis Set: CC-PVTZ
  Basis Set:

    Orbital Energies (a.u.)
    -----------------------

    Doubly Occupied:

       1A    -20.546737     2A    -11.266331     3A    -11.216057
       4A    -11.204253     5A     -1.364546     6A     -1.048946
       7A     -0.921244     8A     -0.812066     9A     -0.689171
      10A     -0.639365    11A     -0.618607    12A     -0.567070
      13A     -0.527814    14A     -0.523026    15A     -0.483433
      16A     -0.467855    17A     -0.432553

  @DF-RHF Final Energy:  -193.19073535072872

   => Energetics <=

    Nuclear Repulsion Energy =            133.1534181374045431
    One-Electron Energy =                -526.0301645528845711
    Two-Electron Energy =                 199.6860110647513693
    DFT Exchange-Correlation Energy =       0.0000000000000000
    Empirical Dispersion Energy =           0.0000000000000000
    PCM Polarization Energy =               0.0000000000000000
    EFP Energy =                            0.0000000000000000
    Total Energy =                       -193.1907353507286871
    Molecular point group: c1
  Basis Set: CC-PVTZ
  Basis Set:

  -Total Gradient:
     Atom            X                  Y                   Z
    ------   -----------------  -----------------  -----------------
       1       -0.000927830931     0.000365560303     0.000434781767
       2        0.001233602933    -0.000612261983    -0.000313598725
       3       -0.000557276180     0.000590859324    -0.000665460873
       4        0.000235807431    -0.000360298687     0.000547929804
       5        0.000006385808     0.000000062108    -0.000000728908
       6        0.000007164233     0.000007052915     0.000002818072
       7       -0.000000171490     0.000007047372    -0.000007454206
       8       -0.000001122439    -0.000002626840     0.000003696093
       9        0.000010166785     0.000006732006    -0.000001824382
      10       -0.000002553732    -0.000002983705    -0.000002688463
      11       -0.000004736718    -0.000001440867     0.000001273435
      12        0.000000564296     0.000002298052     0.000001256387

  **** Optimization is complete! (in 6 steps) ****
    Final optimized geometry and variables:
    Molecular point group: c1

    Geometry (in Angstrom), charge = 0, multiplicity = 1:

    H           -1.726399719600    -0.438197736392    -1.030238432883
    O           -1.394034311521    -0.603149424900    -0.167270477409
    C           -0.722957784881     0.532204508511     0.314527462011
    C            0.690562370848     0.663225056369    -0.232243686370
    H           -1.291579074050     1.431670827865     0.094807029421
    H           -0.691475927645     0.427880486970     1.392259246146
    C            1.594734063359    -0.506228151174     0.140708763205
    H            0.643972304685     0.761256466540    -1.314401304062
    H            1.113313774279     1.591860549971     0.142105198852
    H            1.187311451996    -1.441302935891    -0.220517053410
    H            2.584918956068    -0.381949093146    -0.282128513070
    H            1.701775740428    -0.585002659557     1.217683732892

  Mulliken Charges: (a.u.)
   Center  Symbol    Alpha    Beta     Spin     Total
       1     H     0.39428  0.39428  0.00000  0.21143
       2     O     4.20394  4.20394  0.00000 -0.40787
       3     C     2.97651  2.97651  0.00000  0.04697
       4     C     3.08502  3.08502  0.00000 -0.17004
       5     H     0.46178  0.46178  0.00000  0.07644
       6     H     0.46022  0.46022  0.00000  0.07956
       7     C     3.14681  3.14681  0.00000 -0.29361
       8     H     0.46059  0.46059  0.00000  0.07883
       9     H     0.45614  0.45614  0.00000  0.08772
      10     H     0.44725  0.44725  0.00000  0.10551
      11     H     0.45080  0.45080  0.00000  0.09840
      12     H     0.45667  0.45667  0.00000  0.08667

   Total alpha = 17.00000, Total beta = 17.00000, Total charge = -0.00000
