  ==> Input File <==

--------------------------------------------------------------------------
set {
	reference rhf
	basis 6-31G*
}

set_num_threads( 1 )
memory 2 gb

molecule MOL {
0 1

O	 1.214711	 1.306902	 -0.000018
C	 1.122059	 0.121804	 -0.000188
C	 -0.170150	 -0.657997	 -0.000612
O	 2.172624	 -0.688929	 0.000216
C	 -1.412532	 0.227344	 -0.000452
H	 -0.153702	 -1.313099	 -0.867402
H	 -0.153924	 -1.313811	 0.865644
C	 -2.121835	 0.233558	 1.354619
H	 -2.095804	 -0.113799	 -0.771986
H	 -1.131150	 1.239737	 -0.273195
C	 -3.367063	 1.119177	 1.364025
H	 -2.400868	 -0.783270	 1.623463
H	 -1.432008	 0.573664	 2.124384
H	 -4.091700	 0.783551	 0.627878
H	 -3.851002	 1.105679	 2.335568
H	 -3.115834	 2.150268	 1.132994
C	 3.452279	 -0.082609	 0.000533
H	 3.583069	 0.529321	 -0.880332
H	 4.163299	 -0.894027	 0.001117
H	 3.582335	 0.529955	 0.881077

	symmetry c1
}
set optking {
	frozen_dihedral = ("
		9 5 8 12,
		1 2 3 6,
		1 2 4 17
	")
}

ee = energy('scf')
oeprop('DIPOLE', 'QUADRUPOLE', 'MULLIKEN_CHARGES')
f=open( 'psi4out.xyz', 'w' )
f.write( "20  " )
f.write( str(ee) + "\n" )
f.write( MOL.save_string_xyz() )
f.close()
--------------------------------------------------------------------------

    Molecular point group: c1

    Geometry (in Angstrom), charge = 0, multiplicity = 1:

       Center              X                  Y                   Z               Mass
    ------------   -----------------  -----------------  -----------------  -----------------
           O          1.067744627933     1.100728099470    -0.340037063458    15.994914619560
           C          0.975092627933    -0.084369900530    -0.340207063458    12.000000000000
           C         -0.317116372067    -0.864170900530    -0.340631063458    12.000000000000
           O          2.025657627933    -0.895102900530    -0.339803063458    15.994914619560
           C         -1.559498372067     0.021170099470    -0.340471063458    12.000000000000
           H         -0.300668372067    -1.519272900530    -1.207421063458     1.007825032070
           H         -0.300890372067    -1.519984900530     0.525624936542     1.007825032070
           C         -2.268801372067     0.027384099470     1.014599936542    12.000000000000
           H         -2.242770372067    -0.319972900530    -1.112005063458     1.007825032070
           H         -1.278116372067     1.033563099470    -0.613214063458     1.007825032070
           C         -3.514029372067     0.913003099470     1.024005936542    12.000000000000
           H         -2.547834372067    -0.989443900530     1.283443936542     1.007825032070
           H         -1.578974372067     0.367490099470     1.784364936542     1.007825032070
           H         -4.238666372067     0.577377099470     0.287858936542     1.007825032070
           H         -3.997968372067     0.899505099470     1.995548936542     1.007825032070
           H         -3.262800372067     1.944094099470     0.792974936542     1.007825032070
           C          3.305312627933    -0.288782900530    -0.339486063458    12.000000000000
           H          3.436102627933     0.323147099470    -1.220351063458     1.007825032070
           H          4.016332627933    -1.100200900530    -0.338902063458     1.007825032070
           H          3.435368627933     0.323781099470     0.541057936542     1.007825032070

  Charge       = 0
  Multiplicity = 1
  Basis Set: 6-31G*
  Basis Set:

    Orbital Energies (a.u.)
    -----------------------

    Doubly Occupied:

       1A    -20.604515     2A    -20.546606     3A    -11.373124
       4A    -11.281360     5A    -11.234309     6A    -11.217532
       7A    -11.215656     8A    -11.207881     9A     -1.470261
      10A     -1.364072    11A     -1.087384    12A     -1.022660
      13A     -0.968818    14A     -0.884067    15A     -0.805065
      16A     -0.766692    17A     -0.703867    18A     -0.680947
      19A     -0.673154    20A     -0.631305    21A     -0.606531
      22A     -0.589791    23A     -0.578668    24A     -0.545714
      25A     -0.529065    26A     -0.516008    27A     -0.510046
      28A     -0.478093    29A     -0.467479    30A     -0.460931
      31A     -0.457284    32A     -0.440395

  @DF-RHF Final Energy:  -383.93748305048996

   => Energetics <=

    Nuclear Repulsion Energy =            385.1647094318723248
    One-Electron Energy =               -1286.3659539446623512
    Two-Electron Energy =                 517.2637614623008631
    DFT Exchange-Correlation Energy =       0.0000000000000000
    Empirical Dispersion Energy =           0.0000000000000000
    PCM Polarization Energy =               0.0000000000000000
    EFP Energy =                            0.0000000000000000
    Total Energy =                       -383.9374830504891634

  Mulliken Charges: (a.u.)
   Center  Symbol    Alpha    Beta     Spin     Total
       1     O     4.28503  4.28503  0.00000 -0.57006
       2     C     2.61010  2.61010  0.00000  0.77980
       3     C     3.21078  3.21078  0.00000 -0.42157
       4     O     4.30597  4.30597  0.00000 -0.61193
       5     C     3.16088  3.16088  0.00000 -0.32176
       6     H     0.39730  0.39730  0.00000  0.20539
       7     H     0.39809  0.39809  0.00000  0.20382
       8     C     3.15534  3.15534  0.00000 -0.31068
       9     H     0.41977  0.41977  0.00000  0.16045
      10     H     0.39505  0.39505  0.00000  0.20989
      11     C     3.24053  3.24053  0.00000 -0.48107
      12     H     0.42396  0.42396  0.00000  0.15208
      13     H     0.41907  0.41907  0.00000  0.16187
      14     H     0.42211  0.42211  0.00000  0.15578
      15     H     0.41920  0.41920  0.00000  0.16160
      16     H     0.41812  0.41812  0.00000  0.16377
      17     C     3.09231  3.09231  0.00000 -0.18462
      18     H     0.40899  0.40899  0.00000  0.18203
      19     H     0.40836  0.40836  0.00000  0.18328
      20     H     0.40903  0.40903  0.00000  0.18193

   Total alpha = 32.00000, Total beta = 32.00000, Total charge =  0.00000
