  ==> Input File <==

--------------------------------------------------------------------------
set {
	reference rhf
	basis 6-31G*
}

set_num_threads( 4 )
memory 2 gb

molecule MOL {
0 1

H	 -0.098128	 -0.334348	 2.436879
O	 0.627761	 -0.294923	 1.829110
C	 0.418758	 0.761020	 0.937334
C	 -0.793441	 0.596080	 0.058728
H	 1.309447	 0.817949	 0.322001
H	 0.347587	 1.708893	 1.469779
C	 -1.530462	 -0.493172	 -0.025500
H	 -1.044685	 1.460066	 -0.536996
H	 -1.092586	 -1.461565	 -0.186463
H	 -2.602122	 -0.450675	 0.050101

	symmetry c1
}
set optking {
	frozen_dihedral = ("
		3 4 7 9
	")
}

ee = optimize('scf')
oeprop('DIPOLE', 'QUADRUPOLE', 'MULLIKEN_CHARGES')
f=open( 'psi4out.xyz', 'w' )
f.write( "10  " )
f.write( str(ee) + "\n" )
f.write( MOL.save_string_xyz() )
f.close()
--------------------------------------------------------------------------

    Molecular point group: c1
  Charge       = 0
  Multiplicity = 1
  Basis Set: 6-31G*
  Basis Set:
  @DF-RHF Final Energy:  -191.86026376625296
    Total Energy =                       -191.8602637662529560
    Molecular point group: c1
  Basis Set: 6-31G*
  Basis Set:
  Basis Set: 6-31G*
  Basis Set:
  @DF-RHF Final Energy:  -191.88155153741843
    Total Energy =                       -191.8815515374183747
  Basis Set: 6-31G*
  Basis Set:
  Basis Set: 6-31G*
  Basis Set:
  @DF-RHF Final Energy:  -191.89368890588275
    Total Energy =                       -191.8936889058827262
  Basis Set: 6-31G*
  Basis Set:
  Basis Set: 6-31G*
  Basis Set:
  @DF-RHF Final Energy:  -191.89728745317083
    Total Energy =                       -191.8972874531708896
  Basis Set: 6-31G*
  Basis Set:
  @DF-RHF Final Energy:  -191.89750932044393
    Total Energy =                       -191.8975093204439020
  @DF-RHF Final Energy:  -191.89752746018240
    Total Energy =                       -191.8975274601823457
  @DF-RHF Final Energy:  -191.89753785763725
    Total Energy =                       -191.8975378576373032
  @DF-RHF Final Energy:  -191.89753237899930
    Total Energy =                       -191.8975323789993013
  @DF-RHF Final Energy:  -191.88983463530997
    Total Energy =                       -191.8898346353099669
  @DF-RHF Final Energy:  -191.85189878543255
    Total Energy =                       -191.8518987854326383
  @DF-RHF Final Energy:  -191.85813820582689
    Total Energy =                       -191.8581382058268900
  @DF-RHF Final Energy:  -191.88964862378711
    Total Energy =                       -191.8896486237871386
  @DF-RHF Final Energy:  -191.89670738859394
    Total Energy =                       -191.8967073885939385
  @DF-RHF Final Energy:  -191.89735522707113
    Total Energy =                       -191.8973552270711593
  @DF-RHF Final Energy:  -191.89746989423881
    Total Energy =                       -191.8974698942388386
  @DF-RHF Final Energy:  -191.89748387789666
    Total Energy =                       -191.8974838778967182
  @DF-RHF Final Energy:  -191.89750720665171
    Total Energy =                       -191.8975072066517669
  @DF-RHF Final Energy:  -191.89751467211224
    Total Energy =                       -191.8975146721121803
  @DF-RHF Final Energy:  -191.89752076969603
    Total Energy =                       -191.8975207696960297
  @DF-RHF Final Energy:  -191.89752640558197
    Total Energy =                       -191.8975264055819707
  @DF-RHF Final Energy:  -191.89753114294274
    Total Energy =                       -191.8975311429427677
  @DF-RHF Final Energy:  -191.89753144843854
    Total Energy =                       -191.8975314484385990
  @DF-RHF Final Energy:  -191.89753128596726
    Total Energy =                       -191.8975312859672613
  @DF-RHF Final Energy:  -191.89753106310343
    Total Energy =                       -191.8975310631034290
  @DF-RHF Final Energy:  -191.89752940283276
    Total Energy =                       -191.8975294028327880
  @DF-RHF Final Energy:  -191.89752860487576
    Total Energy =                       -191.8975286048757312
  @DF-RHF Final Energy:  -191.89752955498290
    Total Energy =                       -191.8975295549829525
  @DF-RHF Final Energy:  -191.89752973879362
    Total Energy =                       -191.8975297387935655
  @DF-RHF Final Energy:  -191.89752512407705
    Total Energy =                       -191.8975251240770774
  @DF-RHF Final Energy:  -191.89752977938369
    Total Energy =                       -191.8975297793836035
  @DF-RHF Final Energy:  -191.89752870941726
    Total Energy =                       -191.8975287094172586
  @DF-RHF Final Energy:  -191.89752973378660
    Total Energy =                       -191.8975297337866266
  @DF-RHF Final Energy:  -191.89752959009638
    Total Energy =                       -191.8975295900963829
  @DF-RHF Final Energy:  -191.89752815897245
    Total Energy =                       -191.8975281589725057
  @DF-RHF Final Energy:  -191.89752973694519
    Total Energy =                       -191.8975297369452448
  @DF-RHF Final Energy:  -191.89753002709676
    Total Energy =                       -191.8975300270967352
  Basis Set: 6-31G*
  Basis Set:
  @DF-RHF Final Energy:  -191.89753019677215
    Total Energy =                       -191.8975301967721236
  Basis Set: 6-31G*
  Basis Set:
  Basis Set: 6-31G*
  Basis Set:
  @DF-RHF Final Energy:  -191.89753015631334
    Total Energy =                       -191.8975301563133655
  Basis Set: 6-31G*
  Basis Set:
  Basis Set: 6-31G*
  Basis Set:
  @DF-RHF Final Energy:  -191.89753007343003
    Total Energy =                       -191.8975300734299481
  Basis Set: 6-31G*
  Basis Set:
  Charge       = 0
  Multiplicity = 1
  Basis Set: 6-31G*
  Basis Set:

    Orbital Energies (a.u.)
    -----------------------

    Doubly Occupied:

       1A    -20.559372     2A    -11.281444     3A    -11.240704
       4A    -11.223371     5A     -1.368906     6A     -1.061398
       7A     -0.932664     8A     -0.771969     9A     -0.686453
      10A     -0.658116    11A     -0.621415    12A     -0.567736
      13A     -0.535761    14A     -0.498310    15A     -0.445133
      16A     -0.362377

  @DF-RHF Final Energy:  -191.89752997495140

   => Energetics <=

    Nuclear Repulsion Energy =            118.9564481486242329
    One-Electron Energy =                -496.0776977142645592
    Two-Electron Energy =                 185.2237195906888871
    DFT Exchange-Correlation Energy =       0.0000000000000000
    Empirical Dispersion Energy =           0.0000000000000000
    PCM Polarization Energy =               0.0000000000000000
    EFP Energy =                            0.0000000000000000
    Total Energy =                       -191.8975299749514249
    Molecular point group: c1
  Basis Set: 6-31G*
  Basis Set:

  -Total Gradient:
     Atom            X                  Y                   Z
    ------   -----------------  -----------------  -----------------
       1       -0.000123820770    -0.000098638388     0.000134675879
       2        0.000499493925     0.000024616181     0.000223867462
       3       -0.012092803209     0.012222627360     0.010507418399
       4        0.019587291629    -0.021027809691    -0.029888296446
       5        0.000003253206    -0.000061195354    -0.000116485218
       6        0.000119463790    -0.000494930475    -0.000018536538
       7       -0.008817853728     0.013401502539     0.045967362768
       8        0.000136417966    -0.000033880728    -0.000098135296
       9        0.000242004770    -0.003640870182    -0.026579040043
      10        0.000446552416    -0.000291421263    -0.000132830964

    Molecular point group: c1

    Geometry (in Angstrom), charge = 0, multiplicity = 1:

    H            0.267281908703    -0.673987234834     1.492110913390
    O            1.024453684711    -0.415775341137     0.983127565744
    C            0.674587905490     0.659118699601     0.164588265305
    C           -0.487492281931     0.391670785021    -0.756106594116
    H            1.570027201010     0.924831513861    -0.385804806200
    H            0.399371808963     1.530257827093     0.756485850350
    C           -1.384196224714    -0.579170140567    -0.630772416387
    H           -0.806951566726     1.290358597201    -1.265996469071
    H           -1.123249894178    -1.613598135654    -0.475719816835
    H           -2.311631086748    -0.474696916678    -1.170417073347

  Mulliken Charges: (a.u.)
   Center  Symbol    Alpha    Beta     Spin     Total
       1     H     0.27928  0.27928  0.00000  0.44145
       2     O     4.36629  4.36629  0.00000 -0.73258
       3     C     3.00440  3.00440  0.00000 -0.00879
       4     C     3.07520  3.07520  0.00000 -0.15040
       5     H     0.41055  0.41055  0.00000  0.17890
       6     H     0.42067  0.42067  0.00000  0.15866
       7     C     3.20991  3.20991  0.00000 -0.41981
       8     H     0.41436  0.41436  0.00000  0.17128
       9     H     0.40454  0.40454  0.00000  0.19093
      10     H     0.41481  0.41481  0.00000  0.17037

   Total alpha = 16.00000, Total beta = 16.00000, Total charge = -0.00000
