  ==> Input File <==

--------------------------------------------------------------------------
set {
	reference rhf
	basis 6-31G*
}

set_num_threads( 4 )
memory 2 gb

molecule MOL {
0 1

H	 3.367596	 -1.037032	 0.895900
O	 2.826016	 -1.159218	 0.122261
C	 2.077727	 -0.067559	 -0.035091
C	 0.624473	 -0.343591	 0.253101
O	 2.542965	 0.974826	 -0.363729
C	 -0.265902	 0.883932	 0.072916
H	 0.324016	 -1.163849	 -0.390541
H	 0.565024	 -0.726111	 1.268924
C	 -1.728698	 0.646073	 0.462102
H	 -0.209144	 1.219470	 -0.958188
H	 0.135059	 1.692851	 0.673903
C	 -2.482460	 -0.343073	 -0.431425
H	 -2.245265	 1.602650	 0.432430
H	 -1.779332	 0.308348	 1.496285
C	 -3.960546	 -0.461025	 -0.060175
H	 -2.395034	 -0.026811	 -1.468912
H	 -2.024850	 -1.327147	 -0.371646
H	 -4.472726	 -1.168004	 -0.705284
H	 -4.465146	 0.496508	 -0.151489
H	 -4.081218	 -0.800940	 0.964585

	symmetry c1
}
set optking {
	frozen_dihedral = ("
		1 2 3 5
	")
}

ee = optimize('scf')
oeprop('DIPOLE', 'QUADRUPOLE', 'MULLIKEN_CHARGES')
f=open( 'psi4out.xyz', 'w' )
f.write( "20  " )
f.write( str(ee) + "\n" )
f.write( MOL.save_string_xyz() )
f.close()
--------------------------------------------------------------------------

    Molecular point group: c1
  Charge       = 0
  Multiplicity = 1
  Basis Set: 6-31G*
  Basis Set:
  @DF-RHF Final Energy:  -383.92916145435782
    Total Energy =                       -383.9291614543576543
    Molecular point group: c1
  Basis Set: 6-31G*
  Basis Set:
  Basis Set: 6-31G*
  Basis Set:
  @DF-RHF Final Energy:  -383.92782075423088
    Total Energy =                       -383.9278207542308223
  Basis Set: 6-31G*
  Basis Set:
  Basis Set: 6-31G*
  Basis Set:
  @DF-RHF Final Energy:  -383.93035567987158
    Total Energy =                       -383.9303556798718660
  Basis Set: 6-31G*
  Basis Set:
  Basis Set: 6-31G*
  Basis Set:
  @DF-RHF Final Energy:  -383.93076720830112
    Total Energy =                       -383.9307672083012903
  Basis Set: 6-31G*
  Basis Set:
  Basis Set: 6-31G*
  Basis Set:
  @DF-RHF Final Energy:  -383.93077141055079
    Total Energy =                       -383.9307714105509035
  Basis Set: 6-31G*
  Basis Set:
  Charge       = 0
  Multiplicity = 1
  Basis Set: 6-31G*
  Basis Set:

    Orbital Energies (a.u.)
    -----------------------

    Doubly Occupied:

       1A    -20.596158     2A    -20.560703     3A    -11.381290
       4A    -11.240505     5A    -11.223217     6A    -11.221188
       7A    -11.220463     8A    -11.212717     9A     -1.461255
      10A     -1.366609    11A     -1.096008    12A     -1.039934
      13A     -0.959041    14A     -0.865959    15A     -0.815111
      16A     -0.780205    17A     -0.707652    18A     -0.679516
      19A     -0.657482    20A     -0.639093    21A     -0.611349
      22A     -0.586201    23A     -0.563948    24A     -0.555196
      25A     -0.525128    26A     -0.515224    27A     -0.494857
      28A     -0.493048    29A     -0.470111    30A     -0.464870
      31A     -0.457993    32A     -0.442900

  @DF-RHF Final Energy:  -383.93077107412398

   => Energetics <=

    Nuclear Repulsion Energy =            375.1644825340678153
    One-Electron Energy =               -1266.3806485785753466
    Two-Electron Energy =                 507.2853949703832086
    DFT Exchange-Correlation Energy =       0.0000000000000000
    Empirical Dispersion Energy =           0.0000000000000000
    PCM Polarization Energy =               0.0000000000000000
    EFP Energy =                            0.0000000000000000
    Total Energy =                       -383.9307710741243227
    Molecular point group: c1
  Basis Set: 6-31G*
  Basis Set:

  -Total Gradient:
     Atom            X                  Y                   Z
    ------   -----------------  -----------------  -----------------
       1       -0.005975413252    -0.003576732826     0.005484397799
       2        0.006617192047     0.003747654644    -0.010283266390
       3        0.001107658358     0.001650680847     0.012184409951
       4        0.000060221256     0.000025682753     0.000050475626
       5       -0.001783600577    -0.001843396628    -0.007384715140
       6       -0.000039320131    -0.000016315589    -0.000048124460
       7        0.000041162274     0.000028046078    -0.000004232655
       8        0.000006745348    -0.000006715028    -0.000012079403
       9        0.000011414878    -0.000023810366     0.000027126716
      10        0.000001309092    -0.000025593726    -0.000006135615
      11       -0.000017086965     0.000019062448    -0.000004073658
      12       -0.000014202344     0.000011284014    -0.000007791565
      13        0.000008499385     0.000006107762     0.000018276981
      14        0.000014323105    -0.000022847814     0.000001638732
      15       -0.000001409781     0.000015978833    -0.000007674849
      16        0.000003949659    -0.000007044314    -0.000016983722
      17       -0.000041656674     0.000017478033     0.000009341196
      18        0.000000792847     0.000001379868    -0.000001152367
      19       -0.000004204280    -0.000001075557     0.000001805496
      20        0.000003625752     0.000000176562    -0.000001242673

  **** Optimization is complete! (in 6 steps) ****
    Final optimized geometry and variables:
    Molecular point group: c1

    Geometry (in Angstrom), charge = 0, multiplicity = 1:

    H            3.463288037528    -1.119166372671     0.798630953794
    O            2.842992365602    -1.179359865840     0.081924912408
    C            2.084627878417    -0.055093962626    -0.010307181564
    C            0.628438384903    -0.324986253281     0.270946653807
    O            2.535340059601     0.977195839788    -0.365738673007
    C           -0.269512272772     0.892962449677     0.068774921352
    H            0.340508112183    -1.157267776560    -0.363582210801
    H            0.559997183097    -0.699612907083     1.290367860244
    C           -1.734080666699     0.651549371265     0.449483690685
    H           -0.206295452438     1.214811009241    -0.966318407523
    H            0.120769842595     1.713417297944     0.661709092902
    C           -2.477419499962    -0.346218660024    -0.443177367512
    H           -2.254579513441     1.605654189030     0.410411013909
    H           -1.790694981457     0.319974521182     1.485483098582
    C           -3.957994273121    -0.466590601012    -0.082807329805
    H           -2.382769320082    -0.036714974161    -1.481992740279
    H           -2.016960753781    -1.328264279626    -0.373247013049
    H           -4.462612338439    -1.179688472928    -0.727099937789
    H           -4.465094362344     0.488555940031    -0.184721024403
    H           -4.085803018995    -0.799915385483     0.943293283329

  Mulliken Charges: (a.u.)
   Center  Symbol    Alpha    Beta     Spin     Total
       1     H     0.26586  0.26586  0.00000  0.46828
       2     O     4.36817  4.36817  0.00000 -0.73633
       3     C     2.62968  2.62968  0.00000  0.74065
       4     C     3.21171  3.21171  0.00000 -0.42341
       5     O     4.25087  4.25087  0.00000 -0.50174
       6     C     3.15469  3.15469  0.00000 -0.30939
       7     H     0.39518  0.39518  0.00000  0.20964
       8     H     0.40694  0.40694  0.00000  0.18612
       9     C     3.15535  3.15535  0.00000 -0.31070
      10     H     0.41127  0.41127  0.00000  0.17746
      11     H     0.40983  0.40983  0.00000  0.18033
      12     C     3.15476  3.15476  0.00000 -0.30952
      13     H     0.41786  0.41786  0.00000  0.16429
      14     H     0.42455  0.42455  0.00000  0.15091
      15     C     3.23926  3.23926  0.00000 -0.47852
      16     H     0.42094  0.42094  0.00000  0.15813
      17     H     0.42269  0.42269  0.00000  0.15463
      18     H     0.41813  0.41813  0.00000  0.16373
      19     H     0.42061  0.42061  0.00000  0.15877
      20     H     0.42166  0.42166  0.00000  0.15668

   Total alpha = 32.00000, Total beta = 32.00000, Total charge = -0.00000
