  ==> Input File <==

--------------------------------------------------------------------------
set {
	reference rhf
	basis 6-31G*
}

set_num_threads( 4 )
memory 2 gb

molecule MOL {
0 1

O	 2.862325	 1.357334	 0.000267
C	 2.843464	 0.164689	 -0.000222
C	 1.546494	 -0.624492	 -0.000609
C	 4.124123	 -0.644674	 -0.000428
C	 0.291004	 0.242674	 0.000989
H	 1.557904	 -1.283758	 -0.867573
H	 1.558622	 -1.285963	 0.864672
C	 -0.994322	 -0.586602	 0.000262
H	 0.309117	 0.896430	 -0.865270
H	 0.309661	 0.894078	 0.869017
C	 -2.259874	 0.272531	 0.000494
H	 -1.004862	 -1.240012	 -0.870939
H	 -1.005220	 -1.241071	 0.870675
C	 -3.084324	 0.136252	 -1.280804
H	 -1.985582	 1.316483	 0.141728
H	 -2.877426	 0.002518	 0.855315
C	 -4.346743	 0.997602	 -1.273141
H	 -2.468426	 0.407042	 -2.135887
H	 -3.360390	 -0.906644	 -1.422270
H	 -4.102058	 2.050711	 -1.167116
H	 -4.909314	 0.880018	 -2.194221
H	 -5.000898	 0.726953	 -0.449142
H	 4.165367	 -1.288615	 -0.874074
H	 4.976217	 0.020734	 -0.001915
H	 4.166763	 -1.286207	 0.874930

	symmetry c1
}
set optking {
	frozen_dihedral = ("
		15 11 8 12
	")
}

ee = optimize('scf')
oeprop('DIPOLE', 'QUADRUPOLE', 'MULLIKEN_CHARGES')
f=open( 'psi4out.xyz', 'w' )
f.write( "25  " )
f.write( str(ee) + "\n" )
f.write( MOL.save_string_xyz() )
f.close()
--------------------------------------------------------------------------

    Molecular point group: c1
  Charge       = 0
  Multiplicity = 1
  Basis Set: 6-31G*
  Basis Set:
  @DF-RHF Final Energy:  -387.13101301239828
    Total Energy =                       -387.1310130123981708
    Molecular point group: c1
  Basis Set: 6-31G*
  Basis Set:
  Basis Set: 6-31G*
  Basis Set:
  @DF-RHF Final Energy:  -387.13124250250468
    Total Energy =                       -387.1312425025046196
  Basis Set: 6-31G*
  Basis Set:
  Basis Set: 6-31G*
  Basis Set:
  @DF-RHF Final Energy:  -387.13132356261855
    Total Energy =                       -387.1313235626189453
  Basis Set: 6-31G*
  Basis Set:
  Basis Set: 6-31G*
  Basis Set:
  @DF-RHF Final Energy:  -387.13126763815319
    Total Energy =                       -387.1312676381528490
  Basis Set: 6-31G*
  Basis Set:
  Basis Set: 6-31G*
  Basis Set:
  @DF-RHF Final Energy:  -387.13132533818481
    Total Energy =                       -387.1313253381852064
  Basis Set: 6-31G*
  Basis Set:
  Basis Set: 6-31G*
  Basis Set:
  @DF-RHF Final Energy:  -387.13133119694737
    Total Energy =                       -387.1313311969470305
  Basis Set: 6-31G*
  Basis Set:
  Charge       = 0
  Multiplicity = 1
  Basis Set: 6-31G*
  Basis Set:

    Orbital Energies (a.u.)
    -----------------------

    Doubly Occupied:

       1A    -20.550488     2A    -11.326366     3A    -11.231675
       4A    -11.228353     5A    -11.217220     6A    -11.216411
       7A    -11.215318     8A    -11.213195     9A    -11.207707
      10A     -1.395797    11A     -1.092199    12A     -1.055474
      13A     -1.013932    14A     -0.967791    15A     -0.890483
      16A     -0.818163    17A     -0.788382    18A     -0.730444
      19A     -0.653693    20A     -0.651899    21A     -0.634959
      22A     -0.619889    23A     -0.602038    24A     -0.581135
      25A     -0.564606    26A     -0.564078    27A     -0.541266
      28A     -0.528282    29A     -0.507308    30A     -0.489925
      31A     -0.485442    32A     -0.480376    33A     -0.464335
      34A     -0.454650    35A     -0.448287    36A     -0.399506

  @DF-RHF Final Energy:  -387.13133113809727

   => Energetics <=

    Nuclear Repulsion Energy =            440.7707494415338942
    One-Electron Energy =               -1398.1420202865942883
    Two-Electron Energy =                 570.2399397069636962
    DFT Exchange-Correlation Energy =       0.0000000000000000
    Empirical Dispersion Energy =           0.0000000000000000
    PCM Polarization Energy =               0.0000000000000000
    EFP Energy =                            0.0000000000000000
    Total Energy =                       -387.1313311380966979
    Molecular point group: c1
  Basis Set: 6-31G*
  Basis Set:

  -Total Gradient:
     Atom            X                  Y                   Z
    ------   -----------------  -----------------  -----------------
       1        0.000000492028     0.000002929478    -0.000001519330
       2       -0.000004727875     0.000004498618     0.000007142754
       3        0.000000325909     0.000002974869     0.000008718010
       4       -0.000004396323    -0.000002812173     0.000005385909
       5        0.000009931999    -0.000002799957    -0.000023601708
       6       -0.000005495309     0.000002829567     0.000000803708
       7       -0.000000114949    -0.000003527780     0.000003740552
       8       -0.000703586186    -0.001074518816     0.000533210269
       9        0.000010350895    -0.000003472555    -0.000006359791
      10       -0.000000917350     0.000005965825    -0.000002078938
      11       -0.000020099397     0.000030096813     0.001425348684
      12        0.000606981059     0.000899546014    -0.000675281323
      13        0.000001310278    -0.000009081217    -0.000008493327
      14        0.000000398447     0.000003404465    -0.000005464073
      15        0.000101593250     0.000141542029    -0.001259624000
      16       -0.000001916624     0.000003589956     0.000003742598
      17        0.000010576587     0.000001841942     0.000002306359
      18        0.000001224508    -0.000004922562    -0.000007723377
      19       -0.000009105824     0.000003617446     0.000003352888
      20        0.000000639968     0.000003691123    -0.000002027094
      21        0.000007040600    -0.000003961949     0.000001433151
      22        0.000002326266    -0.000001730154     0.000002123427
      23        0.000000087662     0.000000963586    -0.000002705118
      24       -0.000003479632     0.000001418987    -0.000000818315
      25        0.000000560022    -0.000002083558    -0.000001611916

  **** Optimization is complete! (in 7 steps) ****
    Final optimized geometry and variables:
    Molecular point group: c1

    Geometry (in Angstrom), charge = 0, multiplicity = 1:

    O            2.748789135423     1.207464857366     0.286239385191
    C            2.736106306564     0.014748143206     0.280169956321
    C            1.443242147063    -0.781183894932     0.288331755347
    C            4.020849555717    -0.787884089032     0.263427276310
    C            0.183783218534     0.079121885131     0.310489025295
    H            1.448487838928    -1.434005331547    -0.583643999010
    H            1.468064611373    -1.449163819697     1.148428377697
    C           -1.099235000592    -0.756421567046     0.321343178693
    H            0.186211187335     0.737834457689    -0.552688348851
    H            0.208999304271     0.726176793048     1.181474335848
    C           -2.382615393619     0.103330373803     0.307212845706
    H           -1.093689183428    -1.413606684414    -0.545936644073
    H           -1.093743572324    -1.406633271964     1.192532421967
    C           -3.186073120332    -0.023526722186    -0.990168201145
    H           -2.120915477653     1.149581564295     0.447476521015
    H           -3.022052121448    -0.163523314733     1.144447084412
    C           -4.431313487757     0.861211465896    -1.011074724425
    H           -2.547107328113     0.231402152567    -1.833559926165
    H           -3.477616569397    -1.062115355581    -1.131892610960
    H           -4.168594349095     1.910414154634    -0.909504419434
    H           -4.980573438187     0.746358939730    -1.940491173952
    H           -5.104320274985     0.609774564230    -0.195997544682
    H            4.056463434399    -1.427941117920    -0.613319016878
    H            4.869424722705    -0.118044305130     0.256040947990
    H            4.075768227784    -1.432847396601     1.135579432696

  Mulliken Charges: (a.u.)
   Center  Symbol    Alpha    Beta     Spin     Total
       1     O     4.26118  4.26118  0.00000 -0.52236
       2     C     2.73565  2.73565  0.00000  0.52870
       3     C     3.21136  3.21136  0.00000 -0.42272
       4     C     3.28668  3.28668  0.00000 -0.57336
       5     C     3.15017  3.15017  0.00000 -0.30035
       6     H     0.40992  0.40992  0.00000  0.18015
       7     H     0.41008  0.41008  0.00000  0.17984
       8     C     3.15713  3.15713  0.00000 -0.31426
       9     H     0.41234  0.41234  0.00000  0.17533
      10     H     0.41160  0.41160  0.00000  0.17680
      11     C     3.15455  3.15455  0.00000 -0.30911
      12     H     0.42241  0.42241  0.00000  0.15518
      13     H     0.42194  0.42194  0.00000  0.15612
      14     C     3.15328  3.15328  0.00000 -0.30657
      15     H     0.41840  0.41840  0.00000  0.16320
      16     H     0.42092  0.42092  0.00000  0.15817
      17     C     3.24015  3.24015  0.00000 -0.48031
      18     H     0.42304  0.42304  0.00000  0.15391
      19     H     0.42321  0.42321  0.00000  0.15357
      20     H     0.42073  0.42073  0.00000  0.15855
      21     H     0.41941  0.41941  0.00000  0.16118
      22     H     0.42194  0.42194  0.00000  0.15613
      23     H     0.40875  0.40875  0.00000  0.18249
      24     H     0.39647  0.39647  0.00000  0.20706
      25     H     0.40868  0.40868  0.00000  0.18265

   Total alpha = 36.00000, Total beta = 36.00000, Total charge = -0.00000
