                              Psi4 1.0.54 Driver

  ==> Input File <==

--------------------------------------------------------------------------
set {
	reference rhf
	basis cc-pvtz
}

set_num_threads( 4 )
memory 2 gb

molecule MOL {
0 1

H	 -2.050283	 0.697423	 0.746323
N	 -1.851927	 0.161443	 -0.071573
C	 -0.561396	 -0.500007	 0.035200
H	 -1.866970	 0.790571	 -0.847013
C	 0.575129	 0.507849	 -0.048832
H	 -0.478089	 -1.200753	 -0.788956
H	 -0.456191	 -1.081816	 0.952176
C	 1.951750	 -0.141983	 0.035101
H	 0.478254	 1.061643	 -0.975981
H	 0.467676	 1.231891	 0.755499
H	 2.101550	 -0.848142	 -0.774949
H	 2.738260	 0.600794	 -0.026526
H	 2.078939	 -0.679792	 0.968824

	symmetry c1
}
set optking {
	frozen_dihedral = ("
		1 2 3 6
	")
}

ee,wfn = optimize('scf', return_wfn=True)
oeprop( wfn, 'DIPOLE', 'QUADRUPOLE', 'MULLIKEN_CHARGES')
f=open( 'psi4out.xyz', 'w' )
f.write( "13  " )
f.write( str(ee) + "\n" )
f.write( MOL.save_string_xyz() )
f.close()
--------------------------------------------------------------------------

    Molecular point group: c1
  Charge       = 0
  Multiplicity = 1
  Basis Set: CC-PVTZ
  Basis Set:
  @DF-RHF Final Energy:  -173.35034394103997
    Total Energy =                       -173.3503439410401086
    Molecular point group: c1
  Basis Set: CC-PVTZ
  Basis Set:
  Basis Set: CC-PVTZ
  Basis Set:
  @DF-RHF Final Energy:  -173.35063471503994
    Total Energy =                       -173.3506347150400018
  Basis Set: CC-PVTZ
  Basis Set:
  Basis Set: CC-PVTZ
  Basis Set:
  @DF-RHF Final Energy:  -173.35239673699817
    Total Energy =                       -173.3523967369983438
  Basis Set: CC-PVTZ
  Basis Set:
  Basis Set: CC-PVTZ
  Basis Set:
  @DF-RHF Final Energy:  -173.35243895316435
    Total Energy =                       -173.3524389531644090
  Basis Set: CC-PVTZ
  Basis Set:
  Basis Set: CC-PVTZ
  Basis Set:
  @DF-RHF Final Energy:  -173.35244208485341
    Total Energy =                       -173.3524420848533509
  Basis Set: CC-PVTZ
  Basis Set:
  Charge       = 0
  Multiplicity = 1
  Basis Set: CC-PVTZ
  Basis Set:

    Orbital Energies (a.u.)
    -----------------------

    Doubly Occupied:

       1A    -15.526379     2A    -11.238424     3A    -11.213608
       4A    -11.209569     5A     -1.178655     6A     -1.037687
       7A     -0.899922     8A     -0.807158     9A     -0.678561
      10A     -0.608793    11A     -0.606258    12A     -0.562918
      13A     -0.523085    14A     -0.516321    15A     -0.486859
      16A     -0.470591    17A     -0.379657

  @DF-RHF Final Energy:  -173.35244240168777

   => Energetics <=

    Nuclear Repulsion Energy =            131.8249665163651798
    One-Electron Energy =                -494.4659291360434281
    Two-Electron Energy =                 189.2885202179905093
    DFT Exchange-Correlation Energy =       0.0000000000000000
    Empirical Dispersion Energy =           0.0000000000000000
    PCM Polarization Energy =               0.0000000000000000
    EFP Energy =                            0.0000000000000000
    Total Energy =                       -173.3524424016877390
    Molecular point group: c1
  Basis Set: CC-PVTZ
  Basis Set:

  -Total Gradient:
     Atom            X                  Y                   Z
    ------   -----------------  -----------------  -----------------
       1       -0.000546506279    -0.000814321167     0.000403780484
       2        0.000588895728     0.000858597012    -0.000381804433
       3        0.000483958456     0.000616703367    -0.000539386545
       4        0.000007218429     0.000002026141    -0.000006392194
       5       -0.000073419523    -0.000000120003     0.000021637114
       6       -0.000480207111    -0.000669702052     0.000494173388
       7       -0.000011533384    -0.000006614498     0.000019240837
       8       -0.000003450631    -0.000002508560    -0.000019970214
       9        0.000008285662     0.000003397788     0.000004238178
      10        0.000002331323     0.000026104651     0.000008847275
      11        0.000008032702    -0.000018463681    -0.000008090928
      12        0.000021190038     0.000007105785    -0.000003098982
      13       -0.000004795409    -0.000002204785     0.000006826020

  **** Optimization is complete! (in 6 steps) ****
    Final optimized geometry and variables:
    Molecular point group: c1

    Geometry (in Angstrom), charge = 0, multiplicity = 1:

    H           -2.046500872694     0.895760675147     0.640309835530
    N           -1.858079423925     0.360865453334    -0.180850816710
    C           -0.629227260819    -0.399839615530    -0.042500417507
    H           -1.809647573982     0.994997982162    -0.950300400339
    C            0.653915683383     0.422615650437     0.040725129874
    H           -0.564756526541    -1.091330963654    -0.876781986913
    H           -0.720810466927    -1.014963566545     0.846982777379
    C            1.903952272826    -0.439296734078     0.183230186955
    H            0.737302772562     1.040317551537    -0.850194576436
    H            0.583025402023     1.106808036338     0.882541632636
    H            2.013581674343    -1.112863558263    -0.660266486356
    H            2.798178768852     0.170417850205     0.236591030226
    H            1.862438812358    -1.043694407043     1.083370367913

  Mulliken Charges: (a.u.)
   Center  Symbol    Alpha    Beta     Spin     Total
       1     H     0.43145  0.43145  0.00000  0.13710
       2     N     3.68999  3.68999  0.00000 -0.37998
       3     C     3.02838  3.02838  0.00000 -0.05676
       4     H     0.43166  0.43166  0.00000  0.13668
       5     C     3.08074  3.08074  0.00000 -0.16148
       6     H     0.45378  0.45378  0.00000  0.09243
       7     H     0.45447  0.45447  0.00000  0.09105
       8     C     3.15221  3.15221  0.00000 -0.30442
       9     H     0.45978  0.45978  0.00000  0.08043
      10     H     0.45967  0.45967  0.00000  0.08065
      11     H     0.45487  0.45487  0.00000  0.09027
      12     H     0.44798  0.44798  0.00000  0.10404
      13     H     0.45501  0.45501  0.00000  0.08999

   Total alpha = 17.00000, Total beta = 17.00000, Total charge =  0.00000

*** Psi4 exiting successfully. Buy a developer a beer!
