  ==> Input File <==

--------------------------------------------------------------------------
set {
	reference rhf
	basis 6-31G*
}

set_num_threads( 4 )
memory 2 gb

molecule MOL {
0 1

H	 -0.000158	 1.970498	 0.756846
O	 -0.000074	 1.880206	 -0.189275
C	 -0.000015	 0.544847	 -0.545111
C	 -1.278788	 -0.123820	 -0.051541
C	 1.278802	 -0.123718	 -0.051505
H	 -0.000001	 0.490777	 -1.623619
F	 -1.977852	 -0.554448	 -1.079847
F	 -1.033472	 -1.151459	 0.733404
F	 -2.031232	 0.735667	 0.616822
F	 2.323327	 0.466644	 -0.591854
F	 1.326242	 -1.401483	 -0.363667
F	 1.388946	 -0.015632	 1.262939

	symmetry c1
}
set optking {
	frozen_dihedral = ("
		7 4 3 6
	")
}

ee = optimize('scf')
oeprop('DIPOLE', 'QUADRUPOLE', 'MULLIKEN_CHARGES')
f=open( 'psi4out.xyz', 'w' )
f.write( "12  " )
f.write( str(ee) + "\n" )
f.write( MOL.save_string_xyz() )
f.close()
--------------------------------------------------------------------------

    Molecular point group: c1
  Charge       = 0
  Multiplicity = 1
  Basis Set: 6-31G*
  Basis Set:
  @DF-RHF Final Energy:  -786.27087551086208
    Total Energy =                       -786.2708755108621972
    Molecular point group: c1
  Basis Set: 6-31G*
  Basis Set:
  Basis Set: 6-31G*
  Basis Set:
  @DF-RHF Final Energy:  -786.27133427751198
    Total Energy =                       -786.2713342775109595
  Basis Set: 6-31G*
  Basis Set:
  Basis Set: 6-31G*
  Basis Set:
  @DF-RHF Final Energy:  -786.27205891488882
    Total Energy =                       -786.2720589148875661
  Basis Set: 6-31G*
  Basis Set:
  Basis Set: 6-31G*
  Basis Set:
  @DF-RHF Final Energy:  -786.27208546599411
    Total Energy =                       -786.2720854659939960
  Basis Set: 6-31G*
  Basis Set:
  Basis Set: 6-31G*
  Basis Set:
  @DF-RHF Final Energy:  -786.27209090816882
    Total Energy =                       -786.2720909081687068
  Basis Set: 6-31G*
  Basis Set:
  Charge       = 0
  Multiplicity = 1
  Basis Set: 6-31G*
  Basis Set:

    Orbital Energies (a.u.)
    -----------------------

    Doubly Occupied:

       1A    -26.363491     2A    -26.360950     3A    -26.360838
       4A    -26.359963     5A    -26.359781     6A    -26.355901
       7A    -20.615800     8A    -11.528837     9A    -11.523205
      10A    -11.349425    11A     -1.764917    12A     -1.757590
      13A     -1.660218    14A     -1.658241    15A     -1.657669
      16A     -1.652892    17A     -1.434298    18A     -1.098877
      19A     -0.995739    20A     -0.936923    21A     -0.865792
      22A     -0.859188    23A     -0.850535    24A     -0.845681
      25A     -0.833675    26A     -0.813093    27A     -0.732968
      28A     -0.729922    29A     -0.728606    30A     -0.722621
      31A     -0.687428    32A     -0.684860    33A     -0.682205
      34A     -0.677293    35A     -0.667041    36A     -0.662412
      37A     -0.655491    38A     -0.649684    39A     -0.617445
      40A     -0.549551    41A     -0.504844

  @DF-RHF Final Energy:  -786.27209185796255

   => Energetics <=

    Nuclear Repulsion Energy =            669.0341413641856434
    One-Electron Energy =               -2424.9806872972349083
    Two-Electron Energy =                 969.6744540750869419
    DFT Exchange-Correlation Energy =       0.0000000000000000
    Empirical Dispersion Energy =           0.0000000000000000
    PCM Polarization Energy =               0.0000000000000000
    EFP Energy =                            0.0000000000000000
    Total Energy =                       -786.2720918579623230
    Molecular point group: c1
  Basis Set: 6-31G*
  Basis Set:

  -Total Gradient:
     Atom            X                  Y                   Z
    ------   -----------------  -----------------  -----------------
       1        0.000001851004     0.000027270189    -0.000005877475
       2       -0.000015621183    -0.000074432866     0.000029520060
       3        0.000467033400    -0.000824679620     0.000042105453
       4       -0.000484620732     0.000851852703     0.000052447126
       5       -0.000033720281    -0.000019414896    -0.000078953699
       6       -0.000333698365     0.000563007724    -0.000044974297
       7        0.000274763672    -0.000478433712    -0.000015892811
       8        0.000052989349    -0.000082521991     0.000007824784
       9        0.000035286696    -0.000001208198    -0.000065181862
      10        0.000026662040     0.000001826882    -0.000004539840
      11       -0.000006870010     0.000058292054     0.000048250894
      12        0.000015944408    -0.000021558274     0.000035271664

  **** Optimization is complete! (in 6 steps) ****
    Final optimized geometry and variables:
    Molecular point group: c1

    Geometry (in Angstrom), charge = 0, multiplicity = 1:

    H           -0.055755946547     2.032198363267     0.731595582785
    O            0.044739643387     1.908500106903    -0.204286298056
    C            0.010781134070     0.568806000569    -0.533138814661
    C           -1.284485623291    -0.121556470419    -0.040662651581
    C            1.280978443929    -0.118692992070    -0.047962453053
    H            0.010982386168     0.511743581462    -1.610572287631
    F           -1.984872659374    -0.563463380779    -1.066963840217
    F           -1.051671923251    -1.151394989320     0.750769318227
    F           -2.037893440038     0.724830143773     0.632401122802
    F            2.333474267043     0.470685044992    -0.573502898190
    F            1.310426853406    -1.388292651827    -0.399299040104
    F            1.390650901863    -0.041623936394     1.267939539186

  Mulliken Charges: (a.u.)
   Center  Symbol    Alpha    Beta     Spin     Total
       1     H     0.26694  0.26694  0.00000  0.46612
       2     O     4.35952  4.35952  0.00000 -0.71904
       3     C     3.06888  3.06888  0.00000 -0.13775
       4     C     2.43484  2.43484  0.00000  1.13031
       5     C     2.43619  2.43619  0.00000  1.12762
       6     H     0.37087  0.37087  0.00000  0.25825
       7     F     4.67712  4.67712  0.00000 -0.35424
       8     F     4.67457  4.67457  0.00000 -0.34914
       9     F     4.67660  4.67660  0.00000 -0.35321
      10     F     4.67526  4.67526  0.00000 -0.35052
      11     F     4.67705  4.67705  0.00000 -0.35410
      12     F     4.68214  4.68214  0.00000 -0.36429

   Total alpha = 41.00000, Total beta = 41.00000, Total charge =  0.00000
