  ==> Input File <==

--------------------------------------------------------------------------
set {
	reference rhf
	basis cc-pvtz
}

set_num_threads( 4 )
memory 2 gb

molecule MOL {
0 1

H	 -0.939693	 0.000281	 1.681345
O	 -0.046262	 -0.000157	 1.387678
C	 -0.000837	 0.000006	 -0.025491
C	 1.432186	 -0.250634	 -0.491080
C	 -0.941853	 -1.074183	 -0.567480
C	 -0.468521	 1.387093	 -0.444359
H	 1.505180	 -0.220299	 -1.572073
H	 1.778366	 -1.226164	 -0.163099
H	 2.096825	 0.498572	 -0.079485
H	 -0.955807	 -1.073950	 -1.651266
H	 -0.628325	 -2.061065	 -0.240618
H	 -1.949769	 -0.905226	 -0.209675
H	 -0.468014	 1.485631	 -1.523515
H	 0.184098	 2.144051	 -0.028047
H	 -1.472060	 1.569569	 -0.081279

	symmetry c1
}
set optking {
	frozen_dihedral = ("
		4 3 2 1
	")
}

ee = optimize('scf')
oeprop('DIPOLE', 'QUADRUPOLE', 'MULLIKEN_CHARGES')
f=open( 'psi4out.xyz', 'w' )
f.write( "15  " )
f.write( str(ee) + "\n" )
f.write( MOL.save_string_xyz() )
f.close()
--------------------------------------------------------------------------

    Molecular point group: c1
  Charge       = 0
  Multiplicity = 1
  Basis Set: CC-PVTZ
  Basis Set:
  @DF-RHF Final Energy:  -232.24471174349171
    Total Energy =                       -232.2447117434916208
    Molecular point group: c1
  Basis Set: CC-PVTZ
  Basis Set:
  Basis Set: CC-PVTZ
  Basis Set:
  @DF-RHF Final Energy:  -232.24631876123220
    Total Energy =                       -232.2463187612324305
  Basis Set: CC-PVTZ
  Basis Set:
  Basis Set: CC-PVTZ
  Basis Set:
  @DF-RHF Final Energy:  -232.24666200890189
    Total Energy =                       -232.2466620089019216
  Basis Set: CC-PVTZ
  Basis Set:
  Basis Set: CC-PVTZ
  Basis Set:
  @DF-RHF Final Energy:  -232.24666304840909
    Total Energy =                       -232.2466630484091183
  Basis Set: CC-PVTZ
  Basis Set:
  Basis Set: CC-PVTZ
  Basis Set:
  @DF-RHF Final Energy:  -232.24666718140767
    Total Energy =                       -232.2466671814074175
  Basis Set: CC-PVTZ
  Basis Set:
  Charge       = 0
  Multiplicity = 1
  Basis Set: CC-PVTZ
  Basis Set:

    Orbital Energies (a.u.)
    -----------------------

    Doubly Occupied:

       1A    -20.542130     2A    -11.280796     3A    -11.210959
       4A    -11.207717     5A    -11.203835     6A     -1.364867
       7A     -1.065248     8A     -0.942664     9A     -0.939900
      10A     -0.778509    11A     -0.672621    12A     -0.624341
      13A     -0.622827    14A     -0.575976    15A     -0.557608
      16A     -0.532847    17A     -0.517040    18A     -0.511304
      19A     -0.504620    20A     -0.458674    21A     -0.428703

  @DF-RHF Final Energy:  -232.24666746537315

   => Energetics <=

    Nuclear Repulsion Energy =            200.6741260668745213
    One-Electron Energy =                -712.7552206245002253
    Two-Electron Energy =                 279.8344270922526675
    DFT Exchange-Correlation Energy =       0.0000000000000000
    Empirical Dispersion Energy =           0.0000000000000000
    PCM Polarization Energy =               0.0000000000000000
    EFP Energy =                            0.0000000000000000
    Total Energy =                       -232.2466674653729797
    Molecular point group: c1
  Basis Set: CC-PVTZ
  Basis Set:

  -Total Gradient:
     Atom            X                  Y                   Z
    ------   -----------------  -----------------  -----------------
       1       -0.000008199657    -0.000912731919    -0.000045898705
       2       -0.000020555173     0.000988504193     0.000054740718
       3        0.000113036337     0.000488238994     0.000055046157
       4       -0.000104815502    -0.000533418503    -0.000061950409
       5        0.000012044389     0.000005548095    -0.000009758799
       6        0.000013928622    -0.000017433823     0.000016799794
       7        0.000011399947     0.000008686688     0.000006612061
       8       -0.000028128028    -0.000008680647    -0.000002524292
       9        0.000006905984     0.000002896535     0.000010915098
      10       -0.000010110856    -0.000005733979    -0.000005779500
      11        0.000005111153     0.000003445347    -0.000003521937
      12        0.000005537100     0.000002848989     0.000007038652
      13        0.000002324541     0.000003085432    -0.000021220941
      14       -0.000014018408    -0.000008431747    -0.000000050390
      15        0.000015539551    -0.000016823653    -0.000000447501

  **** Optimization is complete! (in 6 steps) ****
    Final optimized geometry and variables:
    Molecular point group: c1

    Geometry (in Angstrom), charge = 0, multiplicity = 1:

    H           -0.851823543078    -0.057531002858     1.727077701296
    O            0.024907110869    -0.056972832662     1.387324522239
    C           -0.001630353329     0.003506612339    -0.025224382396
    C            1.431644394505    -0.255437300396    -0.469189840322
    C           -0.935529635295    -1.076333510999    -0.567971470591
    C           -0.464563165712     1.390712441434    -0.465819679135
    H            1.516479303926    -0.210278469289    -1.548566015151
    H            1.756162389319    -1.233290575376    -0.136744249965
    H            2.095569643180     0.484604715260    -0.040239161782
    H           -0.947180072853    -1.076216932188    -1.651544117768
    H           -0.618453328272    -2.054254006391    -0.227452894551
    H           -1.953778983408    -0.912296856242    -0.227439730934
    H           -0.461998442676     1.482123167743    -1.546044644711
    H            0.187039999686     2.150786659768    -0.053609971544
    H           -1.473577970669     1.586992974495    -0.117204276226

  Mulliken Charges: (a.u.)
   Center  Symbol    Alpha    Beta     Spin     Total
       1     H     0.39551  0.39551  0.00000  0.20899
       2     O     4.21130  4.21130  0.00000 -0.42261
       3     C     2.87834  2.87834  0.00000  0.24332
       4     C     3.14290  3.14290  0.00000 -0.28581
       5     C     3.15215  3.15215  0.00000 -0.30429
       6     C     3.14843  3.14843  0.00000 -0.29686
       7     H     0.45877  0.45877  0.00000  0.08245
       8     H     0.44920  0.44920  0.00000  0.10159
       9     H     0.44770  0.44770  0.00000  0.10460
      10     H     0.45461  0.45461  0.00000  0.09079
      11     H     0.44594  0.44594  0.00000  0.10812
      12     H     0.45627  0.45627  0.00000  0.08745
      13     H     0.45635  0.45635  0.00000  0.08730
      14     H     0.44706  0.44706  0.00000  0.10588
      15     H     0.45546  0.45546  0.00000  0.08908

   Total alpha = 21.00000, Total beta = 21.00000, Total charge =  0.00000
