                              Psi4 1.0.54 Driver

  ==> Input File <==

--------------------------------------------------------------------------
set {
	reference rhf
	basis cc-pvtz
}

set_num_threads( 4 )
memory 2 gb

molecule MOL {
0 1

H	 2.257768	 1.115841	 -0.000083
N	 1.412344	 0.603237	 -0.000038
C	 1.289539	 -0.732976	 0.000019
C	 0.137086	 1.114012	 -0.000009
H	 2.137547	 -1.384989	 0.000028
N	 0.059379	 -1.109072	 0.000053
H	 -0.058946	 2.162466	 -0.000039
C	 -0.685360	 0.045241	 -0.000001
C	 -2.177246	 0.006991	 -0.000014
H	 -2.545728	 -0.516420	 -0.874084
H	 -2.590810	 1.007452	 -0.000208
H	 -2.545759	 -0.516102	 0.874244

	symmetry c1
}
ee,wfn = energy('scf', return_wfn=True)
oeprop( wfn, 'DIPOLE', 'QUADRUPOLE', 'MULLIKEN_CHARGES')
oeprop( wfn, 'GRID_ESP')
f=open( 'psi4out.xyz', 'w' )
f.write( "12  " )
f.write( str(ee) + "\n" )
f.write( MOL.save_string_xyz() )
f.close()
--------------------------------------------------------------------------

    Molecular point group: c1

    Geometry (in Angstrom), charge = 0, multiplicity = 1:

       Center              X                  Y                   Z               Mass
    ------------   -----------------  -----------------  -----------------  -----------------
           H          2.257709938943     1.115855159596    -0.000083084518     1.007825032070
           N          1.412285938943     0.603251159596    -0.000038084518    14.003074004780
           C          1.289480938943    -0.732961840404     0.000018915482    12.000000000000
           C          0.137027938943     1.114026159596    -0.000009084518    12.000000000000
           H          2.137488938943    -1.384974840404     0.000027915482     1.007825032070
           N          0.059320938943    -1.109057840404     0.000052915482    14.003074004780
           H         -0.059004061057     2.162480159596    -0.000039084518     1.007825032070
           C         -0.685418061057     0.045255159596    -0.000001084518    12.000000000000
           C         -2.177304061057     0.007005159596    -0.000014084518    12.000000000000
           H         -2.545786061057    -0.516405840404    -0.874084084518     1.007825032070
           H         -2.590868061057     1.007466159596    -0.000208084518     1.007825032070
           H         -2.545817061057    -0.516087840404     0.874243915482     1.007825032070

  Charge       = 0
  Multiplicity = 1
  Basis Set: CC-PVTZ
  Basis Set:

    Orbital Energies (a.u.)
    -----------------------

    Doubly Occupied:

       1A    -15.608538     2A    -15.528277     3A    -11.283951
       4A    -11.243492     5A    -11.238086     6A    -11.209632
       7A     -1.346852     8A     -1.168797     9A     -1.035533
      10A     -0.940875    11A     -0.825429    12A     -0.774697
      13A     -0.741164    14A     -0.620769    15A     -0.609395
      16A     -0.596209    17A     -0.550799    18A     -0.540304
      19A     -0.526491    20A     -0.428221    21A     -0.390787
      22A     -0.313971

  @DF-RHF Final Energy:  -263.95055445863932

   => Energetics <=

    Nuclear Repulsion Energy =            226.5825050546397676
    One-Electron Energy =                -806.0213322408545764
    Two-Electron Energy =                 315.4882727275755769
    DFT Exchange-Correlation Energy =       0.0000000000000000
    Empirical Dispersion Energy =           0.0000000000000000
    PCM Polarization Energy =               0.0000000000000000
    EFP Energy =                            0.0000000000000000
    Total Energy =                       -263.9505544586392034

  Mulliken Charges: (a.u.)
   Center  Symbol    Alpha    Beta     Spin     Total
       1     H     0.40456  0.40456  0.00000  0.19087
       2     N     3.55035  3.55035  0.00000 -0.10070
       3     C     3.01075  3.01075  0.00000 -0.02150
       4     C     3.12462  3.12462  0.00000 -0.24923
       5     H     0.41974  0.41974  0.00000  0.16052
       6     N     3.63501  3.63501  0.00000 -0.27002
       7     H     0.41025  0.41025  0.00000  0.17950
       8     C     2.95474  2.95474  0.00000  0.09052
       9     C     3.13616  3.13616  0.00000 -0.27232
      10     H     0.44861  0.44861  0.00000  0.10279
      11     H     0.45661  0.45661  0.00000  0.08679
      12     H     0.44861  0.44861  0.00000  0.10278

   Total alpha = 22.00000, Total beta = 22.00000, Total charge =  0.00000

*** Psi4 exiting successfully. Buy a developer a beer!
