  ==> Input File <==

--------------------------------------------------------------------------
set {
	reference rhf
	basis 6-31G*
}

set_num_threads( 1 )
memory 2 gb

molecule MOL {
0 1

H	 -2.798360	 -0.862255	 -0.071053
N	 -1.863561	 -0.715187	 0.256814
C	 -1.344686	 0.554728	 -0.219830
H	 -1.300452	 -1.461917	 -0.101532
C	 0.081427	 0.741154	 0.254071
H	 -1.362155	 0.656231	 -1.305829
H	 -1.952773	 1.354456	 0.191809
O	 0.874168	 -0.245412	 -0.342030
H	 0.444037	 1.730782	 -0.023037
H	 0.121165	 0.653424	 1.337565
C	 1.061709	 -0.081536	 -1.711535
H	 1.683081	 -0.896386	 -2.057385
H	 0.115420	 -0.108823	 -2.248912
H	 1.558353	 0.860411	 -1.934898

	symmetry c1
}
set optking {
	frozen_dihedral = ("
		8 5 3 6,
		6 3 2 4,
		5 8 11 13
	")
}

ee = energy('scf')
oeprop('DIPOLE', 'QUADRUPOLE', 'MULLIKEN_CHARGES')
f=open( 'psi4out.xyz', 'w' )
f.write( "14  " )
f.write( str(ee) + "\n" )
f.write( MOL.save_string_xyz() )
f.close()
--------------------------------------------------------------------------

    Molecular point group: c1

    Geometry (in Angstrom), charge = 0, multiplicity = 1:

       Center              X                  Y                   Z               Mass
    ------------   -----------------  -----------------  -----------------  -----------------
           H         -2.557900055922    -0.896530200450     0.305456543485     1.007825032070
           N         -1.623101055922    -0.749462200450     0.633323543485    14.003074004780
           C         -1.104226055922     0.520452799550     0.156679543485    12.000000000000
           H         -1.059992055922    -1.496192200450     0.274977543485     1.007825032070
           C          0.321886944078     0.706878799550     0.630580543485    12.000000000000
           H         -1.121695055922     0.621955799550    -0.929319456515     1.007825032070
           H         -1.712313055922     1.320180799550     0.568318543485     1.007825032070
           O          1.114627944078    -0.279687200450     0.034479543485    15.994914619560
           H          0.684496944078     1.696506799550     0.353472543485     1.007825032070
           H          0.361624944078     0.619148799550     1.714074543485     1.007825032070
           C          1.302168944078    -0.115811200450    -1.335025456515    12.000000000000
           H          1.923540944078    -0.930661200450    -1.680875456515     1.007825032070
           H          0.355879944078    -0.143098200450    -1.872402456515     1.007825032070
           H          1.798812944078     0.826135799550    -1.558388456515     1.007825032070

  Charge       = 0
  Multiplicity = 1
  Basis Set: 6-31G*
  Basis Set:

    Orbital Energies (a.u.)
    -----------------------

    Doubly Occupied:

       1A    -20.557788     2A    -15.531899     3A    -11.268125
       4A    -11.266879     5A    -11.240727     6A     -1.383995
       7A     -1.176070     8A     -0.996714     9A     -0.922923
      10A     -0.807771    11A     -0.692875    12A     -0.679238
      13A     -0.642199    14A     -0.618984    15A     -0.597831
      16A     -0.541519    17A     -0.535358    18A     -0.515160
      19A     -0.464074    20A     -0.420784    21A     -0.378947

  @DF-RHF Final Energy:  -248.11746740519010

   => Energetics <=

    Nuclear Repulsion Energy =            198.8434651518737155
    One-Electron Energy =                -731.4418830039227259
    Two-Electron Energy =                 284.4809504468582304
    DFT Exchange-Correlation Energy =       0.0000000000000000
    Empirical Dispersion Energy =           0.0000000000000000
    PCM Polarization Energy =               0.0000000000000000
    EFP Energy =                            0.0000000000000000
    Total Energy =                       -248.1174674051907800

  Mulliken Charges: (a.u.)
   Center  Symbol    Alpha    Beta     Spin     Total
       1     H     0.33270  0.33270  0.00000  0.33459
       2     N     3.92166  3.92166  0.00000 -0.84332
       3     C     3.07829  3.07829  0.00000 -0.15658
       4     H     0.32572  0.32572  0.00000  0.34855
       5     C     2.99785  2.99785  0.00000  0.00429
       6     H     0.43174  0.43174  0.00000  0.13653
       7     H     0.41982  0.41982  0.00000  0.16036
       8     O     4.30508  4.30508  0.00000 -0.61017
       9     H     0.42995  0.42995  0.00000  0.14011
      10     H     0.40449  0.40449  0.00000  0.19103
      11     C     3.08520  3.08520  0.00000 -0.17040
      12     H     0.41033  0.41033  0.00000  0.17934
      13     H     0.42920  0.42920  0.00000  0.14160
      14     H     0.42797  0.42797  0.00000  0.14407

   Total alpha = 21.00000, Total beta = 21.00000, Total charge = -0.00000
