  ==> Input File <==

--------------------------------------------------------------------------
set {
	reference rhf
	basis 6-31G*
}

set_num_threads( 1 )
memory 2 gb

molecule MOL {
0 1

H	 -3.420663	 1.227371	 -1.044276
O	 -3.452007	 0.283848	 -0.965577
C	 -3.181085	 -0.079926	 0.364119
C	 -1.765924	 0.277073	 0.805136
H	 -3.327791	 -1.152017	 0.410903
H	 -3.905698	 0.375695	 1.036898
C	 -0.677594	 -0.417312	 -0.014550
H	 -1.637766	 1.358238	 0.744969
H	 -1.659588	 0.017670	 1.857098
C	 0.738335	 -0.034840	 0.421385
H	 -0.814977	 -0.178223	 -1.064632
H	 -0.802730	 -1.495410	 0.071702
C	 1.822265	 -0.738362	 -0.399735
H	 0.853533	 1.043532	 0.342250
H	 0.871597	 -0.279636	 1.474438
C	 2.871604	 -1.486703	 0.430341
H	 2.321811	 -0.009098	 -1.035600
H	 1.343957	 -1.448014	 -1.071622
C	 3.757094	 -0.587998	 1.295582
H	 3.506613	 -2.052648	 -0.246977
H	 2.374224	 -2.219785	 1.062328
H	 4.258054	 0.163837	 0.691493
H	 4.523084	 -1.170537	 1.798318
H	 3.187386	 -0.071609	 2.061048

	symmetry c1
}
set optking {
	frozen_dihedral = ("
		20 16 13 17,
		13 10 7 11,
		11 7 4 3,
		1 2 3 5,
		7 4 3 2
	")
}

ee = energy('scf')
oeprop('DIPOLE', 'QUADRUPOLE', 'MULLIKEN_CHARGES')
f=open( 'psi4out.xyz', 'w' )
f.write( "24  " )
f.write( str(ee) + "\n" )
f.write( MOL.save_string_xyz() )
f.close()
--------------------------------------------------------------------------

    Molecular point group: c1

    Geometry (in Angstrom), charge = 0, multiplicity = 1:

       Center              X                  Y                   Z               Mass
    ------------   -----------------  -----------------  -----------------  -----------------
           H         -3.380126138279     1.556456273739    -1.272718925399     1.007825032070
           O         -3.411470138279     0.612933273739    -1.194019925399    15.994914619560
           C         -3.140548138279     0.249159273739     0.135676074601    12.000000000000
           C         -1.725387138279     0.606158273739     0.576693074601    12.000000000000
           H         -3.287254138279    -0.822931726261     0.182460074601     1.007825032070
           H         -3.865161138279     0.704780273739     0.808455074601     1.007825032070
           C         -0.637057138279    -0.088226726261    -0.242992925399    12.000000000000
           H         -1.597229138279     1.687323273739     0.516526074601     1.007825032070
           H         -1.619051138279     0.346755273739     1.628655074601     1.007825032070
           C          0.778871861721     0.294245273739     0.192942074601    12.000000000000
           H         -0.774440138279     0.150862273739    -1.293074925399     1.007825032070
           H         -0.762193138279    -1.166324726261    -0.156740925399     1.007825032070
           C          1.862801861721    -0.409276726261    -0.628177925399    12.000000000000
           H          0.894069861721     1.372617273739     0.113807074601     1.007825032070
           H          0.912133861721     0.049449273739     1.245995074601     1.007825032070
           C          2.912140861721    -1.157617726261     0.201898074601    12.000000000000
           H          2.362347861721     0.319987273739    -1.264042925399     1.007825032070
           H          1.384493861721    -1.118928726261    -1.300064925399     1.007825032070
           C          3.797630861721    -0.258912726261     1.067139074601    12.000000000000
           H          3.547149861721    -1.723562726261    -0.475419925399     1.007825032070
           H          2.414760861721    -1.890699726261     0.833885074601     1.007825032070
           H          4.298590861721     0.492922273739     0.463050074601     1.007825032070
           H          4.563620861721    -0.841451726261     1.569875074601     1.007825032070
           H          3.227922861721     0.257476273739     1.832605074601     1.007825032070

  Charge       = 0
  Multiplicity = 1
  Basis Set: 6-31G*
  Basis Set:

    Orbital Energies (a.u.)
    -----------------------

    Doubly Occupied:

       1A    -20.553511     2A    -11.267633     3A    -11.217001
       4A    -11.214201     5A    -11.211694     6A    -11.210971
       7A    -11.210000     8A    -11.207420     9A     -1.360108
      10A     -1.088782    11A     -1.047932    12A     -0.985416
      13A     -0.914493    14A     -0.850900    15A     -0.803134
      16A     -0.774004    17A     -0.679805    18A     -0.651213
      19A     -0.626949    20A     -0.617769    21A     -0.597621
      22A     -0.586341    23A     -0.552719    24A     -0.545227
      25A     -0.517590    26A     -0.504560    27A     -0.500063
      28A     -0.476200    29A     -0.467634    30A     -0.458108
      31A     -0.452199    32A     -0.448664    33A     -0.418789

  @DF-RHF Final Energy:  -349.24260109745245

   => Energetics <=

    Nuclear Repulsion Energy =            385.0559428051056443
    One-Electron Energy =               -1236.5597282840990374
    Two-Electron Energy =                 502.2611843815415114
    DFT Exchange-Correlation Energy =       0.0000000000000000
    Empirical Dispersion Energy =           0.0000000000000000
    PCM Polarization Energy =               0.0000000000000000
    EFP Energy =                            0.0000000000000000
    Total Energy =                       -349.2426010974519386

  Mulliken Charges: (a.u.)
   Center  Symbol    Alpha    Beta     Spin     Total
       1     H     0.28338  0.28338  0.00000  0.43324
       2     O     4.36833  4.36833  0.00000 -0.73666
       3     C     2.99616  2.99616  0.00000  0.00769
       4     C     3.16949  3.16949  0.00000 -0.33898
       5     H     0.41645  0.41645  0.00000  0.16710
       6     H     0.42824  0.42824  0.00000  0.14352
       7     C     3.15489  3.15489  0.00000 -0.30977
       8     H     0.42828  0.42828  0.00000  0.14343
       9     H     0.42237  0.42237  0.00000  0.15526
      10     C     3.15416  3.15416  0.00000 -0.30833
      11     H     0.41150  0.41150  0.00000  0.17700
      12     H     0.42332  0.42332  0.00000  0.15335
      13     C     3.15576  3.15576  0.00000 -0.31153
      14     H     0.42216  0.42216  0.00000  0.15567
      15     H     0.42270  0.42270  0.00000  0.15459
      16     C     3.15393  3.15393  0.00000 -0.30785
      17     H     0.42225  0.42225  0.00000  0.15550
      18     H     0.41821  0.41821  0.00000  0.16358
      19     C     3.24042  3.24042  0.00000 -0.48085
      20     H     0.42174  0.42174  0.00000  0.15652
      21     H     0.42390  0.42390  0.00000  0.15220
      22     H     0.42231  0.42231  0.00000  0.15538
      23     H     0.41959  0.41959  0.00000  0.16082
      24     H     0.42044  0.42044  0.00000  0.15911

   Total alpha = 33.00000, Total beta = 33.00000, Total charge = -0.00000
