                              Psi4 1.0.54 Driver

  ==> Input File <==

--------------------------------------------------------------------------
set {
	reference rhf
	basis cc-pvtz
}

set_num_threads( 4 )
memory 2 gb

molecule MOL {
0 1

H	 -3.642953	 0.223825	 0.000000
C	 -2.571844	 0.155001	 0.000000
C	 -1.957580	 -1.086132	 0.000000
C	 -1.807160	 1.303787	 0.000000
H	 -2.551493	 -1.979629	 0.000000
C	 -0.582719	 -1.174294	 0.000000
H	 -2.279934	 2.266806	 0.000000
C	 -0.427220	 1.213406	 0.000000
H	 -0.094904	 -2.127556	 0.000000
C	 0.196908	 -0.024061	 0.000000
H	 0.151409	 2.115254	 0.000000
C	 1.690041	 -0.173233	 0.000000
C	 2.291486	 -1.540821	 -0.229406
O	 2.391445	 0.771075	 0.177977
H	 1.961210	 -2.237800	 0.531593
H	 3.365670	 -1.453147	 -0.195194
H	 1.991439	 -1.935225	 -1.192940

	symmetry c1
}
set optking {
	frozen_dihedral = ("
		13 12 10 8
	")
}

ee,wfn = optimize('scf', return_wfn=True)
oeprop( wfn, 'DIPOLE', 'QUADRUPOLE', 'MULLIKEN_CHARGES')
f=open( 'psi4out.xyz', 'w' )
f.write( "17  " )
f.write( str(ee) + "\n" )
f.write( MOL.save_string_xyz() )
f.close()
--------------------------------------------------------------------------

    Molecular point group: c1
  Charge       = 0
  Multiplicity = 1
  Basis Set: CC-PVTZ
  Basis Set:
  @DF-RHF Final Energy:  -382.60379109747038
    Total Energy =                       -382.6037910974703209
    Molecular point group: c1
  Basis Set: CC-PVTZ
  Basis Set:
  Basis Set: CC-PVTZ
  Basis Set:
  @DF-RHF Final Energy:  -382.60368921174762
    Total Energy =                       -382.6036892117479056
  Basis Set: CC-PVTZ
  Basis Set:
  Basis Set: CC-PVTZ
  Basis Set:
  @DF-RHF Final Energy:  -382.60507667955721
    Total Energy =                       -382.6050766795571008
  Basis Set: CC-PVTZ
  Basis Set:
  Basis Set: CC-PVTZ
  Basis Set:
  @DF-RHF Final Energy:  -382.60544879218889
    Total Energy =                       -382.6054487921890086
  Basis Set: CC-PVTZ
  Basis Set:
  Basis Set: CC-PVTZ
  Basis Set:
  @DF-RHF Final Energy:  -382.60560134469762
    Total Energy =                       -382.6056013446971065
  Basis Set: CC-PVTZ
  Basis Set:
  Basis Set: CC-PVTZ
  Basis Set:
  @DF-RHF Final Energy:  -382.60563368314899
    Total Energy =                       -382.6056336831494491
  Basis Set: CC-PVTZ
  Basis Set:
  Charge       = 0
  Multiplicity = 1
  Basis Set: CC-PVTZ
  Basis Set:

    Orbital Energies (a.u.)
    -----------------------

    Doubly Occupied:

       1A    -20.540486     2A    -11.327810     3A    -11.246867
       4A    -11.244407     5A    -11.242635     6A    -11.239029
       7A    -11.238919     8A    -11.236654     9A    -11.228925
      10A     -1.401894    11A     -1.171198    12A     -1.053431
      13A     -1.030737    14A     -0.998820    15A     -0.864599
      16A     -0.838912    17A     -0.763576    18A     -0.713350
      19A     -0.658679    20A     -0.651978    21A     -0.628661
      22A     -0.610604    23A     -0.602520    24A     -0.600708
      25A     -0.555374    26A     -0.529386    27A     -0.521921
      28A     -0.503670    29A     -0.497726    30A     -0.414433
      31A     -0.350961    32A     -0.346813

  @DF-RHF Final Energy:  -382.60563492507953

   => Energetics <=

    Nuclear Repulsion Energy =            404.4945920573067610
    One-Electron Energy =               -1320.4890915625678645
    Two-Electron Energy =                 533.3888645801815755
    DFT Exchange-Correlation Energy =       0.0000000000000000
    Empirical Dispersion Energy =           0.0000000000000000
    PCM Polarization Energy =               0.0000000000000000
    EFP Energy =                            0.0000000000000000
    Total Energy =                       -382.6056349250794710
    Molecular point group: c1
  Basis Set: CC-PVTZ
  Basis Set:

  -Total Gradient:
     Atom            X                  Y                   Z
    ------   -----------------  -----------------  -----------------
       1       -0.000002154167    -0.000012912335     0.000007910726
       2        0.000022811407     0.000211627781    -0.000054952137
       3        0.000185757692    -0.000138795369     0.000028633857
       4       -0.000172960037    -0.000084894648     0.000022209884
       5       -0.000013899114    -0.000001698605     0.000000643111
       6       -0.000204961012    -0.000087345391     0.000019589033
       7        0.000014733360     0.000017847084    -0.000003603172
       8        0.000141161931    -0.000222099494    -0.000891065033
       9        0.000003410468    -0.000006664641     0.000017510760
      10        0.000066316795     0.000371168657     0.000838970111
      11        0.000011630021     0.000021228472    -0.000000107084
      12       -0.000069092231    -0.000167847468     0.000884806068
      13        0.000004078101     0.000047336570    -0.000904840588
      14        0.000016490868     0.000091717804     0.000010614556
      15       -0.000012173640    -0.000021809182     0.000027502280
      16        0.000002230717     0.000008203629     0.000004639225
      17        0.000006618854    -0.000025062867    -0.000008461598

  **** Optimization is complete! (in 7 steps) ****
    Final optimized geometry and variables:
    Molecular point group: c1

    Geometry (in Angstrom), charge = 0, multiplicity = 1:

    H           -3.632784986333     0.348141214831    -0.015202648883
    C           -2.564052167430     0.248971974230    -0.007652314235
    C           -1.988165224390    -0.997278336992     0.135575706996
    C           -1.763485507902     1.370571784908    -0.142784015255
    H           -2.605701345467    -1.868246517727     0.241061960197
    C           -0.611296322322    -1.124111721029     0.140201538979
    H           -2.210276048806     2.339343772639    -0.256994627847
    C           -0.391425518602     1.243295206221    -0.130118618927
    H           -0.180256209824    -2.099324430834     0.248314597060
    C            0.198319685918    -0.006325343056     0.012980260169
    H            0.239217403784     2.103220033828    -0.229151423826
    C            1.696537919580    -0.092974807154     0.010714344066
    C            2.351317178024    -1.453359333018    -0.064857103666
    O            2.358667463198     0.894384854579     0.050488755157
    H            2.115090707215    -2.040736019118     0.814882475941
    H            3.419469362508    -1.317534743995    -0.125026494220
    H            2.002230746130    -2.000454637367    -0.932174908161

  Mulliken Charges: (a.u.)
   Center  Symbol    Alpha    Beta     Spin     Total
       1     H     0.42022  0.42022  0.00000  0.15955
       2     C     3.07257  3.07257  0.00000 -0.14513
       3     C     3.07722  3.07722  0.00000 -0.15443
       4     C     3.07447  3.07447  0.00000 -0.14894
       5     H     0.42235  0.42235  0.00000  0.15530
       6     C     3.08646  3.08646  0.00000 -0.17292
       7     H     0.42027  0.42027  0.00000  0.15945
       8     C     3.07469  3.07469  0.00000 -0.14938
       9     H     0.42149  0.42149  0.00000  0.15701
      10     C     3.01119  3.01119  0.00000 -0.02238
      11     H     0.40715  0.40715  0.00000  0.18570
      12     C     2.83461  2.83461  0.00000  0.33078
      13     C     3.16733  3.16733  0.00000 -0.33466
      14     O     4.18373  4.18373  0.00000 -0.36746
      15     H     0.44816  0.44816  0.00000  0.10368
      16     H     0.43190  0.43190  0.00000  0.13620
      17     H     0.44619  0.44619  0.00000  0.10761

   Total alpha = 32.00000, Total beta = 32.00000, Total charge =  0.00000

*** Psi4 exiting successfully. Buy a developer a beer!
