  ==> Input File <==

--------------------------------------------------------------------------
set {
	reference rhf
	basis 6-31G*
}

set_num_threads( 1 )
memory 2 gb

molecule MOL {
0 1

O	 3.225979	 0.970355	 -0.599647
C	 2.701189	 0.057885	 -0.047330
C	 1.245376	 -0.013843	 0.345420
O	 3.347903	 -1.046386	 0.304773
C	 0.455112	 1.231400	 -0.050772
H	 0.838542	 -0.913825	 -0.103701
H	 1.208210	 -0.175333	 1.419774
C	 -0.998893	 1.219485	 0.433193
H	 0.482531	 1.345121	 -1.130325
H	 0.957290	 2.103070	 0.354729
C	 -1.883438	 0.145884	 -0.207175
H	 -1.431207	 2.195402	 0.224832
H	 -1.019646	 1.105716	 1.516076
C	 -3.229479	 -0.016665	 0.501876
H	 -2.055849	 0.400791	 -1.251740
H	 -1.368863	 -0.812336	 -0.207476
C	 -4.119657	 -1.090514	 -0.126266
H	 -3.757129	 0.935579	 0.494792
H	 -3.057695	 -0.261033	 1.549002
C	 -5.463461	 -1.243880	 0.585332
H	 -4.291496	 -0.848404	 -1.172925
H	 -3.595664	 -2.043986	 -0.116144
H	 -6.071481	 -2.011907	 0.117302
H	 -6.027557	 -0.315737	 0.562032
H	 -5.326238	 -1.519923	 1.627083
C	 4.728119	 -1.109107	 -0.004993
H	 4.882018	 -1.033965	 -1.071845
H	 5.068212	 -2.067527	 0.355250
H	 5.265056	 -0.311663	 0.488280

	symmetry c1
}
set optking {
	frozen_dihedral = ("
		21 17 14 11,
		17 14 11 15,
		6 3 5 9,
		11 8 5 9,
		2 4 26 27,
		1 2 4 26,
		6 3 2 1
	")
}

ee = energy('scf')
oeprop('DIPOLE', 'QUADRUPOLE', 'MULLIKEN_CHARGES')
f=open( 'psi4out.xyz', 'w' )
f.write( "29  " )
f.write( str(ee) + "\n" )
f.write( MOL.save_string_xyz() )
f.close()
--------------------------------------------------------------------------

    Molecular point group: c1

    Geometry (in Angstrom), charge = 0, multiplicity = 1:

       Center              X                  Y                   Z               Mass
    ------------   -----------------  -----------------  -----------------  -----------------
           O          3.182248709084     1.067182693044    -0.701578718918    15.994914619560
           C          2.657458709084     0.154712693044    -0.149261718918    12.000000000000
           C          1.201645709084     0.082984693044     0.243488281082    12.000000000000
           O          3.304172709084    -0.949558306956     0.202841281082    15.994914619560
           C          0.411381709084     1.328227693044    -0.152703718918    12.000000000000
           H          0.794811709084    -0.816997306956    -0.205632718918     1.007825032070
           H          1.164479709084    -0.078505306956     1.317842281082     1.007825032070
           C         -1.042623290916     1.316312693044     0.331261281082    12.000000000000
           H          0.438800709084     1.441948693044    -1.232256718918     1.007825032070
           H          0.913559709084     2.199897693044     0.252797281082     1.007825032070
           C         -1.927168290916     0.242711693044    -0.309106718918    12.000000000000
           H         -1.474937290916     2.292229693044     0.122900281082     1.007825032070
           H         -1.063376290916     1.202543693044     1.414144281082     1.007825032070
           C         -3.273209290916     0.080162693044     0.399944281082    12.000000000000
           H         -2.099579290916     0.497618693044    -1.353671718918     1.007825032070
           H         -1.412593290916    -0.715508306956    -0.309407718918     1.007825032070
           C         -4.163387290916    -0.993686306956    -0.228197718918    12.000000000000
           H         -3.800859290916     1.032406693044     0.392860281082     1.007825032070
           H         -3.101425290916    -0.164205306956     1.447070281082     1.007825032070
           C         -5.507191290916    -1.147052306956     0.483400281082    12.000000000000
           H         -4.335226290916    -0.751576306956    -1.274856718918     1.007825032070
           H         -3.639394290916    -1.947158306956    -0.218075718918     1.007825032070
           H         -6.115211290916    -1.915079306956     0.015370281082     1.007825032070
           H         -6.071287290916    -0.218909306956     0.460100281082     1.007825032070
           H         -5.369968290916    -1.423095306956     1.525151281082     1.007825032070
           C          4.684388709084    -1.012279306956    -0.106924718918    12.000000000000
           H          4.838287709084    -0.937137306956    -1.173776718918     1.007825032070
           H          5.024481709084    -1.970699306956     0.253318281082     1.007825032070
           H          5.221325709084    -0.214835306956     0.386348281082     1.007825032070

  Charge       = 0
  Multiplicity = 1
  Basis Set: 6-31G*
  Basis Set:

    Orbital Energies (a.u.)
    -----------------------

    Doubly Occupied:

       1A    -20.603433     2A    -20.545260     3A    -11.372114
       4A    -11.280709     5A    -11.234804     6A    -11.219185
       7A    -11.217510     8A    -11.215936     9A    -11.215720
      10A    -11.214531    11A    -11.209139    12A     -1.469132
      13A     -1.362571    14A     -1.098230    15A     -1.066810
      16A     -1.019503    17A     -0.977239    18A     -0.928783
      19A     -0.861619    20A     -0.799254    21A     -0.790554
      22A     -0.763839    23A     -0.701490    24A     -0.682304
      25A     -0.672195    26A     -0.649753    27A     -0.629508
      28A     -0.604509    29A     -0.596256    30A     -0.579952
      31A     -0.567041    32A     -0.550179    33A     -0.532575
      34A     -0.529960    35A     -0.515299    36A     -0.510910
      37A     -0.498541    38A     -0.477312    39A     -0.470358
      40A     -0.462791    41A     -0.458036    42A     -0.455580
      43A     -0.440466    44A     -0.435897

  @DF-RHF Final Energy:  -501.04317356457136

   => Energetics <=

    Nuclear Repulsion Energy =            611.4660165560931091
    One-Electron Energy =               -1894.0450475350228317
    Two-Electron Energy =                 781.5358574143587020
    DFT Exchange-Correlation Energy =       0.0000000000000000
    Empirical Dispersion Energy =           0.0000000000000000
    PCM Polarization Energy =               0.0000000000000000
    EFP Energy =                            0.0000000000000000
    Total Energy =                       -501.0431735645710205

  Mulliken Charges: (a.u.)
   Center  Symbol    Alpha    Beta     Spin     Total
       1     O     4.28589  4.28589  0.00000 -0.57177
       2     C     2.60465  2.60465  0.00000  0.79070
       3     C     3.20982  3.20982  0.00000 -0.41964
       4     O     4.30744  4.30744  0.00000 -0.61489
       5     C     3.15374  3.15374  0.00000 -0.30748
       6     H     0.39917  0.39917  0.00000  0.20166
       7     H     0.40119  0.40119  0.00000  0.19762
       8     C     3.15704  3.15704  0.00000 -0.31408
       9     H     0.41322  0.41322  0.00000  0.17357
      10     H     0.40864  0.40864  0.00000  0.18271
      11     C     3.15515  3.15515  0.00000 -0.31030
      12     H     0.41768  0.41768  0.00000  0.16464
      13     H     0.42405  0.42405  0.00000  0.15191
      14     C     3.15049  3.15049  0.00000 -0.30098
      15     H     0.42150  0.42150  0.00000  0.15701
      16     H     0.42404  0.42404  0.00000  0.15192
      17     C     3.15150  3.15150  0.00000 -0.30300
      18     H     0.42338  0.42338  0.00000  0.15325
      19     H     0.42412  0.42412  0.00000  0.15177
      20     C     3.23933  3.23933  0.00000 -0.47867
      21     H     0.42278  0.42278  0.00000  0.15444
      22     H     0.42343  0.42343  0.00000  0.15314
      23     H     0.41922  0.41922  0.00000  0.16157
      24     H     0.42156  0.42156  0.00000  0.15688
      25     H     0.42189  0.42189  0.00000  0.15622
      26     C     3.09240  3.09240  0.00000 -0.18480
      27     H     0.40907  0.40907  0.00000  0.18186
      28     H     0.40851  0.40851  0.00000  0.18298
      29     H     0.40911  0.40911  0.00000  0.18177

   Total alpha = 44.00000, Total beta = 44.00000, Total charge = -0.00000
