  ==> Input File <==

--------------------------------------------------------------------------
set {
	reference rhf
	basis cc-pvtz
}

set_num_threads( 4 )
memory 2 gb

molecule MOL {
0 1

O	 -1.278239	 1.034789	 -0.784693
C	 -1.204115	 0.062668	 -0.112312
C	 -2.386398	 -0.667698	 0.460323
O	 -0.068058	 -0.518372	 0.226882
H	 -2.382952	 -1.693172	 0.114333
H	 -3.296656	 -0.175702	 0.158400
H	 -2.312537	 -0.685191	 1.540100
C	 1.169086	 0.037484	 -0.230612
C	 2.073653	 0.115116	 0.982996
C	 0.920229	 1.390173	 -0.873193
H	 1.586186	 -0.638731	 -0.961262
H	 2.221021	 -0.866954	 1.413775
H	 3.040545	 0.513657	 0.700161
H	 1.645221	 0.760245	 1.740750
H	 1.857530	 1.818007	 -1.209237
H	 0.266717	 1.294372	 -1.728992
H	 0.469525	 2.071947	 -0.160919

	symmetry c1
}
set optking {
	frozen_dihedral = ("
		11 8 4 2
	")
}

ee = optimize('scf')
oeprop('DIPOLE', 'QUADRUPOLE', 'MULLIKEN_CHARGES')
f=open( 'psi4out.xyz', 'w' )
f.write( "17  " )
f.write( str(ee) + "\n" )
f.write( MOL.save_string_xyz() )
f.close()
--------------------------------------------------------------------------

    Molecular point group: c1
  Charge       = 0
  Multiplicity = 1
  Basis Set: CC-PVTZ
  Basis Set:
  @DF-RHF Final Energy:  -344.99908690894733
    Total Energy =                       -344.9990869089471630
    Molecular point group: c1
  Basis Set: CC-PVTZ
  Basis Set:
  Basis Set: CC-PVTZ
  Basis Set:
  @DF-RHF Final Energy:  -345.02416126246669
    Total Energy =                       -345.0241612624669187
  Basis Set: CC-PVTZ
  Basis Set:
  Basis Set: CC-PVTZ
  Basis Set:
  @DF-RHF Final Energy:  -345.02931009089582
    Total Energy =                       -345.0293100908957058
  Basis Set: CC-PVTZ
  Basis Set:
  Basis Set: CC-PVTZ
  Basis Set:
  @DF-RHF Final Energy:  -345.02562245891215
    Total Energy =                       -345.0256224589120393
  Basis Set: CC-PVTZ
  Basis Set:
  @DF-RHF Final Energy:  -345.03164404583509
    Total Energy =                       -345.0316440458349803
  Basis Set: CC-PVTZ
  Basis Set:
  @DF-RHF Final Energy:  -345.03186146744622
    Total Energy =                       -345.0318614674458786
  Basis Set: CC-PVTZ
  Basis Set:
  Basis Set: CC-PVTZ
  Basis Set:
  @DF-RHF Final Energy:  -345.03187474333521
    Total Energy =                       -345.0318747433353792
  Basis Set: CC-PVTZ
  Basis Set:
  Basis Set: CC-PVTZ
  Basis Set:
  @DF-RHF Final Energy:  -345.03187631917672
    Total Energy =                       -345.0318763191766038
  Basis Set: CC-PVTZ
  Basis Set:
  Charge       = 0
  Multiplicity = 1
  Basis Set: CC-PVTZ
  Basis Set:

    Orbital Energies (a.u.)
    -----------------------

    Doubly Occupied:

       1A    -20.588260     2A    -20.527271     3A    -11.367120
       4A    -11.295860     5A    -11.227604     6A    -11.218055
       7A    -11.210880     8A     -1.461239     9A     -1.363926
      10A     -1.081403    11A     -1.002655    12A     -0.946508
      13A     -0.864524    14A     -0.744101    15A     -0.689449
      16A     -0.681768    17A     -0.659055    18A     -0.614120
      19A     -0.586625    20A     -0.579911    21A     -0.559324
      22A     -0.547566    23A     -0.540347    24A     -0.516658
      25A     -0.507209    26A     -0.485597    27A     -0.441645
      28A     -0.431011

  @DF-RHF Final Energy:  -345.03187693370967

   => Energetics <=

    Nuclear Repulsion Energy =            323.8757761679642044
    One-Electron Energy =               -1112.3359240436457185
    Two-Electron Energy =                 443.4282709419716753
    DFT Exchange-Correlation Energy =       0.0000000000000000
    Empirical Dispersion Energy =           0.0000000000000000
    PCM Polarization Energy =               0.0000000000000000
    EFP Energy =                            0.0000000000000000
    Total Energy =                       -345.0318769337098388
    Molecular point group: c1
  Basis Set: CC-PVTZ
  Basis Set:

  -Total Gradient:
     Atom            X                  Y                   Z
    ------   -----------------  -----------------  -----------------
       1       -0.000025209803     0.000036195743    -0.000048667988
       2        0.000065440754     0.001421822859     0.002090092682
       3        0.000003565538     0.000039714858     0.000060567801
       4        0.000219858746    -0.002507995462    -0.002884137979
       5       -0.000009900276    -0.000021094427    -0.000020492732
       6        0.000013872727    -0.000004884311    -0.000007540451
       7       -0.000002134200    -0.000026883815    -0.000000278103
       8       -0.001326104855     0.002310329698    -0.001069727151
       9       -0.000048152398    -0.000037311865     0.000019154661
      10       -0.000042146812     0.000059117470    -0.000017966426
      11        0.001116837728    -0.001250240432     0.001887062179
      12        0.000015872576    -0.000005600795     0.000027613381
      13       -0.000026625047    -0.000009107557    -0.000011204607
      14        0.000005729615    -0.000002319922     0.000000141508
      15        0.000016106962     0.000002067711    -0.000005455588
      16        0.000005734299     0.000001158094    -0.000018646824
      17        0.000017254445    -0.000004967848    -0.000000514361

  **** Optimization is complete! (in 9 steps) ****
    Final optimized geometry and variables:
    Molecular point group: c1

    Geometry (in Angstrom), charge = 0, multiplicity = 1:

    O           -1.424888401598     0.708182756788    -0.812683279368
    C           -1.169718462447    -0.186441917629    -0.082288740328
    C           -2.211260111682    -0.992399724869     0.648194288107
    O            0.037591736005    -0.634766519757     0.203472913412
    H           -2.115836716057    -2.036998340800     0.381656912856
    H           -3.193261000292    -0.630906970143     0.389577081849
    H           -2.052606394075    -0.910425628127     1.715723233972
    C            1.305397224473    -0.089082591136    -0.200268099473
    C            2.169534148273    -0.132521851712     1.049303058103
    C            1.297301500551     1.293620951338    -0.830542779221
    H            1.700660703451    -0.806027790682    -0.909151512365
    H            2.155620749947    -1.121819103107     1.487209201789
    H            3.193694627161     0.121115714562     0.803845711205
    H            1.808570411598     0.574571160110     1.787335582339
    H            2.331069132066     1.568732646930    -1.009136124751
    H            0.764963116045     1.318324467589    -1.766002123396
    H            0.859103593870     2.030213454884    -0.170770983458

  Mulliken Charges: (a.u.)
   Center  Symbol    Alpha    Beta     Spin     Total
       1     O     4.19816  4.19816  0.00000 -0.39633
       2     C     2.80932  2.80932  0.00000  0.38136
       3     C     3.13545  3.13545  0.00000 -0.27091
       4     O     4.16229  4.16229  0.00000 -0.32459
       5     H     0.44601  0.44601  0.00000  0.10797
       6     H     0.43907  0.43907  0.00000  0.12186
       7     H     0.44736  0.44736  0.00000  0.10528
       8     C     2.93750  2.93750  0.00000  0.12499
       9     C     3.13850  3.13850  0.00000 -0.27700
      10     C     3.15453  3.15453  0.00000 -0.30907
      11     H     0.44753  0.44753  0.00000  0.10494
      12     H     0.44555  0.44555  0.00000  0.10890
      13     H     0.45437  0.45437  0.00000  0.09127
      14     H     0.45362  0.45362  0.00000  0.09276
      15     H     0.45229  0.45229  0.00000  0.09543
      16     H     0.43228  0.43228  0.00000  0.13545
      17     H     0.44616  0.44616  0.00000  0.10768

   Total alpha = 28.00000, Total beta = 28.00000, Total charge = -0.00000
