                              Psi4 1.0.54 Driver

  ==> Input File <==

--------------------------------------------------------------------------
set {
	reference rhf
	basis cc-pvtz
}

set_num_threads( 4 )
memory 2 gb

molecule MOL {
0 1

O	 -2.490765	 -1.024006	 0.025486
C	 -1.949501	 0.016048	 0.188042
C	 -2.655276	 1.331767	 0.358969
O	 -0.637375	 0.157174	 0.243149
H	 -2.344786	 2.014807	 -0.421268
H	 -3.721183	 1.178308	 0.315024
H	 -2.380293	 1.771353	 1.309083
C	 0.162530	 -1.009518	 0.097799
C	 1.587210	 -0.664190	 0.477086
H	 0.096803	 -1.356267	 -0.924704
H	 -0.233803	 -1.785900	 0.736810
C	 2.256770	 0.342732	 -0.454344
H	 2.154716	 -1.590834	 0.479041
H	 1.598751	 -0.289614	 1.496104
C	 3.698146	 0.643205	 -0.057145
H	 2.235038	 -0.042575	 -1.470299
H	 1.683491	 1.262594	 -0.461300
H	 4.150202	 1.356548	 -0.736242
H	 4.305463	 -0.255904	 -0.069842
H	 3.749130	 1.061068	 0.942759

	symmetry c1
}
set optking {
	frozen_dihedral = ("
		2 4 8 10
	")
}

ee,wfn = optimize('scf', return_wfn=True)
oeprop( wfn, 'DIPOLE', 'QUADRUPOLE', 'MULLIKEN_CHARGES')
f=open( 'psi4out.xyz', 'w' )
f.write( "20  " )
f.write( str(ee) + "\n" )
f.write( MOL.save_string_xyz() )
f.close()
--------------------------------------------------------------------------

    Molecular point group: c1
  Charge       = 0
  Multiplicity = 1
  Basis Set: CC-PVTZ
  Basis Set:
  @DF-RHF Final Energy:  -384.08731160944376
    Total Energy =                       -384.0873116094439865
    Molecular point group: c1
  Basis Set: CC-PVTZ
  Basis Set:
  Basis Set: CC-PVTZ
  Basis Set:
  @DF-RHF Final Energy:  -384.08729932239919
    Total Energy =                       -384.0872993223990761
  Basis Set: CC-PVTZ
  Basis Set:
  Basis Set: CC-PVTZ
  Basis Set:
  @DF-RHF Final Energy:  -384.08715096841752
    Total Energy =                       -384.0871509684177454
  Basis Set: CC-PVTZ
  Basis Set:
  Basis Set: CC-PVTZ
  Basis Set:
  @DF-RHF Final Energy:  -384.08734461923922
    Total Energy =                       -384.0873446192399570
  Basis Set: CC-PVTZ
  Basis Set:
  Basis Set: CC-PVTZ
  Basis Set:
  @DF-RHF Final Energy:  -384.08734727685663
    Total Energy =                       -384.0873472768569172
  Basis Set: CC-PVTZ
  Basis Set:
  Charge       = 0
  Multiplicity = 1
  Basis Set: CC-PVTZ
  Basis Set:

    Orbital Energies (a.u.)
    -----------------------

    Doubly Occupied:

       1A    -20.594308     2A    -20.532602     3A    -11.366814
       4A    -11.280148     5A    -11.231655     6A    -11.223522
       7A    -11.218724     8A    -11.211567     9A     -1.470858
      10A     -1.365284    11A     -1.087230    12A     -1.029256
      13A     -0.982255    14A     -0.881255    15A     -0.813349
      16A     -0.775384    17A     -0.693101    18A     -0.687669
      19A     -0.669339    20A     -0.632359    21A     -0.601510
      22A     -0.594015    23A     -0.572653    24A     -0.553321
      25A     -0.546005    26A     -0.531939    27A     -0.514378
      28A     -0.485713    29A     -0.475464    30A     -0.470539
      31A     -0.452972    32A     -0.441844

  @DF-RHF Final Energy:  -384.08734730155601

   => Energetics <=

    Nuclear Repulsion Energy =            385.3336833034712186
    One-Electron Energy =               -1286.8679947551568148
    Two-Electron Energy =                 517.4469641501293609
    DFT Exchange-Correlation Energy =       0.0000000000000000
    Empirical Dispersion Energy =           0.0000000000000000
    PCM Polarization Energy =               0.0000000000000000
    EFP Energy =                            0.0000000000000000
    Total Energy =                       -384.0873473015562922
    Molecular point group: c1
  Basis Set: CC-PVTZ
  Basis Set:

  -Total Gradient:
     Atom            X                  Y                   Z
    ------   -----------------  -----------------  -----------------
       1       -0.000003272163    -0.000001022338     0.000006340849
       2       -0.000014883242    -0.000140137346     0.000914179942
       3        0.000007477765    -0.000006922819     0.000008447036
       4        0.000257195717     0.000347891493    -0.001379471747
       5       -0.000000509357     0.000000129422    -0.000002104578
       6        0.000004107321    -0.000003340906    -0.000001458312
       7        0.000000560204     0.000002620420    -0.000002042568
       8       -0.001068444516    -0.000813629917     0.000693641170
       9       -0.000009762358     0.000010060825     0.000007991073
      10        0.000840747288     0.000602255422    -0.000249387359
      11       -0.000007377783     0.000003738970     0.000004618855
      12       -0.000000115242    -0.000008807118    -0.000004988509
      13       -0.000008308264    -0.000001297888    -0.000003865943
      14        0.000006837935     0.000000599700     0.000004176461
      15       -0.000001624054     0.000005628904     0.000006192976
      16       -0.000000469376    -0.000001257969    -0.000000876787
      17       -0.000002004771     0.000001926336    -0.000003286043
      18       -0.000001023958     0.000001136607     0.000001557229
      19       -0.000001991775     0.000000498232    -0.000002259817
      20        0.000002860624    -0.000000070030     0.000002596074

  **** Optimization is complete! (in 6 steps) ****
    Final optimized geometry and variables:
    Molecular point group: c1

    Geometry (in Angstrom), charge = 0, multiplicity = 1:

    O           -2.482306203065    -0.991208983320    -0.119408008288
    C           -1.935774007451     0.041674294263     0.068642425490
    C           -2.634951237737     1.358075052388     0.258311019746
    O           -0.623254863755     0.174685390620     0.135304399891
    H           -2.313341481439     2.052946778845    -0.506795386460
    H           -3.701363364282     1.212234481906     0.202309104555
    H           -2.365268150922     1.778359907151     1.218543342843
    C            0.174561335572    -0.994527964482    -0.002453195267
    C            1.600815677865    -0.648793068715     0.372277478723
    H            0.114348116261    -1.338008989737    -1.027442708259
    H           -0.221392431086    -1.769375089455     0.636203634104
    C            2.266402568094     0.362115238183    -0.557540881530
    H            2.169312969988    -1.574848032398     0.368478987692
    H            1.615484215294    -0.278042367314     1.392675504854
    C            3.705868741069     0.668853607556    -0.158676129294
    H            2.247532786116    -0.022338619020    -1.573902011659
    H            1.688738315973     1.279077085183    -0.564299765493
    H            4.154901707538     1.385793961578    -0.835974376608
    H            4.317457953119    -0.227291526377    -0.172734729640
    H            3.754018319988     1.084911281811     0.842111335664

  Mulliken Charges: (a.u.)
   Center  Symbol    Alpha    Beta     Spin     Total
       1     O     4.19748  4.19748  0.00000 -0.39497
       2     C     2.80832  2.80832  0.00000  0.38335
       3     C     3.13885  3.13885  0.00000 -0.27770
       4     O     4.15351  4.15351  0.00000 -0.30702
       5     H     0.44581  0.44581  0.00000  0.10838
       6     H     0.43775  0.43775  0.00000  0.12449
       7     H     0.44596  0.44596  0.00000  0.10808
       8     C     2.99290  2.99290  0.00000  0.01419
       9     C     3.08456  3.08456  0.00000 -0.16912
      10     H     0.45353  0.45353  0.00000  0.09294
      11     H     0.44204  0.44204  0.00000  0.11593
      12     C     3.08615  3.08615  0.00000 -0.17231
      13     H     0.45180  0.45180  0.00000  0.09641
      14     H     0.45195  0.45195  0.00000  0.09610
      15     C     3.15006  3.15006  0.00000 -0.30013
      16     H     0.45530  0.45530  0.00000  0.08940
      17     H     0.44681  0.44681  0.00000  0.10637
      18     H     0.44742  0.44742  0.00000  0.10516
      19     H     0.45543  0.45543  0.00000  0.08913
      20     H     0.45434  0.45434  0.00000  0.09132

   Total alpha = 32.00000, Total beta = 32.00000, Total charge = -0.00000

*** Psi4 exiting successfully. Buy a developer a beer!
