                              Psi4 1.0.54 Driver

  ==> Input File <==

--------------------------------------------------------------------------
set {
	reference rhf
	basis cc-pvtz
}

set_num_threads( 4 )
memory 2 gb

molecule MOL {
0 1

H	 -2.065796	 -0.729479	 -0.556332
O	 -2.041679	 -0.058866	 0.103463
C	 -0.959304	 0.780994	 -0.094939
C	 0.354905	 0.037902	 -0.006215
H	 -0.985899	 1.279578	 -1.057596
H	 -0.969809	 1.529522	 0.682889
F	 0.412060	 -0.931028	 -0.902708
F	 1.359641	 0.856111	 -0.239961
F	 0.545380	 -0.506387	 1.171682

	symmetry c1
}
set optking {
	frozen_dihedral = ("
		1 2 3 5
	")
}

ee,wfn = optimize('scf', return_wfn=True)
oeprop( wfn, 'DIPOLE', 'QUADRUPOLE', 'MULLIKEN_CHARGES')
f=open( 'psi4out.xyz', 'w' )
f.write( "9  " )
f.write( str(ee) + "\n" )
f.write( MOL.save_string_xyz() )
f.close()
--------------------------------------------------------------------------

    Molecular point group: c1
  Charge       = 0
  Multiplicity = 1
  Basis Set: CC-PVTZ
  Basis Set:
  @DF-RHF Final Energy:  -450.84719417140059
    Total Energy =                       -450.8471941714003606
    Molecular point group: c1
  Basis Set: CC-PVTZ
  Basis Set:
  Basis Set: CC-PVTZ
  Basis Set:
  @DF-RHF Final Energy:  -450.84719998233777
    Total Energy =                       -450.8471999823374858
  Basis Set: CC-PVTZ
  Basis Set:
  Basis Set: CC-PVTZ
  Basis Set:
  @DF-RHF Final Energy:  -450.84720108285330
    Total Energy =                       -450.8472010828534167
  Basis Set: CC-PVTZ
  Basis Set:
  Charge       = 0
  Multiplicity = 1
  Basis Set: CC-PVTZ
  Basis Set:

    Orbital Energies (a.u.)
    -----------------------

    Doubly Occupied:

       1A    -26.341012     2A    -26.340482     3A    -26.336621
       4A    -20.583599     5A    -11.494865     6A    -11.309968
       7A     -1.748908     8A     -1.646119     9A     -1.643834
      10A     -1.407111    11A     -1.050947    12A     -0.930619
      13A     -0.838892    14A     -0.837267    15A     -0.813643
      16A     -0.730930    17A     -0.719894    18A     -0.702803
      19A     -0.672669    20A     -0.667058    21A     -0.650373
      22A     -0.632954    23A     -0.621982    24A     -0.533285
      25A     -0.484764

  @DF-RHF Final Energy:  -450.84720116315424

   => Energetics <=

    Nuclear Repulsion Energy =            277.7762844031042846
    One-Electron Energy =               -1177.7657693196883884
    Two-Electron Energy =                 449.1422837534298083
    DFT Exchange-Correlation Energy =       0.0000000000000000
    Empirical Dispersion Energy =           0.0000000000000000
    PCM Polarization Energy =               0.0000000000000000
    EFP Energy =                            0.0000000000000000
    Total Energy =                       -450.8472011631543523
    Molecular point group: c1
  Basis Set: CC-PVTZ
  Basis Set:

  -Total Gradient:
     Atom            X                  Y                   Z
    ------   -----------------  -----------------  -----------------
       1        0.000427557727    -0.000458391827     0.000437082355
       2       -0.000644997087     0.000708967073    -0.000455190547
       3        0.000564676213    -0.000776062399    -0.000266086862
       4       -0.000039622224    -0.000024677229     0.000010123646
       5       -0.000337621741     0.000513975025     0.000280142543
       6        0.000004737657     0.000003171067     0.000001694171
       7        0.000006856251     0.000022931177     0.000037614933
       8        0.000025637524     0.000020496689    -0.000019545539
       9       -0.000007224325    -0.000010409578    -0.000025834700

  **** Optimization is complete! (in 4 steps) ****
    Final optimized geometry and variables:
    Molecular point group: c1

    Geometry (in Angstrom), charge = 0, multiplicity = 1:

    H           -2.073702056188    -0.718413996381    -0.563200525818
    O           -2.044195807316    -0.050527618725     0.099480467245
    C           -0.957035508681     0.783586048126    -0.097025680342
    C            0.355069962112     0.037874981839    -0.006102665055
    H           -0.983064155257     1.286039184892    -1.057850422528
    H           -0.966824244296     1.531334179464     0.681641496547
    F            0.406391367828    -0.938324677927    -0.895678643659
    F            1.361847236518     0.850368600793    -0.248010720345
    F            0.546450615801    -0.499710742695     1.174908773276

  Mulliken Charges: (a.u.)
   Center  Symbol    Alpha    Beta     Spin     Total
       1     H     0.38656  0.38656  0.00000  0.22689
       2     O     4.19262  4.19262  0.00000 -0.38524
       3     C     2.98840  2.98840  0.00000  0.02320
       4     C     2.68503  2.68503  0.00000  0.62994
       5     H     0.46253  0.46253  0.00000  0.07493
       6     H     0.44811  0.44811  0.00000  0.10378
       7     F     4.61780  4.61780  0.00000 -0.23559
       8     F     4.61157  4.61157  0.00000 -0.22313
       9     F     4.60738  4.60738  0.00000 -0.21477

   Total alpha = 25.00000, Total beta = 25.00000, Total charge = -0.00000

*** Psi4 exiting successfully. Buy a developer a beer!
