                              Psi4 1.0.54 Driver

  ==> Input File <==

--------------------------------------------------------------------------
set {
	reference rhf
	basis cc-pvtz
}

set_num_threads( 4 )
memory 2 gb

molecule MOL {
0 1

O	 -0.694481	 1.313155	 -0.204815
C	 -0.862519	 0.151932	 -0.046791
C	 -2.171428	 -0.477048	 0.339095
O	 0.085519	 -0.757083	 -0.192238
H	 -2.467997	 -1.191667	 -0.417688
H	 -2.923379	 0.287970	 0.444097
H	 -2.053854	 -1.015120	 1.270901
C	 1.392036	 -0.330828	 -0.560749
C	 1.484403	 1.178294	 -0.649729
H	 1.666035	 -0.793020	 -1.496227
H	 2.033954	 -0.710040	 0.220207
H	 2.506667	 1.467434	 -0.866120
H	 0.849649	 1.558561	 -1.438315
H	 1.192529	 1.635464	 0.288033

	symmetry c1
}
set optking {
	frozen_dihedral = ("
		10 8 4 2
	")
}

ee,wfn = optimize('scf', return_wfn=True)
oeprop( wfn, 'DIPOLE', 'QUADRUPOLE', 'MULLIKEN_CHARGES')
f=open( 'psi4out.xyz', 'w' )
f.write( "14  " )
f.write( str(ee) + "\n" )
f.write( MOL.save_string_xyz() )
f.close()
--------------------------------------------------------------------------

    Molecular point group: c1
  Charge       = 0
  Multiplicity = 1
  Basis Set: CC-PVTZ
  Basis Set:
  @DF-RHF Final Energy:  -305.94883690147270
    Total Energy =                       -305.9488369014729869
    Molecular point group: c1
  Basis Set: CC-PVTZ
  Basis Set:
  Basis Set: CC-PVTZ
  Basis Set:
  @DF-RHF Final Energy:  -305.92656722472998
    Total Energy =                       -305.9265672247297516
  Basis Set: CC-PVTZ
  Basis Set:
  Basis Set: CC-PVTZ
  Basis Set:
  @DF-RHF Final Energy:  -305.95457878179349
    Total Energy =                       -305.9545787817934297
  Basis Set: CC-PVTZ
  Basis Set:
  Basis Set: CC-PVTZ
  Basis Set:
  @DF-RHF Final Energy:  -305.96522326071022
    Total Energy =                       -305.9652232607099904
  Basis Set: CC-PVTZ
  Basis Set:
  @DF-RHF Final Energy:  -305.97847573582112
    Total Energy =                       -305.9784757358210072
  @DF-RHF Final Energy:  -305.97912903929199
    Total Energy =                       -305.9791290392919905
  @DF-RHF Final Energy:  -305.97959030471003
    Total Energy =                       -305.9795903047102001
  Basis Set: CC-PVTZ
  Basis Set:
  @DF-RHF Final Energy:  -305.97962293705177
    Total Energy =                       -305.9796229370517722
  Basis Set: CC-PVTZ
  Basis Set:
  Basis Set: CC-PVTZ
  Basis Set:
  @DF-RHF Final Energy:  -305.97962606194147
    Total Energy =                       -305.9796260619416444
  Basis Set: CC-PVTZ
  Basis Set:
  Basis Set: CC-PVTZ
  Basis Set:
  @DF-RHF Final Energy:  -305.97962746470876
    Total Energy =                       -305.9796274647085284
  Basis Set: CC-PVTZ
  Basis Set:
  Charge       = 0
  Multiplicity = 1
  Basis Set: CC-PVTZ
  Basis Set:

    Orbital Energies (a.u.)
    -----------------------

    Doubly Occupied:

       1A    -20.591221     2A    -20.528252     3A    -11.368310
       4A    -11.290163     5A    -11.228456     6A    -11.213960
       7A     -1.463210     8A     -1.364923     9A     -1.056320
      10A     -0.996374    11A     -0.894808    12A     -0.748364
      13A     -0.687797    14A     -0.684909    15A     -0.674536
      16A     -0.610598    17A     -0.588928    18A     -0.569076
      19A     -0.548229    20A     -0.536061    21A     -0.516894
      22A     -0.496661    23A     -0.444416    24A     -0.433355

  @DF-RHF Final Energy:  -305.97962796205576

   => Energetics <=

    Nuclear Repulsion Energy =            249.0278268909819985
    One-Electron Energy =                -910.9432643784704169
    Two-Electron Energy =                 355.9358095254327736
    DFT Exchange-Correlation Energy =       0.0000000000000000
    Empirical Dispersion Energy =           0.0000000000000000
    PCM Polarization Energy =               0.0000000000000000
    EFP Energy =                            0.0000000000000000
    Total Energy =                       -305.9796279620555879
    Molecular point group: c1
  Basis Set: CC-PVTZ
  Basis Set:

  -Total Gradient:
     Atom            X                  Y                   Z
    ------   -----------------  -----------------  -----------------
       1        0.000066087055    -0.000017759023    -0.000011220168
       2        0.000058119205     0.000700492872     0.000669408056
       3        0.000021024290     0.000078099177     0.000042475166
       4       -0.000048352531    -0.001090213456    -0.000965149860
       5       -0.000002006357    -0.000028134789    -0.000023183701
       6        0.000003409835    -0.000005291789     0.000001773595
       7       -0.000002778822    -0.000020565057    -0.000023486004
       8       -0.000869181520     0.000472763283    -0.000305169094
       9       -0.000006190933     0.000021136578    -0.000001810624
      10        0.000809123799    -0.000085465904     0.000595913312
      11       -0.000007995511    -0.000002798043    -0.000004757863
      12       -0.000020951246    -0.000014118108     0.000016510836
      13       -0.000003572436    -0.000001492753     0.000012180188
      14        0.000003265171    -0.000006652989    -0.000003483843

  **** Optimization is complete! (in 11 steps) ****
    Final optimized geometry and variables:
    Molecular point group: c1

    Geometry (in Angstrom), charge = 0, multiplicity = 1:

    O           -1.354521091409     0.377665396612    -0.081301612667
    C           -0.605004184519    -0.336275942989     0.490388942894
    C           -1.009583921753    -1.248781970675     1.617332427127
    O            0.685126229084    -0.460897495213     0.243153744500
    H           -0.781224715910    -2.273634215815     1.354623448838
    H           -2.064986496661    -1.140239620865     1.807489811359
    H           -0.442522722053    -1.003699591665     2.505937484691
    C            1.458211980312     0.261178079644    -0.717850898089
    C            0.807628598708     1.373944949014    -1.517731926504
    H            1.858593193959    -0.490842153090    -1.384042477692
    H            2.286510327421     0.662679863249    -0.150514457496
    H            1.587801938546     1.798793472323    -2.141715003932
    H            0.012672440506     1.017224338889    -2.152653917966
    H            0.412586644336     2.154554964549    -0.885411238360

  Mulliken Charges: (a.u.)
   Center  Symbol    Alpha    Beta     Spin     Total
       1     O     4.19745  4.19745  0.00000 -0.39489
       2     C     2.80673  2.80673  0.00000  0.38654
       3     C     3.13435  3.13435  0.00000 -0.26869
       4     O     4.15589  4.15589  0.00000 -0.31179
       5     H     0.44636  0.44636  0.00000  0.10727
       6     H     0.43911  0.43911  0.00000  0.12179
       7     H     0.44681  0.44681  0.00000  0.10637
       8     C     2.98116  2.98116  0.00000  0.03767
       9     C     3.14804  3.14804  0.00000 -0.29607
      10     H     0.45375  0.45375  0.00000  0.09250
      11     H     0.45301  0.45301  0.00000  0.09398
      12     H     0.45276  0.45276  0.00000  0.09447
      13     H     0.44070  0.44070  0.00000  0.11860
      14     H     0.44388  0.44388  0.00000  0.11225

   Total alpha = 24.00000, Total beta = 24.00000, Total charge = -0.00000

*** Psi4 exiting successfully. Buy a developer a beer!
