                              Psi4 1.0.54 Driver

  ==> Input File <==

--------------------------------------------------------------------------
set {
	reference rhf
	basis cc-pvtz
}

set_num_threads( 4 )
memory 2 gb

molecule MOL {
0 1

H	 -2.209894	 0.700117	 2.374260
C	 -1.659297	 0.116345	 3.108384
O	 -0.432634	 -0.300933	 2.609670
H	 -1.471315	 0.734648	 3.973978
H	 -2.276849	 -0.727947	 3.409524
C	 -0.517204	 -1.120138	 1.490121
C	 0.867018	 -1.424733	 0.974856
H	 -1.013101	 -2.056799	 1.744523
H	 -1.093636	 -0.638407	 0.703297
O	 1.401606	 -0.295166	 0.366636
H	 1.493500	 -1.748935	 1.803013
H	 0.804792	 -2.244739	 0.259531
C	 2.714315	 -0.441627	 -0.061017
H	 2.765292	 -0.641548	 -1.128869
H	 3.305661	 0.447341	 0.150952
H	 3.143725	 -1.278506	 0.470147

	symmetry c1
}
set optking {
	frozen_dihedral = ("
		7 10 13 14
	")
}

ee,wfn = optimize('scf', return_wfn=True)
oeprop( wfn, 'DIPOLE', 'QUADRUPOLE', 'MULLIKEN_CHARGES')
f=open( 'psi4out.xyz', 'w' )
f.write( "16  " )
f.write( str(ee) + "\n" )
f.write( MOL.save_string_xyz() )
f.close()
--------------------------------------------------------------------------

    Molecular point group: c1
  Charge       = 0
  Multiplicity = 1
  Basis Set: CC-PVTZ
  Basis Set:
  @DF-RHF Final Energy:  -307.09399520043064
    Total Energy =                       -307.0939952004304132
    Molecular point group: c1
  Basis Set: CC-PVTZ
  Basis Set:
  Basis Set: CC-PVTZ
  Basis Set:
  @DF-RHF Final Energy:  -307.09494464952337
    Total Energy =                       -307.0949446495234270
  Basis Set: CC-PVTZ
  Basis Set:
  Basis Set: CC-PVTZ
  Basis Set:
  @DF-RHF Final Energy:  -307.09524567621600
    Total Energy =                       -307.0952456762159386
  Basis Set: CC-PVTZ
  Basis Set:
  Basis Set: CC-PVTZ
  Basis Set:
  @DF-RHF Final Energy:  -307.09524861706711
    Total Energy =                       -307.0952486170672842
  Basis Set: CC-PVTZ
  Basis Set:
  Charge       = 0
  Multiplicity = 1
  Basis Set: CC-PVTZ
  Basis Set:

    Orbital Energies (a.u.)
    -----------------------

    Doubly Occupied:

       1A    -20.547510     2A    -20.545192     3A    -11.267738
       4A    -11.266670     5A    -11.261408     6A    -11.261102
       7A     -1.390051     8A     -1.372295     9A     -1.031894
      10A     -0.937358    11A     -0.892091    12A     -0.824016
      13A     -0.685083    14A     -0.681518    15A     -0.658973
      16A     -0.637136    17A     -0.630595    18A     -0.597768
      19A     -0.553694    20A     -0.537137    21A     -0.509249
      22A     -0.479316    23A     -0.464032    24A     -0.421566
      25A     -0.410960

  @DF-RHF Final Energy:  -307.09524883169559

   => Energetics <=

    Nuclear Repulsion Energy =            258.7016045825397441
    One-Electron Energy =                -931.8649980765817418
    Two-Electron Energy =                 366.0681446623462989
    DFT Exchange-Correlation Energy =       0.0000000000000000
    Empirical Dispersion Energy =           0.0000000000000000
    PCM Polarization Energy =               0.0000000000000000
    EFP Energy =                            0.0000000000000000
    Total Energy =                       -307.0952488316956988
    Molecular point group: c1
  Basis Set: CC-PVTZ
  Basis Set:

  -Total Gradient:
     Atom            X                  Y                   Z
    ------   -----------------  -----------------  -----------------
       1        0.000000496800    -0.000000945008    -0.000000220612
       2       -0.000000989434     0.000003317214     0.000005029141
       3        0.000001549289    -0.000003508154    -0.000001831209
       4       -0.000002321938     0.000000760291     0.000000923214
       5        0.000000462819    -0.000000035503    -0.000000867705
       6        0.000005870399     0.000004555200    -0.000009253791
       7        0.000675479337     0.000655836753     0.001861056279
       8        0.000003355798    -0.000000791110    -0.000001138003
       9        0.000000515065    -0.000001984928    -0.000001795852
      10       -0.000951232849    -0.000258460439    -0.002778040258
      11        0.000001832797    -0.000001005606     0.000002436199
      12        0.000001207660     0.000011142733    -0.000002100558
      13        0.000165656609    -0.002921482930     0.001382836720
      14        0.000078581994     0.002518910861    -0.000458350322
      15        0.000010790808    -0.000002942995    -0.000001076663
      16        0.000008744846    -0.000003366377     0.000002393421

  **** Optimization is complete! (in 5 steps) ****
    Final optimized geometry and variables:
    Molecular point group: c1

    Geometry (in Angstrom), charge = 0, multiplicity = 1:

    H           -2.594503076615     1.279506813044     0.970893344437
    C           -2.037229623537     0.702483380370     1.705306778425
    O           -0.817434499533     0.276205419534     1.197568439524
    H           -1.837925730702     1.329919867241     2.561759097566
    H           -2.653663438301    -0.136634957849     2.022846946047
    C           -0.916771157620    -0.555017345947     0.088141245471
    C            0.460783545599    -0.868917581900    -0.439505099350
    H           -1.411270280602    -1.487958368825     0.358746767443
    H           -1.501624710187    -0.080910487971    -0.696986569553
    O            0.991393776112     0.257744673927    -1.057995487623
    H            1.093510920335    -1.188797060198     0.384460616996
    H            0.383968655727    -1.694943783592    -1.146516313713
    C            2.305631206046     0.143361187262    -1.504330227185
    H            2.336582573090    -0.053148565220    -2.572355197411
    H            2.811390151723     1.082933166883    -1.323025682496
    H            2.846229693941    -0.640919201989    -0.984311192858

  Mulliken Charges: (a.u.)
   Center  Symbol    Alpha    Beta     Spin     Total
       1     H     0.47018  0.47018  0.00000  0.05964
       2     C     3.03202  3.03202  0.00000 -0.06404
       3     O     4.17031  4.17031  0.00000 -0.34063
       4     H     0.44644  0.44644  0.00000  0.10711
       5     H     0.47374  0.47374  0.00000  0.05253
       6     C     2.96273  2.96273  0.00000  0.07454
       7     C     2.95931  2.95931  0.00000  0.08138
       8     H     0.47623  0.47623  0.00000  0.04754
       9     H     0.47094  0.47094  0.00000  0.05812
      10     O     4.17379  4.17379  0.00000 -0.34757
      11     H     0.46946  0.46946  0.00000  0.06109
      12     H     0.47706  0.47706  0.00000  0.04588
      13     C     3.02846  3.02846  0.00000 -0.05693
      14     H     0.46437  0.46437  0.00000  0.07125
      15     H     0.45136  0.45136  0.00000  0.09727
      16     H     0.47359  0.47359  0.00000  0.05281

   Total alpha = 25.00000, Total beta = 25.00000, Total charge = -0.00000

*** Psi4 exiting successfully. Buy a developer a beer!
