                              Psi4 1.0.54 Driver

  ==> Input File <==

--------------------------------------------------------------------------
set {
	reference rhf
	basis cc-pvtz
}

set_num_threads( 4 )
memory 2 gb

molecule MOL {
0 1

H	 0.783255	 4.434219	 1.535233
N	 -0.028966	 3.860276	 1.454587
C	 0.274873	 2.616441	 0.764648
H	 -0.713553	 4.387467	 0.953830
C	 -0.945883	 1.709667	 0.717315
H	 1.068676	 2.119297	 1.312035
H	 0.644851	 2.773270	 -0.249490
C	 -0.678115	 0.376691	 0.025731
H	 -1.289945	 1.540706	 1.732440
H	 -1.752320	 2.227246	 0.201315
C	 -1.900706	 -0.535531	 -0.022488
H	 0.130616	 -0.138542	 0.538998
H	 -0.327840	 0.556922	 -0.988023
C	 -3.220513	 0.226854	 0.028039
H	 -1.865036	 -1.134397	 -0.928236
H	 -1.857948	 -1.236381	 0.806820
H	 -3.309098	 0.911849	 -0.808725
H	 -4.066838	 -0.449485	 -0.008086
H	 -3.301685	 0.809374	 0.939860

	symmetry c1
}
set optking {
	frozen_dihedral = ("
		12 8 11 15
	")
}

ee,wfn = optimize('scf', return_wfn=True)
oeprop( wfn, 'DIPOLE', 'QUADRUPOLE', 'MULLIKEN_CHARGES')
f=open( 'psi4out.xyz', 'w' )
f.write( "19  " )
f.write( str(ee) + "\n" )
f.write( MOL.save_string_xyz() )
f.close()
--------------------------------------------------------------------------

    Molecular point group: c1
  Charge       = 0
  Multiplicity = 1
  Basis Set: CC-PVTZ
  Basis Set:
  @DF-RHF Final Energy:  -251.43861540714713
    Total Energy =                       -251.4386154071469264
    Molecular point group: c1
  Basis Set: CC-PVTZ
  Basis Set:
  Basis Set: CC-PVTZ
  Basis Set:
  @DF-RHF Final Energy:  -251.41467850996131
    Total Energy =                       -251.4146785099612202
  Basis Set: CC-PVTZ
  Basis Set:
  Basis Set: CC-PVTZ
  Basis Set:
  @DF-RHF Final Energy:  -251.44023812342522
    Total Energy =                       -251.4402381234252744
  Basis Set: CC-PVTZ
  Basis Set:
  Basis Set: CC-PVTZ
  Basis Set:
  @DF-RHF Final Energy:  -251.44135236441932
    Total Energy =                       -251.4413523644195720
  Basis Set: CC-PVTZ
  Basis Set:
  Basis Set: CC-PVTZ
  Basis Set:
  @DF-RHF Final Energy:  -251.44142751960575
    Total Energy =                       -251.4414275196058384
  Basis Set: CC-PVTZ
  Basis Set:
  Basis Set: CC-PVTZ
  Basis Set:
  @DF-RHF Final Energy:  -251.44144834210366
    Total Energy =                       -251.4414483421037403
  Basis Set: CC-PVTZ
  Basis Set:
  Basis Set: CC-PVTZ
  Basis Set:
  @DF-RHF Final Energy:  -251.44145240753431
    Total Energy =                       -251.4414524075343706
  Basis Set: CC-PVTZ
  Basis Set:
  Charge       = 0
  Multiplicity = 1
  Basis Set: CC-PVTZ
  Basis Set:

    Orbital Energies (a.u.)
    -----------------------

    Doubly Occupied:

       1A    -15.526162     2A    -11.237529     3A    -11.212640
       4A    -11.211051     5A    -11.206808     6A    -11.204185
       7A     -1.177930     8A     -1.071381     9A     -0.995218
      10A     -0.904694    11A     -0.826174    12A     -0.771110
      13A     -0.666560    14A     -0.636537    15A     -0.617278
      16A     -0.602325    17A     -0.569612    18A     -0.542774
      19A     -0.522889    20A     -0.506893    21A     -0.487861
      22A     -0.455701    23A     -0.453132    24A     -0.451337
      25A     -0.383601

  @DF-RHF Final Energy:  -251.44145257355837

   => Energetics <=

    Nuclear Repulsion Energy =            249.9755095438540025
    One-Electron Energy =                -834.3511591701073939
    Two-Electron Energy =                 332.9341970526949126
    DFT Exchange-Correlation Energy =       0.0000000000000000
    Empirical Dispersion Energy =           0.0000000000000000
    PCM Polarization Energy =               0.0000000000000000
    EFP Energy =                            0.0000000000000000
    Total Energy =                       -251.4414525735584220
    Molecular point group: c1
  Basis Set: CC-PVTZ
  Basis Set:

  -Total Gradient:
     Atom            X                  Y                   Z
    ------   -----------------  -----------------  -----------------
       1       -0.000001496930    -0.000006269744    -0.000002776525
       2        0.000004986866    -0.000018402311     0.000005377419
       3        0.000001765339     0.000014819833    -0.000018981615
       4        0.000004639378    -0.000010485190    -0.000002754269
       5       -0.000006389008     0.000013023271    -0.000005010791
       6       -0.000004471868     0.000010317974     0.000005225161
       7        0.000004560273     0.000000912978     0.000004090020
       8        0.003523279075    -0.001076742965    -0.006856280839
       9        0.000001341386    -0.000005281996    -0.000009403361
      10       -0.000000347306     0.000002798299     0.000005526817
      11        0.002822758311    -0.004981167887     0.005309217495
      12       -0.003414146080     0.001667153032     0.005014395811
      13       -0.000005033704     0.000008093050     0.000007665039
      14       -0.000004569526    -0.000007226155     0.000006348933
      15       -0.002922210021     0.004385473896    -0.003457477962
      16       -0.000004840443     0.000002408057    -0.000003127244
      17        0.000000644564    -0.000006273283     0.000000345053
      18        0.000002443285     0.000004964360     0.000001128246
      19       -0.000002913589     0.000001884777    -0.000003507390

  **** Optimization is complete! (in 8 steps) ****
    Final optimized geometry and variables:
    Molecular point group: c1

    Geometry (in Angstrom), charge = 0, multiplicity = 1:

    H            1.423205151917     2.948773772733     1.800162380935
    N            0.676650914549     2.379804952412     1.461604278062
    C            1.184466892249     1.234192781424     0.723149260999
    H            0.108607455158     2.957056541936     0.877283089646
    C            0.046174249998     0.326268852765     0.280385799633
    H            1.847766797402     0.683511809668     1.381636440442
    H            1.775566666131     1.519460446977    -0.148374302665
    C            0.545754145522    -0.901233009630    -0.483663140328
    H           -0.510827463333     0.022447801516     1.160725506388
    H           -0.638562898469     0.901925884848    -0.335338331221
    C           -0.533338346231    -1.931036632463    -0.875420468908
    H            1.260631400988    -1.394702670865     0.168196684409
    H            1.081669710676    -0.574668013849    -1.368968599584
    C           -1.921496144390    -1.360901353187    -1.172451958088
    H           -0.209956187197    -2.430769953596    -1.782681836336
    H           -0.621452915700    -2.684316537968    -0.100665928920
    H           -1.883703449037    -0.616291409073    -1.960923051459
    H           -2.585316703411    -2.151789120855    -1.503021594202
    H           -2.371193020593    -0.899262794135    -0.302431988725

  Mulliken Charges: (a.u.)
   Center  Symbol    Alpha    Beta     Spin     Total
       1     H     0.43022  0.43022  0.00000  0.13955
       2     N     3.68869  3.68869  0.00000 -0.37737
       3     C     3.02938  3.02938  0.00000 -0.05876
       4     H     0.43110  0.43110  0.00000  0.13780
       5     C     3.08419  3.08419  0.00000 -0.16839
       6     H     0.45669  0.45669  0.00000  0.08662
       7     H     0.46880  0.46880  0.00000  0.06241
       8     C     3.10135  3.10135  0.00000 -0.20271
       9     H     0.44804  0.44804  0.00000  0.10392
      10     H     0.45707  0.45707  0.00000  0.08586
      11     C     3.08637  3.08637  0.00000 -0.17274
      12     H     0.45251  0.45251  0.00000  0.09499
      13     H     0.45333  0.45333  0.00000  0.09335
      14     C     3.15840  3.15840  0.00000 -0.31680
      15     H     0.45164  0.45164  0.00000  0.09672
      16     H     0.45145  0.45145  0.00000  0.09710
      17     H     0.45467  0.45467  0.00000  0.09066
      18     H     0.44550  0.44550  0.00000  0.10900
      19     H     0.45060  0.45060  0.00000  0.09880

   Total alpha = 25.00000, Total beta = 25.00000, Total charge =  0.00000

*** Psi4 exiting successfully. Buy a developer a beer!
