  ==> Input File <==

--------------------------------------------------------------------------
set {
	reference rhf
	basis 6-31G*
}

set_num_threads( 1 )
memory 2 gb

molecule MOL {
0 1

H	 3.463771	 0.168298	 -0.756243
C	 2.752674	 -0.045734	 0.033351
C	 1.322923	 0.120767	 -0.479465
H	 2.934561	 -1.059086	 0.377456
H	 2.958358	 0.631174	 0.856809
C	 0.306652	 -0.176050	 0.621399
H	 1.144658	 -0.551717	 -1.312180
H	 1.166477	 1.131798	 -0.836680
N	 -1.068537	 -0.011044	 0.085269
H	 0.372515	 -1.192590	 0.973735
H	 0.391664	 0.520566	 1.441230
O	 -1.826679	 0.663198	 0.711361
O	 -1.329648	 -0.593627	 -0.922919

	symmetry c1
}
set optking {
	frozen_dihedral = ("
		7 3 6 9
	")
}

ee = energy('scf')
oeprop('DIPOLE', 'QUADRUPOLE', 'MULLIKEN_CHARGES')
f=open( 'psi4out.xyz', 'w' )
f.write( "13  " )
f.write( str(ee) + "\n" )
f.write( MOL.save_string_xyz() )
f.close()
--------------------------------------------------------------------------

    Molecular point group: c1

    Geometry (in Angstrom), charge = 0, multiplicity = 1:

       Center              X                  Y                   Z               Mass
    ------------   -----------------  -----------------  -----------------  -----------------
           H          3.467496091322     0.175130066816    -0.763694578742     1.007825032070
           C          2.756399091322    -0.038901933184     0.025899421258    12.000000000000
           C          1.326648091322     0.127599066816    -0.486916578742    12.000000000000
           H          2.938286091322    -1.052253933184     0.370004421258     1.007825032070
           H          2.962083091322     0.638006066816     0.849357421258     1.007825032070
           C          0.310377091322    -0.169217933184     0.613947421258    12.000000000000
           H          1.148383091322    -0.544884933184    -1.319631578742     1.007825032070
           H          1.170202091322     1.138630066816    -0.844131578742     1.007825032070
           N         -1.064811908678    -0.004211933184     0.077817421258    14.003074004780
           H          0.376240091322    -1.185757933184     0.966283421258     1.007825032070
           H          0.395389091322     0.527398066816     1.433778421258     1.007825032070
           O         -1.822953908678     0.670030066816     0.703909421258    15.994914619560
           O         -1.325922908678    -0.586794933184    -0.930370578742    15.994914619560

  Charge       = 0
  Multiplicity = 1
  Basis Set: 6-31G*
  Basis Set:

    Orbital Energies (a.u.)
    -----------------------

    Doubly Occupied:

       1A    -20.603254     2A    -20.600032     3A    -15.847840
       4A    -11.299577     5A    -11.252468     6A    -11.237755
       7A     -1.631480     8A     -1.417173     9A     -1.134534
      10A     -1.027198    11A     -0.883172    12A     -0.830175
      13A     -0.760684    14A     -0.740032    15A     -0.724647
      16A     -0.666632    17A     -0.604515    18A     -0.584999
      19A     -0.550064    20A     -0.521186    21A     -0.511291
      22A     -0.484679    23A     -0.473110    24A     -0.449214

  @DF-RHF Final Energy:  -321.73501660644126

   => Energetics <=

    Nuclear Repulsion Energy =            247.6660122941253519
    One-Electron Energy =                -929.1305255213494547
    Two-Electron Energy =                 359.7294966207823563
    DFT Exchange-Correlation Energy =       0.0000000000000000
    Empirical Dispersion Energy =           0.0000000000000000
    PCM Polarization Energy =               0.0000000000000000
    EFP Energy =                            0.0000000000000000
    Total Energy =                       -321.7350166064417181

  Mulliken Charges: (a.u.)
   Center  Symbol    Alpha    Beta     Spin     Total
       1     H     0.40779  0.40779  0.00000  0.18443
       2     C     3.24832  3.24832  0.00000 -0.49665
       3     C     3.17253  3.17253  0.00000 -0.34506
       4     H     0.41563  0.41563  0.00000  0.16875
       5     H     0.41617  0.41617  0.00000  0.16765
       6     C     3.08815  3.08815  0.00000 -0.17631
       7     H     0.39313  0.39313  0.00000  0.21373
       8     H     0.40556  0.40556  0.00000  0.18888
       9     N     3.22152  3.22152  0.00000  0.55695
      10     H     0.38640  0.38640  0.00000  0.22719
      11     H     0.38623  0.38623  0.00000  0.22754
      12     O     4.22841  4.22841  0.00000 -0.45681
      13     O     4.23015  4.23015  0.00000 -0.46029

   Total alpha = 24.00000, Total beta = 24.00000, Total charge =  0.00000
