  ==> Input File <==

--------------------------------------------------------------------------
set {
	reference rhf
	basis 6-31G*
}

set_num_threads( 4 )
memory 2 gb

molecule MOL {
0 1

O	 -1.276010	 1.052711	 -0.768302
C	 -1.204840	 0.067374	 -0.106123
C	 -2.388195	 -0.672128	 0.458071
O	 -0.067104	 -0.527208	 0.221609
H	 -2.388023	 -1.694060	 0.097175
H	 -3.300579	 -0.174919	 0.164318
H	 -2.315377	 -0.706351	 1.539059
C	 0.463020	 -1.541665	 -0.643130
C	 1.324801	 -2.430385	 0.236130
C	 1.240023	 -0.894114	 -1.778731
H	 -0.367814	 -2.104066	 -1.043041
H	 0.737370	 -2.858448	 1.040452
H	 1.745562	 -3.240812	 -0.349958
H	 2.140041	 -1.863276	 0.672507
H	 1.663247	 -1.657324	 -2.424028
H	 0.592713	 -0.266418	 -2.377867
H	 2.051611	 -0.289598	 -1.386438

	symmetry c1
}
set optking {
	frozen_dihedral = ("
		8 4 2 1
	")
}

ee = optimize('scf')
oeprop('DIPOLE', 'QUADRUPOLE', 'MULLIKEN_CHARGES')
f=open( 'psi4out.xyz', 'w' )
f.write( "17  " )
f.write( str(ee) + "\n" )
f.write( MOL.save_string_xyz() )
f.close()
--------------------------------------------------------------------------

    Molecular point group: c1
  Charge       = 0
  Multiplicity = 1
  Basis Set: 6-31G*
  Basis Set:
  @DF-RHF Final Energy:  -344.89375884947913
    Total Energy =                       -344.8937588494793545
    Molecular point group: c1
  Basis Set: 6-31G*
  Basis Set:
  Basis Set: 6-31G*
  Basis Set:
  @DF-RHF Final Energy:  -344.89219152367758
    Total Energy =                       -344.8921915236774112
  Basis Set: 6-31G*
  Basis Set:
  Basis Set: 6-31G*
  Basis Set:
  @DF-RHF Final Energy:  -344.89488549541846
    Total Energy =                       -344.8948854954186345
  Basis Set: 6-31G*
  Basis Set:
  Basis Set: 6-31G*
  Basis Set:
  @DF-RHF Final Energy:  -344.89533335821687
    Total Energy =                       -344.8953333582168170
  Basis Set: 6-31G*
  Basis Set:
  Basis Set: 6-31G*
  Basis Set:
  @DF-RHF Final Energy:  -344.89534798155330
    Total Energy =                       -344.8953479815536980
  Basis Set: 6-31G*
  Basis Set:
  Basis Set: 6-31G*
  Basis Set:
  @DF-RHF Final Energy:  -344.89535115117434
    Total Energy =                       -344.8953511511741681
  Basis Set: 6-31G*
  Basis Set:
  Charge       = 0
  Multiplicity = 1
  Basis Set: 6-31G*
  Basis Set:

    Orbital Energies (a.u.)
    -----------------------

    Doubly Occupied:

       1A    -20.580400     2A    -20.555730     3A    -11.376994
       4A    -11.302037     5A    -11.236729     6A    -11.222717
       7A    -11.215594     8A     -1.456065     9A     -1.365598
      10A     -1.073600    11A     -1.010279    12A     -0.949978
      13A     -0.845897    14A     -0.770706    15A     -0.692226
      16A     -0.674044    17A     -0.652176    18A     -0.616195
      19A     -0.591385    20A     -0.588203    21A     -0.555571
      22A     -0.550744    23A     -0.546879    24A     -0.518180
      25A     -0.505771    26A     -0.481099    27A     -0.446666
      28A     -0.434722

  @DF-RHF Final Energy:  -344.89535177620519

   => Energetics <=

    Nuclear Repulsion Energy =            322.3327056021153112
    One-Electron Energy =               -1108.8237447522253660
    Two-Electron Energy =                 441.5956873739047523
    DFT Exchange-Correlation Energy =       0.0000000000000000
    Empirical Dispersion Energy =           0.0000000000000000
    PCM Polarization Energy =               0.0000000000000000
    EFP Energy =                            0.0000000000000000
    Total Energy =                       -344.8953517762053025
    Molecular point group: c1
  Basis Set: 6-31G*
  Basis Set:

  -Total Gradient:
     Atom            X                  Y                   Z
    ------   -----------------  -----------------  -----------------
       1        0.000086133647     0.001276133746     0.002015349760
       2       -0.000719453052    -0.002515342921    -0.002582943974
       3        0.000014461678     0.000052031991     0.000064761445
       4        0.001607023568     0.002596434594    -0.000380080224
       5       -0.000009000047    -0.000015971310    -0.000025218187
       6       -0.000004535945    -0.000020902558    -0.000000590087
       7        0.000002440511    -0.000017601462    -0.000013924502
       8       -0.001010049202    -0.001308855585     0.000959282330
       9        0.000015771984    -0.000021986748    -0.000022904641
      10       -0.000000031682    -0.000006266099     0.000002005821
      11        0.000015446498    -0.000015024608    -0.000018473076
      12       -0.000003046272     0.000001939905    -0.000002769684
      13        0.000005069198    -0.000002601009     0.000003403746
      14       -0.000001539230     0.000005046701     0.000000262311
      15        0.000004470219    -0.000005496623    -0.000000990543
      16       -0.000003052293    -0.000000974080     0.000004937236
      17       -0.000000109577    -0.000000563934    -0.000002107729

  **** Optimization is complete! (in 7 steps) ****
    Final optimized geometry and variables:
    Molecular point group: c1

    Geometry (in Angstrom), charge = 0, multiplicity = 1:

    O           -0.996596853166     1.734981379920    -0.430310812231
    C           -0.957669177298     0.749083216642     0.220971895554
    C           -2.168780575339     0.078179801690     0.814511395151
    O            0.205535616318     0.160587136074     0.572361430454
    H           -2.199210151584    -0.968691583319     0.531939573648
    H           -3.070051442168     0.574611305338     0.486427361268
    H           -2.097288223685     0.117954483062     1.896016697614
    C            0.755802623171    -0.830961081106    -0.302109073254
    C            1.626484146157    -1.724296827042     0.562456753401
    C            1.524317124672    -0.166032715713    -1.434139766629
    H           -0.061535884139    -1.417972097828    -0.713896069601
    H            1.040811383735    -2.180720729398     1.351955905609
    H            2.074104889223    -2.510490507574    -0.036530612655
    H            2.420265789191    -1.143036049273     1.018347412595
    H            1.933791050920    -0.918779540421    -2.101042956022
    H            0.883573912483     0.491322064752    -2.007837702358
    H            2.341092855723     0.423616946894    -1.033006868136

  Mulliken Charges: (a.u.)
   Center  Symbol    Alpha    Beta     Spin     Total
       1     O     4.25302  4.25302  0.00000 -0.50604
       2     C     2.62533  2.62533  0.00000  0.74934
       3     C     3.28465  3.28465  0.00000 -0.56929
       4     O     4.32300  4.32300  0.00000 -0.64601
       5     H     0.40762  0.40762  0.00000  0.18477
       6     H     0.39736  0.39736  0.00000  0.20527
       7     H     0.39784  0.39784  0.00000  0.20433
       8     C     2.92973  2.92973  0.00000  0.14054
       9     C     3.23946  3.23946  0.00000 -0.47891
      10     C     3.24329  3.24329  0.00000 -0.48658
      11     H     0.42295  0.42295  0.00000  0.15410
      12     H     0.41287  0.41287  0.00000  0.17427
      13     H     0.41829  0.41829  0.00000  0.16343
      14     H     0.40959  0.40959  0.00000  0.18082
      15     H     0.42195  0.42195  0.00000  0.15611
      16     H     0.40187  0.40187  0.00000  0.19626
      17     H     0.41120  0.41120  0.00000  0.17760

   Total alpha = 28.00000, Total beta = 28.00000, Total charge = -0.00000
