                              Psi4 1.0.54 Driver

  ==> Input File <==

--------------------------------------------------------------------------
set {
	reference rhf
	basis cc-pvtz
}

set_num_threads( 4 )
memory 2 gb

molecule MOL {
0 1

H	 -2.980326	 -0.378899	 -2.816737
O	 -2.763483	 -0.570372	 -1.923142
C	 -1.488569	 -0.070547	 -1.617879
C	 -1.175688	 -0.398187	 -0.171891
H	 -0.739217	 -0.515602	 -2.269164
H	 -1.455673	 1.006436	 -1.769055
C	 0.196029	 0.106276	 0.266738
H	 -1.235566	 -1.474256	 -0.042619
H	 -1.949918	 0.034192	 0.453834
C	 1.330220	 -0.826136	 -0.155230
H	 0.359542	 1.097229	 -0.145561
H	 0.212134	 0.218135	 1.348778
C	 2.719700	 -0.407669	 0.328325
H	 1.339388	 -0.911200	 -1.239363
H	 1.119001	 -1.821953	 0.224128
C	 3.241564	 0.893452	 -0.276737
H	 3.418299	 -1.204729	 0.093035
H	 2.711776	 -0.323368	 1.411960
H	 3.254204	 0.841071	 -1.360784
H	 2.634460	 1.745075	 0.005842
H	 4.254264	 1.092401	 0.054971

	symmetry c1
}
set optking {
	frozen_dihedral = ("
		8 4 7 10
	")
}

ee,wfn = optimize('scf', return_wfn=True)
oeprop( wfn, 'DIPOLE', 'QUADRUPOLE', 'MULLIKEN_CHARGES')
f=open( 'psi4out.xyz', 'w' )
f.write( "21  " )
f.write( str(ee) + "\n" )
f.write( MOL.save_string_xyz() )
f.close()
--------------------------------------------------------------------------

    Molecular point group: c1
  Charge       = 0
  Multiplicity = 1
  Basis Set: CC-PVTZ
  Basis Set:
  @DF-RHF Final Energy:  -310.33042859227112
    Total Energy =                       -310.3304285922710051
    Molecular point group: c1
  Basis Set: CC-PVTZ
  Basis Set:
  Basis Set: CC-PVTZ
  Basis Set:
  @DF-RHF Final Energy:  -310.33067710202062
    Total Energy =                       -310.3306771020205588
  Basis Set: CC-PVTZ
  Basis Set:
  Basis Set: CC-PVTZ
  Basis Set:
  @DF-RHF Final Energy:  -310.33070641634362
    Total Energy =                       -310.3307064163434461
  Basis Set: CC-PVTZ
  Basis Set:
  Charge       = 0
  Multiplicity = 1
  Basis Set: CC-PVTZ
  Basis Set:

    Orbital Energies (a.u.)
    -----------------------

    Doubly Occupied:

       1A    -20.545161     2A    -11.264502     3A    -11.213839
       4A    -11.213363     5A    -11.212001     6A    -11.209112
       7A    -11.206971     8A     -1.362945     9A     -1.087314
      10A     -1.033446    11A     -0.953688    12A     -0.881122
      13A     -0.811682    14A     -0.774538    15A     -0.698076
      16A     -0.651476    17A     -0.631955    18A     -0.610046
      19A     -0.590435    20A     -0.558306    21A     -0.549141
      22A     -0.520805    23A     -0.512475    24A     -0.496033
      25A     -0.476121    26A     -0.457374    27A     -0.454689
      28A     -0.448159    29A     -0.433827

  @DF-RHF Final Energy:  -310.33070726174617

   => Energetics <=

    Nuclear Repulsion Energy =            316.5329168310737487
    One-Electron Energy =               -1048.0100453431223286
    Two-Electron Energy =                 421.1464212503022964
    DFT Exchange-Correlation Energy =       0.0000000000000000
    Empirical Dispersion Energy =           0.0000000000000000
    PCM Polarization Energy =               0.0000000000000000
    EFP Energy =                            0.0000000000000000
    Total Energy =                       -310.3307072617462836
    Molecular point group: c1
  Basis Set: CC-PVTZ
  Basis Set:

  -Total Gradient:
     Atom            X                  Y                   Z
    ------   -----------------  -----------------  -----------------
       1       -0.000037938312    -0.000014169491    -0.000014579724
       2        0.000007944130     0.000008962198    -0.000064003264
       3       -0.000039807941    -0.000016563999     0.000063264321
       4       -0.000749673348     0.000026953844     0.002472293916
       5       -0.000015829297     0.000007967285     0.000002296925
       6        0.000010491188     0.000012409943    -0.000011007511
       7        0.000319563869     0.000833074711    -0.001904618282
       8        0.000618504859    -0.000232127566    -0.001627957028
       9        0.000013879391     0.000014456714    -0.000014642852
      10       -0.000139199174    -0.000643225267     0.001098352654
      11       -0.000016290196    -0.000020844930    -0.000008985540
      12        0.000018516516    -0.000001242834     0.000009757433
      13        0.000000668744     0.000018173690    -0.000018704075
      14       -0.000000121301     0.000004461884     0.000003621133
      15       -0.000018804539     0.000009728653    -0.000003691620
      16        0.000011710551    -0.000006455243     0.000015660404
      17        0.000013493356    -0.000006324513     0.000008077026
      18        0.000000952053     0.000011451099    -0.000005101922
      19       -0.000000497725     0.000000050648     0.000000022458
      20        0.000006511380    -0.000002179192     0.000001044703
      21       -0.000004074209    -0.000004557632    -0.000001099154

  **** Optimization is complete! (in 4 steps) ****
    Final optimized geometry and variables:
    Molecular point group: c1

    Geometry (in Angstrom), charge = 0, multiplicity = 1:

    H           -3.254187474685    -0.170869348994    -2.256802993147
    O           -3.027730867897    -0.365663407306    -1.366348639363
    C           -1.750107587155     0.134503693648    -1.071657169221
    C           -1.425120130974    -0.206692353881     0.371082911951
    H           -1.011793066864    -0.298482837114    -1.741388992503
    H           -1.723426033202     1.213693009142    -1.207671247186
    C           -0.036594465223     0.265952512079     0.812532572555
    H           -1.508954820237    -1.282193493530     0.487816598044
    H           -2.187702071614     0.241548184205     0.997575988335
    C            1.102588106171    -0.664345321238     0.391892256227
    H            0.136295917494     1.270564833241     0.438937402452
    H           -0.025590143195     0.343826765002     1.895697942144
    C            2.485196190866    -0.243730519226     0.893807651146
    H            1.133408983384    -0.753329199536    -0.690932697161
    H            0.886282688745    -1.658988131077     0.770750515898
    C            3.022583069512     1.046705713750     0.279611514005
    H            3.185309878192    -1.046103830808     0.682249294528
    H            2.458119184153    -0.143829722199     1.975729148254
    H            3.057103427818     0.977425180522    -0.803075686967
    H            2.412521762573     1.904148804519     0.536766268466
    H            4.029002541011     1.248178275309     0.628329489513

  Mulliken Charges: (a.u.)
   Center  Symbol    Alpha    Beta     Spin     Total
       1     H     0.39723  0.39723  0.00000  0.20555
       2     O     4.19505  4.19505  0.00000 -0.39010
       3     C     2.96044  2.96044  0.00000  0.07912
       4     C     3.09077  3.09077  0.00000 -0.18155
       5     H     0.47442  0.47442  0.00000  0.05117
       6     H     0.47479  0.47479  0.00000  0.05042
       7     C     3.11197  3.11197  0.00000 -0.22395
       8     H     0.45232  0.45232  0.00000  0.09537
       9     H     0.44530  0.44530  0.00000  0.10940
      10     C     3.09439  3.09439  0.00000 -0.18877
      11     H     0.45351  0.45351  0.00000  0.09299
      12     H     0.44672  0.44672  0.00000  0.10655
      13     C     3.08936  3.08936  0.00000 -0.17873
      14     H     0.45517  0.45517  0.00000  0.08966
      15     H     0.44783  0.44783  0.00000  0.10435
      16     C     3.15259  3.15259  0.00000 -0.30519
      17     H     0.44833  0.44833  0.00000  0.10333
      18     H     0.45448  0.45448  0.00000  0.09105
      19     H     0.45543  0.45543  0.00000  0.08913
      20     H     0.45379  0.45379  0.00000  0.09242
      21     H     0.44611  0.44611  0.00000  0.10779

   Total alpha = 29.00000, Total beta = 29.00000, Total charge =  0.00000

*** Psi4 exiting successfully. Buy a developer a beer!
