  ==> Input File <==

--------------------------------------------------------------------------
set {
	reference rhf
	basis 6-31G*
}

set_num_threads( 4 )
memory 2 gb

molecule MOL {
0 1

H	 -3.161837	 0.500524	 -0.000234
C	 -2.367097	 -0.232926	 -0.000000
O	 -1.158440	 0.455814	 -0.000122
H	 -2.468853	 -0.861886	 -0.882833
H	 -2.468942	 -0.861421	 0.883154
C	 -0.029776	 -0.365156	 0.000148
C	 -0.478787	 -1.815808	 -0.025513
H	 0.574990	 -0.171609	 0.887107
H	 0.593741	 -0.146393	 -0.867767
C	 0.697097	 -2.791603	 -0.026640
H	 -1.113762	 -1.994903	 0.836690
H	 -1.095098	 -1.969940	 -0.905912
H	 1.313796	 -2.670267	 0.859579
H	 0.348028	 -3.818559	 -0.045605
H	 1.333103	 -2.644666	 -0.895149

	symmetry c1
}
set optking {
	frozen_dihedral = ("
		8 6 3 2
	")
}

ee = optimize('scf')
oeprop('DIPOLE', 'QUADRUPOLE', 'MULLIKEN_CHARGES')
f=open( 'psi4out.xyz', 'w' )
f.write( "15  " )
f.write( str(ee) + "\n" )
f.write( MOL.save_string_xyz() )
f.close()
--------------------------------------------------------------------------

    Molecular point group: c1
  Charge       = 0
  Multiplicity = 1
  Basis Set: 6-31G*
  Basis Set:
  @DF-RHF Final Energy:  -232.10883306220157
    Total Energy =                       -232.1088330622013700
    Molecular point group: c1
  Basis Set: 6-31G*
  Basis Set:
  Basis Set: 6-31G*
  Basis Set:
  @DF-RHF Final Energy:  -232.11560248512501
    Total Energy =                       -232.1156024851250095
  Basis Set: 6-31G*
  Basis Set:
  Basis Set: 6-31G*
  Basis Set:
  @DF-RHF Final Energy:  -232.12328642934654
    Total Energy =                       -232.1232864293464786
  Basis Set: 6-31G*
  Basis Set:
  Basis Set: 6-31G*
  Basis Set:
  @DF-RHF Final Energy:  -232.12652882357284
    Total Energy =                       -232.1265288235728690
  Basis Set: 6-31G*
  Basis Set:
  @DF-RHF Final Energy:  -232.12712335166563
    Total Energy =                       -232.1271233516657162
  @DF-RHF Final Energy:  -232.12807631921163
    Total Energy =                       -232.1280763192117433
  Basis Set: 6-31G*
  Basis Set:
  @DF-RHF Final Energy:  -232.12826994318925
    Total Energy =                       -232.1282699431893661
  Basis Set: 6-31G*
  Basis Set:
  Basis Set: 6-31G*
  Basis Set:
  @DF-RHF Final Energy:  -232.12829096174934
    Total Energy =                       -232.1282909617493146
  Basis Set: 6-31G*
  Basis Set:
  Basis Set: 6-31G*
  Basis Set:
  @DF-RHF Final Energy:  -232.12829214949340
    Total Energy =                       -232.1282921494932907
  Basis Set: 6-31G*
  Basis Set:
  Charge       = 0
  Multiplicity = 1
  Basis Set: 6-31G*
  Basis Set:

    Orbital Energies (a.u.)
    -----------------------

    Doubly Occupied:

       1A    -20.545656     2A    -11.266126     3A    -11.262487
       4A    -11.223615     5A    -11.218489     6A     -1.365424
       7A     -1.060386     8A     -0.962385     9A     -0.886723
      10A     -0.797555    11A     -0.671533    12A     -0.658996
      13A     -0.624247    14A     -0.606740    15A     -0.554145
      16A     -0.548680    17A     -0.523637    18A     -0.500603
      19A     -0.493744    20A     -0.441993    21A     -0.399928

  @DF-RHF Final Energy:  -232.12829233259387

   => Energetics <=

    Nuclear Repulsion Energy =            191.8656606979120340
    One-Electron Energy =                -694.7617275080447143
    Two-Electron Energy =                 270.7677744775387509
    DFT Exchange-Correlation Energy =       0.0000000000000000
    Empirical Dispersion Energy =           0.0000000000000000
    PCM Polarization Energy =               0.0000000000000000
    EFP Energy =                            0.0000000000000000
    Total Energy =                       -232.1282923325939009
    Molecular point group: c1
  Basis Set: 6-31G*
  Basis Set:

  -Total Gradient:
     Atom            X                  Y                   Z
    ------   -----------------  -----------------  -----------------
       1        0.000035846139     0.000008222866    -0.000001680703
       2        0.000021567027    -0.000071169952    -0.000752769613
       3        0.000127442740     0.000198766260     0.001035849296
       4       -0.000017518110     0.000014220131     0.000002272191
       5       -0.000013249256    -0.000001620273     0.000006830664
       6       -0.000634117156    -0.000709383182     0.000168169228
       7        0.000011490907     0.000005671998    -0.000027568830
       8        0.000464083050     0.000575397364    -0.000447505586
       9       -0.000011602494     0.000008981607    -0.000002594793
      10       -0.000002390634    -0.000020414341     0.000015290514
      11       -0.000003368110    -0.000001080897    -0.000002401945
      12        0.000013288784     0.000002297937     0.000005193381
      13        0.000004168779     0.000003129510    -0.000004662202
      14        0.000010958895    -0.000009212520     0.000006765653
      15       -0.000006600560    -0.000003806507    -0.000001187255

  **** Optimization is complete! (in 10 steps) ****
    Final optimized geometry and variables:
    Molecular point group: c1

    Geometry (in Angstrom), charge = 0, multiplicity = 1:

    H           -2.438254760978     1.807967874169     0.005359687886
    C           -1.811664777223     0.926398421782     0.025423366987
    O           -0.496309317867     1.383046218368    -0.000659691204
    H           -2.059146048121     0.313465809684    -0.836465363826
    H           -2.041826295174     0.366344916824     0.927857967020
    C            0.585069014326     0.481781416508     0.010351495714
    C            0.265859594137    -1.011052536403    -0.027065463793
    H            1.175616316892     0.695759471976     0.897304891953
    H            1.206546805966     0.725901206509    -0.846504701975
    C            1.552160289148    -1.838678601905    -0.010531711064
    H           -0.348006167513    -1.288029244004     0.824205459930
    H           -0.302124432984    -1.250748443138    -0.920551106153
    H            2.133922763235    -1.645437341806     0.885938796792
    H            1.329308663873    -2.899928740147    -0.037156282543
    H            2.178766511289    -1.610938279410    -0.867821612307

  Mulliken Charges: (a.u.)
   Center  Symbol    Alpha    Beta     Spin     Total
       1     H     0.41193  0.41193  0.00000  0.17614
       2     C     3.07682  3.07682  0.00000 -0.15363
       3     O     4.31955  4.31955  0.00000 -0.63909
       4     H     0.43017  0.43017  0.00000  0.13967
       5     H     0.43057  0.43057  0.00000  0.13886
       6     C     2.96636  2.96636  0.00000  0.06728
       7     C     3.18279  3.18279  0.00000 -0.36559
       8     H     0.42633  0.42633  0.00000  0.14735
       9     H     0.42511  0.42511  0.00000  0.14978
      10     C     3.24495  3.24495  0.00000 -0.48990
      11     H     0.41688  0.41688  0.00000  0.16624
      12     H     0.41655  0.41655  0.00000  0.16690
      13     H     0.41850  0.41850  0.00000  0.16299
      14     H     0.41502  0.41502  0.00000  0.16997
      15     H     0.41848  0.41848  0.00000  0.16303

   Total alpha = 21.00000, Total beta = 21.00000, Total charge = -0.00000
