  ==> Input File <==

--------------------------------------------------------------------------
set {
	reference rhf
	basis 6-31G*
}

set_num_threads( 4 )
memory 2 gb

molecule MOL {
0 1

O	 -2.408801	 -2.191444	 0.888406
C	 -1.689725	 -2.705585	 0.086519
C	 -0.655018	 -1.889055	 -0.667779
C	 -1.747808	 -4.190390	 -0.195183
C	 0.581030	 -1.627124	 0.207847
H	 -1.114369	 -0.944225	 -0.937218
H	 -0.361309	 -2.395555	 -1.582776
C	 1.631333	 -0.777471	 -0.511575
H	 0.252991	 -1.138466	 1.118335
H	 1.028246	 -2.574981	 0.503335
C	 2.915987	 -0.544314	 0.291766
H	 1.194095	 0.183428	 -0.776568
H	 1.892476	 -1.262831	 -1.449700
C	 3.373361	 0.914346	 0.347591
H	 3.708709	 -1.142521	 -0.150311
H	 2.780642	 -0.921148	 1.303579
H	 3.506512	 1.320010	 -0.651625
H	 4.322697	 0.999599	 0.867103
H	 2.660624	 1.545032	 0.868198
H	 -2.091295	 -4.355919	 -1.212966
H	 -2.426048	 -4.672008	 0.495337
H	 -0.760541	 -4.635972	 -0.114155

	symmetry c1
}
set optking {
	frozen_dihedral = ("
		12 8 11 15
	")
}

ee = optimize('scf')
oeprop('DIPOLE', 'QUADRUPOLE', 'MULLIKEN_CHARGES')
f=open( 'psi4out.xyz', 'w' )
f.write( "22  " )
f.write( str(ee) + "\n" )
f.write( MOL.save_string_xyz() )
f.close()
--------------------------------------------------------------------------

    Molecular point group: c1
  Charge       = 0
  Multiplicity = 1
  Basis Set: 6-31G*
  Basis Set:
  @DF-RHF Final Energy:  -348.09427114289559
    Total Energy =                       -348.0942711428954226
    Molecular point group: c1
  Basis Set: 6-31G*
  Basis Set:
  Basis Set: 6-31G*
  Basis Set:
  @DF-RHF Final Energy:  -348.09460134114892
    Total Energy =                       -348.0946013411489730
  Basis Set: 6-31G*
  Basis Set:
  Basis Set: 6-31G*
  Basis Set:
  @DF-RHF Final Energy:  -348.09255762829969
    Total Energy =                       -348.0925576283000282
  Basis Set: 6-31G*
  Basis Set:
  Basis Set: 6-31G*
  Basis Set:
  @DF-RHF Final Energy:  -348.09471930415157
    Total Energy =                       -348.0947193041514538
  Basis Set: 6-31G*
  Basis Set:
  @DF-RHF Final Energy:  -348.09471003230988
    Total Energy =                       -348.0947100323097629
  @DF-RHF Final Energy:  -348.09471339468610
    Total Energy =                       -348.0947133946858685
  Basis Set: 6-31G*
  Basis Set:
  @DF-RHF Final Energy:  -348.09474047546900
    Total Energy =                       -348.0947404754688819
  Basis Set: 6-31G*
  Basis Set:
  Basis Set: 6-31G*
  Basis Set:
  @DF-RHF Final Energy:  -348.09474593209762
    Total Energy =                       -348.0947459320974531
  Basis Set: 6-31G*
  Basis Set:
  Basis Set: 6-31G*
  Basis Set:
  @DF-RHF Final Energy:  -348.09475073459959
    Total Energy =                       -348.0947507345994154
  Basis Set: 6-31G*
  Basis Set:
  Charge       = 0
  Multiplicity = 1
  Basis Set: 6-31G*
  Basis Set:

    Orbital Energies (a.u.)
    -----------------------

    Doubly Occupied:

       1A    -20.547365     2A    -11.324516     3A    -11.230484
       4A    -11.229046     5A    -11.228192     6A    -11.221928
       7A    -11.220207     8A    -11.212067     9A     -1.393130
      10A     -1.094443    11A     -1.044324    12A     -1.000678
      13A     -0.938261    14A     -0.846577    15A     -0.798338
      16A     -0.732609    17A     -0.662751    18A     -0.645367
      19A     -0.629235    20A     -0.609881    21A     -0.598017
      22A     -0.582001    23A     -0.559894    24A     -0.554150
      25A     -0.528570    26A     -0.511997    27A     -0.501715
      28A     -0.486887    29A     -0.474500    30A     -0.462847
      31A     -0.458492    32A     -0.396058

  @DF-RHF Final Energy:  -348.09475100758527

   => Energetics <=

    Nuclear Repulsion Energy =            369.0068270769196488
    One-Electron Energy =               -1202.7541024123290754
    Two-Electron Energy =                 485.6525243278240964
    DFT Exchange-Correlation Energy =       0.0000000000000000
    Empirical Dispersion Energy =           0.0000000000000000
    PCM Polarization Energy =               0.0000000000000000
    EFP Energy =                            0.0000000000000000
    Total Energy =                       -348.0947510075853302
    Molecular point group: c1
  Basis Set: 6-31G*
  Basis Set:

  -Total Gradient:
     Atom            X                  Y                   Z
    ------   -----------------  -----------------  -----------------
       1        0.000005651834    -0.000004387171     0.000015446263
       2        0.000009223389    -0.000014422893     0.000000173471
       3       -0.000006087013    -0.000006107482    -0.000008985091
       4       -0.000017670591     0.000006918150    -0.000015213258
       5        0.000001780860     0.000000107367    -0.000006509033
       6       -0.000019605771    -0.000006122518     0.000009093237
       7        0.000012076562     0.000017679675    -0.000002216349
       8       -0.001499173554     0.000403876420     0.002184302896
       9       -0.000001179101     0.000013145150    -0.000014890423
      10       -0.000008166773    -0.000006636569     0.000020483763
      11       -0.000436573467    -0.002294751098     0.001315020747
      12        0.001333831847     0.000019370723    -0.002051139604
      13       -0.000003702736    -0.000000423360     0.000000976234
      14        0.000004446727    -0.000000527287     0.000004558012
      15        0.000612193076     0.001862728907    -0.001455935774
      16       -0.000000109262     0.000003512762    -0.000004061133
      17       -0.000003739888    -0.000002476907     0.000002037244
      18        0.000007149806     0.000006143659    -0.000000917598
      19        0.000000621353    -0.000001267488     0.000002292838
      20        0.000007789958     0.000000885901    -0.000000225586
      21       -0.000002131023     0.000004279336    -0.000001405995
      22        0.000003373771    -0.000001525276     0.000007115140

  **** Optimization is complete! (in 10 steps) ****
    Final optimized geometry and variables:
    Molecular point group: c1

    Geometry (in Angstrom), charge = 0, multiplicity = 1:

    O           -2.654487231990    -0.570803276737     0.849000281007
    C           -1.943735452971    -1.076602668400     0.034628926194
    C           -0.919946256046    -0.252028716965    -0.725768595959
    C           -2.006389499853    -2.558192906948    -0.263515995160
    C            0.337816788032    -0.018440721668     0.125161019280
    H           -1.377712617179     0.701576814916    -0.965221234403
    H           -0.651068977310    -0.742005211296    -1.657372541256
    C            1.385188954437     0.833959694957    -0.592278085828
    H            0.044160541619     0.464272334755     1.052400912312
    H            0.780407681676    -0.974867040511     0.398410330435
    C            2.665062074260     1.067274441458     0.240187248452
    H            0.945871675005     1.789518076550    -0.868922333693
    H            1.646041667983     0.355541945623    -1.533585832396
    C            3.100094591645     2.533446554801     0.275403529938
    H            3.480519613747     0.478456196096    -0.169855690893
    H            2.514026756414     0.719578476043     1.258561466793
    H            3.286854839400     2.910063059242    -0.726410302091
    H            4.011536634259     2.659671271898     0.851630221295
    H            2.333182339811     3.157876351345     0.724791326926
    H           -2.365155887665    -2.711560462981    -1.277891340172
    H           -2.674729627050    -3.047379536326     0.431292677077
    H           -1.018459345889    -3.005341823116    -0.202324952221

  Mulliken Charges: (a.u.)
   Center  Symbol    Alpha    Beta     Spin     Total
       1     O     4.26220  4.26220  0.00000 -0.52439
       2     C     2.73719  2.73719  0.00000  0.52562
       3     C     3.20076  3.20076  0.00000 -0.40152
       4     C     3.28954  3.28954  0.00000 -0.57909
       5     C     3.16389  3.16389  0.00000 -0.32779
       6     H     0.40100  0.40100  0.00000  0.19801
       7     H     0.41686  0.41686  0.00000  0.16628
       8     C     3.15468  3.15468  0.00000 -0.30937
       9     H     0.40584  0.40584  0.00000  0.18832
      10     H     0.42014  0.42014  0.00000  0.15972
      11     C     3.15565  3.15565  0.00000 -0.31129
      12     H     0.41768  0.41768  0.00000  0.16463
      13     H     0.42120  0.42120  0.00000  0.15760
      14     C     3.24052  3.24052  0.00000 -0.48104
      15     H     0.41970  0.41970  0.00000  0.16059
      16     H     0.41845  0.41845  0.00000  0.16310
      17     H     0.42133  0.42133  0.00000  0.15734
      18     H     0.41947  0.41947  0.00000  0.16106
      19     H     0.42020  0.42020  0.00000  0.15960
      20     H     0.40686  0.40686  0.00000  0.18628
      21     H     0.39707  0.39707  0.00000  0.20586
      22     H     0.40976  0.40976  0.00000  0.18049

   Total alpha = 32.00000, Total beta = 32.00000, Total charge =  0.00000
