  ==> Input File <==

--------------------------------------------------------------------------
set {
	reference rhf
	basis 6-31G*
}

set_num_threads( 1 )
memory 2 gb

molecule MOL {
0 1

H	 -1.922408	 -0.980870	 0.495640
O	 -1.422729	 -0.573567	 -0.196946
C	 -0.731407	 0.539437	 0.309156
C	 0.680193	 0.672443	 -0.251532
H	 -1.319765	 1.404033	 0.030086
H	 -0.700012	 0.506517	 1.397677
C	 1.599139	 -0.492137	 0.118598
H	 0.616402	 0.758534	 -1.332349
H	 1.107032	 1.602637	 0.117369
H	 1.239738	 -1.428634	 -0.297334
H	 2.601428	 -0.335055	 -0.265730
H	 1.674954	 -0.608418	 1.197020

	symmetry c1
}
set optking {
	frozen_dihedral = ("
		8 4 3 2
	")
}

ee = energy('scf')
oeprop('DIPOLE', 'QUADRUPOLE', 'MULLIKEN_CHARGES')
f=open( 'psi4out.xyz', 'w' )
f.write( "12  " )
f.write( str(ee) + "\n" )
f.write( MOL.save_string_xyz() )
f.close()
--------------------------------------------------------------------------

    Molecular point group: c1

    Geometry (in Angstrom), charge = 0, multiplicity = 1:

       Center              X                  Y                   Z               Mass
    ------------   -----------------  -----------------  -----------------  -----------------
           H         -1.908119066044    -0.987342029495     0.490354854507     1.007825032070
           O         -1.408440066044    -0.580039029495    -0.202231145493    15.994914619560
           C         -0.717118066044     0.532964970505     0.303870854507    12.000000000000
           C          0.694481933956     0.665970970505    -0.256817145493    12.000000000000
           H         -1.305476066044     1.397560970505     0.024800854507     1.007825032070
           H         -0.685723066044     0.500044970505     1.392391854507     1.007825032070
           C          1.613427933956    -0.498609029495     0.113312854507    12.000000000000
           H          0.630690933956     0.752061970505    -1.337634145493     1.007825032070
           H          1.121320933956     1.596164970505     0.112083854507     1.007825032070
           H          1.254026933956    -1.435106029495    -0.302619145493     1.007825032070
           H          2.615716933956    -0.341527029495    -0.271015145493     1.007825032070
           H          1.689242933956    -0.614890029495     1.191734854507     1.007825032070

  Charge       = 0
  Multiplicity = 1
  Basis Set: 6-31G*
  Basis Set:

    Orbital Energies (a.u.)
    -----------------------

    Doubly Occupied:

       1A    -20.551365     2A    -11.267760     3A    -11.216601
       4A    -11.206466     5A     -1.359036     6A     -1.046662
       7A     -0.919787     8A     -0.800468     9A     -0.703893
      10A     -0.637838    11A     -0.593111    12A     -0.581684
      13A     -0.526712    14A     -0.505501    15A     -0.487278
      16A     -0.465765    17A     -0.427371

  @DF-RHF Final Energy:  -193.10805066797593

   => Energetics <=

    Nuclear Repulsion Energy =            132.5684064194094844
    One-Electron Energy =                -524.7582492383120325
    Two-Electron Energy =                 199.0817921509265886
    DFT Exchange-Correlation Energy =       0.0000000000000000
    Empirical Dispersion Energy =           0.0000000000000000
    PCM Polarization Energy =               0.0000000000000000
    EFP Energy =                            0.0000000000000000
    Total Energy =                       -193.1080506679759594

  Mulliken Charges: (a.u.)
   Center  Symbol    Alpha    Beta     Spin     Total
       1     H     0.27930  0.27930  0.00000  0.44141
       2     O     4.37197  4.37197  0.00000 -0.74395
       3     C     2.99530  2.99530  0.00000  0.00940
       4     C     3.15913  3.15913  0.00000 -0.31826
       5     H     0.42470  0.42470  0.00000  0.15061
       6     H     0.43411  0.43411  0.00000  0.13177
       7     C     3.24308  3.24308  0.00000 -0.48616
       8     H     0.41415  0.41415  0.00000  0.17171
       9     H     0.42277  0.42277  0.00000  0.15446
      10     H     0.40985  0.40985  0.00000  0.18029
      11     H     0.41962  0.41962  0.00000  0.16076
      12     H     0.42602  0.42602  0.00000  0.14796

   Total alpha = 17.00000, Total beta = 17.00000, Total charge =  0.00000
