  ==> Input File <==

--------------------------------------------------------------------------
set {
	reference rhf
	basis 6-31G*
}

set_num_threads( 4 )
memory 2 gb

molecule MOL {
0 1

H	 3.735572	 -0.036818	 0.814020
O	 2.832707	 -0.223601	 1.052141
C	 2.077727	 -0.067559	 -0.035091
C	 0.624473	 -0.343591	 0.253101
O	 2.537782	 0.251399	 -1.082770
C	 -0.265902	 0.883932	 0.072916
H	 0.324016	 -1.163849	 -0.390541
H	 0.565024	 -0.726111	 1.268924
C	 -1.728698	 0.646073	 0.462102
H	 -0.209144	 1.219470	 -0.958188
H	 0.135059	 1.692851	 0.673903
C	 -2.482460	 -0.343073	 -0.431425
H	 -2.245265	 1.602650	 0.432430
H	 -1.779332	 0.308348	 1.496285
C	 -3.960546	 -0.461025	 -0.060175
H	 -2.395034	 -0.026811	 -1.468912
H	 -2.024850	 -1.327147	 -0.371646
H	 -4.472726	 -1.168004	 -0.705284
H	 -4.465146	 0.496508	 -0.151489
H	 -4.081218	 -0.800940	 0.964585

	symmetry c1
}
set optking {
	frozen_dihedral = ("
		5 3 4 7
	")
}

ee = optimize('scf')
oeprop('DIPOLE', 'QUADRUPOLE', 'MULLIKEN_CHARGES')
f=open( 'psi4out.xyz', 'w' )
f.write( "20  " )
f.write( str(ee) + "\n" )
f.write( MOL.save_string_xyz() )
f.close()
--------------------------------------------------------------------------

    Molecular point group: c1
  Charge       = 0
  Multiplicity = 1
  Basis Set: 6-31G*
  Basis Set:
  @DF-RHF Final Energy:  -383.94627703930752
    Total Energy =                       -383.9462770393071196
    Molecular point group: c1
  Basis Set: 6-31G*
  Basis Set:
  Basis Set: 6-31G*
  Basis Set:
  @DF-RHF Final Energy:  -383.94697033159810
    Total Energy =                       -383.9469703315980951
  Basis Set: 6-31G*
  Basis Set:
  Basis Set: 6-31G*
  Basis Set:
  @DF-RHF Final Energy:  -383.94700201671446
    Total Energy =                       -383.9470020167145776
  Basis Set: 6-31G*
  Basis Set:
  Basis Set: 6-31G*
  Basis Set:
  @DF-RHF Final Energy:  -383.94705448221151
    Total Energy =                       -383.9470544822116267
  Basis Set: 6-31G*
  Basis Set:
  Basis Set: 6-31G*
  Basis Set:
  @DF-RHF Final Energy:  -383.94706002920969
    Total Energy =                       -383.9470600292098084
  Basis Set: 6-31G*
  Basis Set:
  Basis Set: 6-31G*
  Basis Set:
  @DF-RHF Final Energy:  -383.94706345194948
    Total Energy =                       -383.9470634519491909
  Basis Set: 6-31G*
  Basis Set:
  Basis Set: 6-31G*
  Basis Set:
  @DF-RHF Final Energy:  -383.94706540081745
    Total Energy =                       -383.9470654008172232
  Basis Set: 6-31G*
  Basis Set:
  Charge       = 0
  Multiplicity = 1
  Basis Set: 6-31G*
  Basis Set:

    Orbital Energies (a.u.)
    -----------------------

    Doubly Occupied:

       1A    -20.614565     2A    -20.547955     3A    -11.380271
       4A    -11.238491     5A    -11.230090     6A    -11.222926
       7A    -11.221081     8A    -11.213042     9A     -1.474616
      10A     -1.364091    11A     -1.097898    12A     -1.041155
      13A     -0.960706    14A     -0.867143    15A     -0.820588
      16A     -0.783188    17A     -0.701081    18A     -0.688433
      19A     -0.652461    20A     -0.631374    21A     -0.616111
      22A     -0.593541    23A     -0.576852    24A     -0.556462
      25A     -0.539043    26A     -0.517928    27A     -0.496490
      28A     -0.483265    29A     -0.470508    30A     -0.467813
      31A     -0.458619    32A     -0.438039

  @DF-RHF Final Energy:  -383.94706612473539

   => Energetics <=

    Nuclear Repulsion Energy =            376.1494887516229824
    One-Electron Energy =               -1268.2614551600383948
    Two-Electron Energy =                 508.1649002836797990
    DFT Exchange-Correlation Energy =       0.0000000000000000
    Empirical Dispersion Energy =           0.0000000000000000
    PCM Polarization Energy =               0.0000000000000000
    EFP Energy =                            0.0000000000000000
    Total Energy =                       -383.9470661247355565
    Molecular point group: c1
  Basis Set: 6-31G*
  Basis Set:

  -Total Gradient:
     Atom            X                  Y                   Z
    ------   -----------------  -----------------  -----------------
       1        0.000004113715     0.000000347723     0.000002937961
       2        0.000006397791    -0.000019596554    -0.000017810485
       3       -0.000130677935     0.000759854790     0.000129159631
       4        0.000192273981    -0.000593358561     0.000323265636
       5        0.000070341316    -0.000464910051    -0.000126036990
       6       -0.000009532796    -0.000014414652    -0.000017358219
       7       -0.000141477031     0.000307522568    -0.000307362043
       8        0.000004411548     0.000018708353     0.000004826092
       9        0.000004253744    -0.000006283510    -0.000003692060
      10        0.000005113131     0.000007988016     0.000001240887
      11       -0.000009839279    -0.000003478764     0.000012971562
      12        0.000005646137    -0.000005908644     0.000001769012
      13        0.000002482134     0.000002691834    -0.000007097742
      14       -0.000001329700     0.000005099516     0.000002659004
      15        0.000001108085     0.000003472793     0.000004470419
      16       -0.000001684445     0.000001276634    -0.000000572281
      17       -0.000001929391     0.000000479149    -0.000003221553
      18        0.000001818208     0.000000803517    -0.000000858837
      19       -0.000001439894     0.000000190916     0.000000769968
      20       -0.000000049337    -0.000000485075    -0.000000059961

  **** Optimization is complete! (in 8 steps) ****
    Final optimized geometry and variables:
    Molecular point group: c1

    Geometry (in Angstrom), charge = 0, multiplicity = 1:

    H            3.779652065608    -0.064121634790     0.657159239499
    O            2.899879258231    -0.272006141962     0.957640946087
    C            2.065379129911    -0.102525637918    -0.064775914244
    C            0.629798070485    -0.402376471063     0.285229328320
    O            2.441503120403     0.252308099882    -1.135495792865
    C           -0.256724988130     0.834330601819     0.075422703895
    H            0.313289211682    -1.205139444334    -0.371059788187
    H            0.568866494547    -0.754397427931     1.307188395111
    C           -1.728292424747     0.607016115260     0.435744380016
    H           -0.171270831300     1.154670075669    -0.957546351178
    H            0.128893465723     1.646776990205     0.686190641146
    C           -2.466188444384    -0.386583029597    -0.465698656918
    H           -2.238249785793     1.566354600161     0.385196151129
    H           -1.801962769752     0.279996032001     1.471603312887
    C           -3.953164164362    -0.491354391929    -0.127203806662
    H           -2.352178156235    -0.081820411865    -1.503787770383
    H           -2.016529447562    -1.372578780583    -0.384761108185
    H           -4.454232014631    -1.202426018629    -0.776396758022
    H           -4.449804488363     0.467951040769    -0.240884293337
    H           -4.099707394005    -0.819277845627     0.898091942940

  Mulliken Charges: (a.u.)
   Center  Symbol    Alpha    Beta     Spin     Total
       1     H     0.26840  0.26840  0.00000  0.46321
       2     O     4.34764  4.34764  0.00000 -0.69528
       3     C     2.62657  2.62657  0.00000  0.74686
       4     C     3.20680  3.20680  0.00000 -0.41361
       5     O     4.28075  4.28075  0.00000 -0.56149
       6     C     3.16443  3.16443  0.00000 -0.32886
       7     H     0.39715  0.39715  0.00000  0.20571
       8     H     0.39995  0.39995  0.00000  0.20010
       9     C     3.15390  3.15390  0.00000 -0.30779
      10     H     0.40387  0.40387  0.00000  0.19225
      11     H     0.41406  0.41406  0.00000  0.17189
      12     C     3.15513  3.15513  0.00000 -0.31026
      13     H     0.41785  0.41785  0.00000  0.16431
      14     H     0.42227  0.42227  0.00000  0.15546
      15     C     3.23951  3.23951  0.00000 -0.47901
      16     H     0.41977  0.41977  0.00000  0.16047
      17     H     0.42219  0.42219  0.00000  0.15562
      18     H     0.41782  0.41782  0.00000  0.16436
      19     H     0.42068  0.42068  0.00000  0.15863
      20     H     0.42128  0.42128  0.00000  0.15744

   Total alpha = 32.00000, Total beta = 32.00000, Total charge =  0.00000
