  ==> Input File <==

--------------------------------------------------------------------------
set {
	reference rhf
	basis cc-pvtz
}

set_num_threads( 4 )
memory 2 gb

molecule MOL {
0 1

H	 0.141392	 -3.462118	 -1.214039
O	 0.387164	 -2.689139	 -0.728411
C	 -0.630937	 -1.833923	 -0.754794
C	 -0.318151	 -0.570512	 0.000144
O	 -1.642842	 -2.077192	 -1.315897
C	 -1.454884	 0.441630	 -0.000560
H	 -0.048925	 -0.859931	 1.010908
H	 0.582741	 -0.151488	 -0.436562
C	 -2.822577	 -0.232186	 0.000063
H	 -1.359760	 1.084704	 -0.867077
H	 -1.359641	 1.085996	 0.864983
H	 -2.954352	 -0.858985	 -0.875745
H	 -3.615886	 0.505352	 0.000019
H	 -2.953878	 -0.858359	 0.876394

	symmetry c1
}
set optking {
	frozen_dihedral = ("
		7 4 6 10
	")
}

ee = optimize('scf')
oeprop('DIPOLE', 'QUADRUPOLE', 'MULLIKEN_CHARGES')
f=open( 'psi4out.xyz', 'w' )
f.write( "14  " )
f.write( str(ee) + "\n" )
f.write( MOL.save_string_xyz() )
f.close()
--------------------------------------------------------------------------

    Molecular point group: c1
  Charge       = 0
  Multiplicity = 1
  Basis Set: CC-PVTZ
  Basis Set:
  @DF-RHF Final Energy:  -305.97965456610086
    Total Energy =                       -305.9796545661008622
    Molecular point group: c1
  Basis Set: CC-PVTZ
  Basis Set:
  Basis Set: CC-PVTZ
  Basis Set:
  @DF-RHF Final Energy:  -305.99138531619320
    Total Energy =                       -305.9913853161931456
  Basis Set: CC-PVTZ
  Basis Set:
  Basis Set: CC-PVTZ
  Basis Set:
  @DF-RHF Final Energy:  -305.99377369657202
    Total Energy =                       -305.9937736965721342
  Basis Set: CC-PVTZ
  Basis Set:
  Basis Set: CC-PVTZ
  Basis Set:
  @DF-RHF Final Energy:  -305.99224911098122
    Total Energy =                       -305.9922491109813905
  Basis Set: CC-PVTZ
  Basis Set:
  @DF-RHF Final Energy:  -305.99514608853343
    Total Energy =                       -305.9951460885337156
  @DF-RHF Final Energy:  -305.99563839427219
    Total Energy =                       -305.9956383942723050
  @DF-RHF Final Energy:  -305.99578138757028
    Total Energy =                       -305.9957813875704460
  Basis Set: CC-PVTZ
  Basis Set:
  @DF-RHF Final Energy:  -305.99601416873503
    Total Energy =                       -305.9960141687348596
  Basis Set: CC-PVTZ
  Basis Set:
  Basis Set: CC-PVTZ
  Basis Set:
  @DF-RHF Final Energy:  -305.99608236375337
    Total Energy =                       -305.9960823637532599
  Basis Set: CC-PVTZ
  Basis Set:
  Basis Set: CC-PVTZ
  Basis Set:
  @DF-RHF Final Energy:  -305.99609114796249
    Total Energy =                       -305.9960911479626020
  Basis Set: CC-PVTZ
  Basis Set:
  Charge       = 0
  Multiplicity = 1
  Basis Set: CC-PVTZ
  Basis Set:

    Orbital Energies (a.u.)
    -----------------------

    Doubly Occupied:

       1A    -20.605867     2A    -20.539421     3A    -11.374976
       4A    -11.240010     5A    -11.227894     6A    -11.208242
       7A     -1.478810     8A     -1.369395     9A     -1.081040
      10A     -0.978096    11A     -0.865577    12A     -0.790349
      13A     -0.706647    14A     -0.689877    15A     -0.661070
      16A     -0.618668    17A     -0.595081    18A     -0.570473
      19A     -0.554832    20A     -0.504007    21A     -0.490706
      22A     -0.482840    23A     -0.479459    24A     -0.443085

  @DF-RHF Final Energy:  -305.99609209509811

   => Energetics <=

    Nuclear Repulsion Energy =            245.4114789548399358
    One-Electron Energy =                -903.7023015811489586
    Two-Electron Energy =                 352.2947305312110302
    DFT Exchange-Correlation Energy =       0.0000000000000000
    Empirical Dispersion Energy =           0.0000000000000000
    PCM Polarization Energy =               0.0000000000000000
    EFP Energy =                            0.0000000000000000
    Total Energy =                       -305.9960920950979926
    Molecular point group: c1
  Basis Set: CC-PVTZ
  Basis Set:

  -Total Gradient:
     Atom            X                  Y                   Z
    ------   -----------------  -----------------  -----------------
       1        0.000012161020    -0.000024283963    -0.000006963541
       2       -0.000027261952     0.000011889405    -0.000032197677
       3       -0.000002318722     0.000043258901     0.000024530774
       4       -0.004568851101    -0.005337661248     0.000728969249
       5       -0.000005145031    -0.000027285848     0.000007682783
       6       -0.003328758561    -0.004021579816    -0.004102936407
       7        0.004276155019     0.005079779194     0.000075214642
       8        0.000019787764     0.000000104047     0.000000237690
       9       -0.000007227250     0.000003193520     0.000006264419
      10        0.003610634439     0.004305458858     0.003330456475
      11        0.000009537193    -0.000009373763    -0.000006354932
      12        0.000006363191    -0.000019782971    -0.000017661769
      13       -0.000000523274    -0.000006565571    -0.000002982874
      14        0.000005447266     0.000002849253    -0.000004258832

  **** Optimization is complete! (in 11 steps) ****
    Final optimized geometry and variables:
    Molecular point group: c1

    Geometry (in Angstrom), charge = 0, multiplicity = 1:

    H            1.110720033087    -2.372478339130    -0.475556236821
    O            1.210078910557    -1.647822251600     0.123907098888
    C            0.519944771083    -0.615872416496    -0.349437947871
    C            0.685241309714     0.617326514046     0.494628754789
    O           -0.103187752683    -0.684015117689    -1.352890311544
    C           -0.488642548784     1.603554184088     0.492429561872
    H            0.981622235212     0.353729690290     1.500528000112
    H            1.558311199852     1.114397888377     0.077333961085
    C           -1.874430901132     0.988647474226     0.652421471368
    H           -0.434128896583     2.236052358716    -0.384962992752
    H           -0.312684581399     2.277316402095     1.325847470644
    H           -2.143305430980     0.382559608455    -0.200220338809
    H           -2.618933101877     1.768397367709     0.760874469371
    H           -1.922000844786     0.365761497251     1.540703917601

  Mulliken Charges: (a.u.)
   Center  Symbol    Alpha    Beta     Spin     Total
       1     H     0.38110  0.38110  0.00000  0.23780
       2     O     4.15953  4.15953  0.00000 -0.31907
       3     C     2.79974  2.79974  0.00000  0.40052
       4     C     3.11231  3.11231  0.00000 -0.22462
       5     O     4.19718  4.19718  0.00000 -0.39435
       6     C     3.07976  3.07976  0.00000 -0.15953
       7     H     0.43357  0.43357  0.00000  0.13286
       8     H     0.43842  0.43842  0.00000  0.12317
       9     C     3.15760  3.15760  0.00000 -0.31521
      10     H     0.44774  0.44774  0.00000  0.10453
      11     H     0.45046  0.45046  0.00000  0.09908
      12     H     0.43822  0.43822  0.00000  0.12355
      13     H     0.44825  0.44825  0.00000  0.10351
      14     H     0.45612  0.45612  0.00000  0.08776

   Total alpha = 24.00000, Total beta = 24.00000, Total charge = -0.00000
