  ==> Input File <==

--------------------------------------------------------------------------
set {
	reference rhf
	basis 6-31G*
}

set_num_threads( 4 )
memory 2 gb

molecule MOL {
0 1

O	 1.846825	 1.296220	 0.000415
C	 1.705091	 0.115954	 0.001797
C	 0.381791	 -0.609817	 0.001258
O	 2.721346	 -0.737485	 -0.000216
C	 -0.823008	 0.326187	 0.001381
H	 0.371250	 -1.265087	 -0.865474
H	 0.370908	 -1.265746	 0.867490
C	 -0.449785	 1.752581	 0.407788
H	 -1.578755	 -0.063856	 0.675844
H	 -1.273243	 0.329709	 -0.986336
C	 -1.646828	 2.704898	 0.414127
H	 0.004435	 1.741892	 1.397518
H	 0.310076	 2.137214	 -0.270850
C	 -1.273078	 4.130228	 0.819093
H	 -2.405763	 2.323409	 1.093557
H	 -2.101113	 2.717335	 -0.574107
H	 -0.847321	 4.155396	 1.818248
H	 -2.142029	 4.780880	 0.813813
H	 -0.539846	 4.552307	 0.137529
C	 4.024888	 -0.184556	 -0.001949
H	 4.179030	 0.422472	 -0.882452
H	 4.701782	 -1.024608	 -0.003642
H	 4.181981	 0.421185	 0.878906

	symmetry c1
}
set optking {
	frozen_dihedral = ("
		9 5 3 6
	")
}

ee = optimize('scf')
oeprop('DIPOLE', 'QUADRUPOLE', 'MULLIKEN_CHARGES')
f=open( 'psi4out.xyz', 'w' )
f.write( "23  " )
f.write( str(ee) + "\n" )
f.write( MOL.save_string_xyz() )
f.close()
--------------------------------------------------------------------------

    Molecular point group: c1
  Charge       = 0
  Multiplicity = 1
  Basis Set: 6-31G*
  Basis Set:
  @DF-RHF Final Energy:  -422.93938601678758
    Total Energy =                       -422.9393860167876937
    Molecular point group: c1
  Basis Set: 6-31G*
  Basis Set:
  Basis Set: 6-31G*
  Basis Set:
  @DF-RHF Final Energy:  -422.95936540067078
    Total Energy =                       -422.9593654006705492
  Basis Set: 6-31G*
  Basis Set:
  Basis Set: 6-31G*
  Basis Set:
  @DF-RHF Final Energy:  -422.96303182681947
    Total Energy =                       -422.9630318268193605
  Basis Set: 6-31G*
  Basis Set:
  Basis Set: 6-31G*
  Basis Set:
  @DF-RHF Final Energy:  -422.96130353631656
    Total Energy =                       -422.9613035363165636
  Basis Set: 6-31G*
  Basis Set:
  @DF-RHF Final Energy:  -422.96489179086757
    Total Energy =                       -422.9648917908674548
  @DF-RHF Final Energy:  -422.96536280204066
    Total Energy =                       -422.9653628020405449
  @DF-RHF Final Energy:  -422.96597734784552
    Total Energy =                       -422.9659773478454099
  @DF-RHF Final Energy:  -422.96659092531604
    Total Energy =                       -422.9665909253162681
  @DF-RHF Final Energy:  -422.96715291758289
    Total Energy =                       -422.9671529175832347
  @DF-RHF Final Energy:  -422.96732825190452
    Total Energy =                       -422.9673282519053146
  @DF-RHF Final Energy:  -422.96758183954984
    Total Energy =                       -422.9675818395496663
  @DF-RHF Final Energy:  -422.96777411670280
    Total Energy =                       -422.9677741167026852
  @DF-RHF Final Energy:  -422.96806062151796
    Total Energy =                       -422.9680606215171110
  @DF-RHF Final Energy:  -422.96820091906750
    Total Energy =                       -422.9682009190676126
  Basis Set: 6-31G*
  Basis Set:
  @DF-RHF Final Energy:  -422.96805864379303
    Total Energy =                       -422.9680586437931424
  Basis Set: 6-31G*
  Basis Set:
  Basis Set: 6-31G*
  Basis Set:
  @DF-RHF Final Energy:  -422.96828620961054
    Total Energy =                       -422.9682862096103690
  Basis Set: 6-31G*
  Basis Set:
  Basis Set: 6-31G*
  Basis Set:
  @DF-RHF Final Energy:  -422.96829660616498
    Total Energy =                       -422.9682966061650404
  Basis Set: 6-31G*
  Basis Set:
  Charge       = 0
  Multiplicity = 1
  Basis Set: 6-31G*
  Basis Set:

    Orbital Energies (a.u.)
    -----------------------

    Doubly Occupied:

       1A    -20.605060     2A    -20.541655     3A    -11.370605
       4A    -11.280419     5A    -11.233827     6A    -11.230091
       7A    -11.218420     8A    -11.217417     9A    -11.210262
      10A     -1.468770    11A     -1.360543    12A     -1.093221
      13A     -1.041860    14A     -0.983548    15A     -0.935519
      16A     -0.847441    17A     -0.801336    18A     -0.767589
      19A     -0.689861    20A     -0.677375    21A     -0.672436
      22A     -0.650795    23A     -0.606819    24A     -0.599492
      25A     -0.576521    26A     -0.567494    27A     -0.548201
      28A     -0.530906    29A     -0.524315    30A     -0.507141
      31A     -0.490509    32A     -0.472669    33A     -0.467908
      34A     -0.457466    35A     -0.450172    36A     -0.430762

  @DF-RHF Final Energy:  -422.96829740477267

   => Energetics <=

    Nuclear Repulsion Energy =            471.4615878330683927
    One-Electron Energy =               -1510.6029189111950473
    Two-Electron Energy =                 616.1730336733537570
    DFT Exchange-Correlation Energy =       0.0000000000000000
    Empirical Dispersion Energy =           0.0000000000000000
    PCM Polarization Energy =               0.0000000000000000
    EFP Energy =                            0.0000000000000000
    Total Energy =                       -422.9682974047730113
    Molecular point group: c1
  Basis Set: 6-31G*
  Basis Set:

  -Total Gradient:
     Atom            X                  Y                   Z
    ------   -----------------  -----------------  -----------------
       1        0.000092322662     0.000058441503     0.000069662206
       2       -0.000055042508    -0.000115868693    -0.000098328238
       3       -0.002718325694    -0.003495176129     0.003749063509
       4       -0.000013963720     0.000067369753    -0.000033808566
       5       -0.002501551051    -0.001518598663    -0.004815941578
       6        0.002639553296     0.003173504340    -0.002454608071
       7       -0.000023690074     0.000019109601     0.000034678268
       8        0.000028759649     0.000024631271    -0.000245655341
       9        0.002550396564     0.001854947784     0.003556161757
      10        0.000049402173     0.000008045853     0.000024688169
      11        0.000007913260    -0.000002557782     0.000059952203
      12       -0.000006287573    -0.000029491953     0.000034854650
      13       -0.000032210016    -0.000048852379     0.000108780001
      14       -0.000005535333     0.000025820781    -0.000034865317
      15       -0.000001037282    -0.000002631580     0.000020436838
      16        0.000020576943    -0.000036033785     0.000027059329
      17       -0.000020608457     0.000002289120    -0.000002618798
      18        0.000007638529     0.000018111439    -0.000011071601
      19        0.000008454045    -0.000008948159     0.000010041127
      20       -0.000066208476    -0.000013926313     0.000004661543
      21        0.000006699844     0.000004193005    -0.000001277236
      22        0.000015859112     0.000006322348    -0.000000515861
      23        0.000016884101     0.000009298643    -0.000001348988

  **** Optimization is complete! (in 18 steps) ****
    Final optimized geometry and variables:
    Molecular point group: c1

    Geometry (in Angstrom), charge = 0, multiplicity = 1:

    O            1.312215985775    -0.662730746336    -1.649807430804
    C            0.900752288273    -1.095415809733    -0.620433877109
    C           -0.484194129315    -1.668444086721    -0.426549839384
    O            1.619451163236    -1.116261102538     0.493848014985
    C           -1.576841943704    -0.583475302712    -0.217658603062
    H           -0.688671585294    -2.212039827486    -1.340177331603
    H           -0.463423912172    -2.357851132995     0.406088226814
    C           -1.082244255970     0.766454306040     0.316255748538
    H           -2.290508194257    -0.971446613966     0.502456958987
    H           -2.105429244786    -0.423327007924    -1.150352674193
    C           -2.229729660077     1.747925495051     0.562486490525
    H           -0.535205895438     0.613437919689     1.243885918552
    H           -0.383958341605     1.207769225042    -0.389652945797
    C           -1.750146969348     3.104644215736     1.077128709935
    H           -2.927572488007     1.317014057158     1.277354420407
    H           -2.786497234286     1.889173835291    -0.361270192688
    H           -1.219982723709     3.001356230678     2.019688857954
    H           -2.584111065432     3.780382842535     1.239296974726
    H           -1.075236353927     3.575918822386     0.368497467929
    C            2.927673620397    -0.578689406475     0.423400180085
    H            3.521764149460    -1.119931723011    -0.298602927358
    H            3.346170462186    -0.689781635852     1.411573001544
    H            2.894775482207     0.464962682072     0.145434751898

  Mulliken Charges: (a.u.)
   Center  Symbol    Alpha    Beta     Spin     Total
       1     O     4.28634  4.28634  0.00000 -0.57268
       2     C     2.61776  2.61776  0.00000  0.76448
       3     C     3.19812  3.19812  0.00000 -0.39624
       4     O     4.30228  4.30228  0.00000 -0.60456
       5     C     3.15467  3.15467  0.00000 -0.30935
       6     H     0.39840  0.39840  0.00000  0.20320
       7     H     0.40166  0.40166  0.00000  0.19667
       8     C     3.16952  3.16952  0.00000 -0.33904
       9     H     0.41587  0.41587  0.00000  0.16827
      10     H     0.41153  0.41153  0.00000  0.17694
      11     C     3.15158  3.15158  0.00000 -0.30317
      12     H     0.41630  0.41630  0.00000  0.16740
      13     H     0.41214  0.41214  0.00000  0.17573
      14     C     3.23971  3.23971  0.00000 -0.47942
      15     H     0.42301  0.42301  0.00000  0.15398
      16     H     0.42136  0.42136  0.00000  0.15728
      17     H     0.42172  0.42172  0.00000  0.15656
      18     H     0.41867  0.41867  0.00000  0.16266
      19     H     0.42003  0.42003  0.00000  0.15995
      20     C     3.09307  3.09307  0.00000 -0.18615
      21     H     0.40826  0.40826  0.00000  0.18349
      22     H     0.40882  0.40882  0.00000  0.18236
      23     H     0.40919  0.40919  0.00000  0.18163

   Total alpha = 36.00000, Total beta = 36.00000, Total charge = -0.00000
