                              Psi4 1.0.54 Driver

  ==> Input File <==

--------------------------------------------------------------------------
set {
	reference rhf
	basis cc-pvtz
}

set_num_threads( 4 )
memory 2 gb

molecule MOL {
0 1

H	 -0.917456	 -3.702907	 0.642486
O	 -1.142475	 -2.821182	 0.386272
C	 -0.035459	 -2.084071	 0.397114
C	 -0.310616	 -0.658853	 0.000791
O	 1.017141	 -2.534320	 0.692547
C	 0.926581	 0.227233	 0.000178
H	 -1.067662	 -0.279340	 0.679450
H	 -0.778325	 -0.684505	 -0.978141
C	 2.220156	 -0.582071	 -0.000088
H	 0.899945	 0.878221	 -0.866390
H	 0.900542	 0.878581	 0.866486
C	 3.466689	 0.296012	 -0.000457
H	 2.239073	 -1.234095	 -0.869382
H	 2.239505	 -1.233985	 0.869270
H	 3.493549	 0.935857	 -0.875887
H	 4.368821	 -0.304526	 -0.001199
H	 3.494559	 0.935166	 0.875458

	symmetry c1
}
set optking {
	frozen_dihedral = ("
		7 4 6 10
	")
}

ee,wfn = optimize('scf', return_wfn=True)
oeprop( wfn, 'DIPOLE', 'QUADRUPOLE', 'MULLIKEN_CHARGES')
f=open( 'psi4out.xyz', 'w' )
f.write( "17  " )
f.write( str(ee) + "\n" )
f.write( MOL.save_string_xyz() )
f.close()
--------------------------------------------------------------------------

    Molecular point group: c1
  Charge       = 0
  Multiplicity = 1
  Basis Set: CC-PVTZ
  Basis Set:
  @DF-RHF Final Energy:  -345.01381676623743
    Total Energy =                       -345.0138167662372553
    Molecular point group: c1
  Basis Set: CC-PVTZ
  Basis Set:
  Basis Set: CC-PVTZ
  Basis Set:
  @DF-RHF Final Energy:  -345.03245627031407
    Total Energy =                       -345.0324562703141851
  Basis Set: CC-PVTZ
  Basis Set:
  Basis Set: CC-PVTZ
  Basis Set:
  @DF-RHF Final Energy:  -345.03565548268568
    Total Energy =                       -345.0356554826854563
  Basis Set: CC-PVTZ
  Basis Set:
  Basis Set: CC-PVTZ
  Basis Set:
  @DF-RHF Final Energy:  -345.03406428071486
    Total Energy =                       -345.0340642807144604
  Basis Set: CC-PVTZ
  Basis Set:
  @DF-RHF Final Energy:  -345.03745565371526
    Total Energy =                       -345.0374556537152557
  @DF-RHF Final Energy:  -345.03784040110673
    Total Energy =                       -345.0378404011065072
  @DF-RHF Final Energy:  -345.03829803724108
    Total Energy =                       -345.0382980372411339
  @DF-RHF Final Energy:  -345.03836687478486
    Total Energy =                       -345.0383668747849697
  @DF-RHF Final Energy:  -345.03912338436129
    Total Energy =                       -345.0391233843614032
  @DF-RHF Final Energy:  -345.03966861948635
    Total Energy =                       -345.0396686194864060
  @DF-RHF Final Energy:  -345.04004454122691
    Total Energy =                       -345.0400445412266777
  @DF-RHF Final Energy:  -345.04013321273533
    Total Energy =                       -345.0401332127354408
  @DF-RHF Final Energy:  -345.04034065112387
    Total Energy =                       -345.0403406511239837
  @DF-RHF Final Energy:  -345.04042759117107
    Total Energy =                       -345.0404275911708964
  @DF-RHF Final Energy:  -345.04051647245615
    Total Energy =                       -345.0405164724561473
  @DF-RHF Final Energy:  -345.04055586143835
    Total Energy =                       -345.0405558614382926
  @DF-RHF Final Energy:  -345.04057084355884
    Total Energy =                       -345.0405708435584984
  Basis Set: CC-PVTZ
  Basis Set:
  @DF-RHF Final Energy:  -345.04058080959260
    Total Energy =                       -345.0405808095925408
  Basis Set: CC-PVTZ
  Basis Set:
  Basis Set: CC-PVTZ
  Basis Set:
  @DF-RHF Final Energy:  -345.04058479081482
    Total Energy =                       -345.0405847908146484
  Basis Set: CC-PVTZ
  Basis Set:
  Basis Set: CC-PVTZ
  Basis Set:
  @DF-RHF Final Energy:  -345.04058632023197
    Total Energy =                       -345.0405863202319097
  Basis Set: CC-PVTZ
  Basis Set:
  Charge       = 0
  Multiplicity = 1
  Basis Set: CC-PVTZ
  Basis Set:

    Orbital Energies (a.u.)
    -----------------------

    Doubly Occupied:

       1A    -20.605404     2A    -20.537269     3A    -11.372537
       4A    -11.237878     5A    -11.231751     6A    -11.220033
       7A    -11.211933     8A     -1.477454     9A     -1.367393
      10A     -1.091598    11A     -1.017555    12A     -0.911815
      13A     -0.838706    14A     -0.790407    15A     -0.706091
      16A     -0.682055    17A     -0.649103    18A     -0.645203
      19A     -0.592010    20A     -0.588096    21A     -0.575093
      22A     -0.542889    23A     -0.519377    24A     -0.489663
      25A     -0.485925    26A     -0.471948    27A     -0.467345
      28A     -0.439921

  @DF-RHF Final Energy:  -345.04058655802294

   => Energetics <=

    Nuclear Repulsion Energy =            314.2425961846980726
    One-Electron Energy =               -1093.0334639276245525
    Two-Electron Energy =                 433.7502811849032014
    DFT Exchange-Correlation Energy =       0.0000000000000000
    Empirical Dispersion Energy =           0.0000000000000000
    PCM Polarization Energy =               0.0000000000000000
    EFP Energy =                            0.0000000000000000
    Total Energy =                       -345.0405865580232785
    Molecular point group: c1
  Basis Set: CC-PVTZ
  Basis Set:

  -Total Gradient:
     Atom            X                  Y                   Z
    ------   -----------------  -----------------  -----------------
       1        0.000002479201     0.000000653721     0.000004882220
       2       -0.000022920688     0.000061716409     0.000121589788
       3        0.000009752315    -0.000105309657     0.000068163587
       4       -0.001584780421     0.002897042259    -0.004784153414
       5        0.000009466712     0.000058436624    -0.000216198898
       6       -0.002857908261     0.002841995563     0.003956702799
       7        0.001734556424    -0.002856028481     0.003449909238
       8        0.000004395137    -0.000007744501     0.000011603339
       9       -0.000009166565    -0.000001831788    -0.000007014406
      10        0.002705731511    -0.002893556716    -0.002606696573
      11        0.000004428130    -0.000001656921    -0.000003105151
      12        0.000005617044     0.000005309979     0.000000692766
      13        0.000000839375     0.000006017641     0.000004371714
      14       -0.000003367417    -0.000000793788    -0.000001304346
      15        0.000000053752    -0.000004093096     0.000002366525
      16        0.000001859780     0.000002503841     0.000001855446
      17       -0.000001036028    -0.000002661092    -0.000003664631

  **** Optimization is complete! (in 21 steps) ****
    Final optimized geometry and variables:
    Molecular point group: c1

    Geometry (in Angstrom), charge = 0, multiplicity = 1:

    H           -0.487125167775    -2.628130796213    -0.582296255091
    O           -0.672120450593    -1.759939596919    -0.908767003054
    C           -0.946143036668    -0.973735036292     0.126844580467
    C           -1.242130110800     0.449955441266    -0.270951561461
    O           -0.948987733754    -1.379721835545     1.238564343069
    C           -0.036653553568     1.407788509929    -0.082863746445
    H           -2.046162333093     0.753170263754     0.384492323622
    H           -1.585676896503     0.461577619315    -1.294230949875
    C            1.347289074970     0.755126562492    -0.094967790381
    H           -0.059005822803     2.122242121623    -0.897736072828
    H           -0.158839319164     1.958644622633     0.840821144365
    C            2.465340667123     1.785460348042     0.023132333441
    H            1.475176741522     0.188956165029    -1.012296594271
    H            1.428164720760     0.047731023923     0.722883853220
    H            2.439947797856     2.490124138363    -0.801381254075
    H            3.437389076168     1.306700090403     0.018954623310
    H            2.379786387397     2.351614276154     0.944500114581

  Mulliken Charges: (a.u.)
   Center  Symbol    Alpha    Beta     Spin     Total
       1     H     0.38061  0.38061  0.00000  0.23878
       2     O     4.16648  4.16648  0.00000 -0.33296
       3     C     2.79072  2.79072  0.00000  0.41857
       4     C     3.10028  3.10028  0.00000 -0.20056
       5     O     4.20326  4.20326  0.00000 -0.40651
       6     C     3.09068  3.09068  0.00000 -0.18136
       7     H     0.43574  0.43574  0.00000  0.12852
       8     H     0.43889  0.43889  0.00000  0.12221
       9     C     3.09778  3.09778  0.00000 -0.19555
      10     H     0.45013  0.45013  0.00000  0.09973
      11     H     0.44668  0.44668  0.00000  0.10664
      12     C     3.15137  3.15137  0.00000 -0.30274
      13     H     0.44643  0.44643  0.00000  0.10714
      14     H     0.44489  0.44489  0.00000  0.11022
      15     H     0.45535  0.45535  0.00000  0.08930
      16     H     0.44680  0.44680  0.00000  0.10639
      17     H     0.45391  0.45391  0.00000  0.09219

   Total alpha = 28.00000, Total beta = 28.00000, Total charge = -0.00000

*** Psi4 exiting successfully. Buy a developer a beer!
