                              Psi4 1.0.54 Driver

  ==> Input File <==

--------------------------------------------------------------------------
set {
	reference rhf
	basis cc-pvtz
}

set_num_threads( 4 )
memory 2 gb

molecule MOL {
0 1

H	 2.731420	 1.857619	 0.651214
O	 3.467178	 1.508033	 0.184011
C	 3.620442	 0.142907	 0.470744
C	 2.560122	 -0.735502	 -0.176407
H	 4.596506	 -0.130449	 0.093178
H	 3.634229	 -0.019608	 1.546777
C	 1.144935	 -0.498453	 0.345994
H	 2.585678	 -0.573714	 -1.249873
H	 2.836984	 -1.773279	 -0.006805
C	 0.113298	 -1.420414	 -0.302504
H	 0.866432	 0.535324	 0.170659
H	 1.129241	 -0.648306	 1.424226
C	 -1.311023	 -1.277304	 0.237018
H	 0.108786	 -1.251387	 -1.376578
H	 0.432370	 -2.449220	 -0.160305
C	 -2.041121	 -0.006551	 -0.194127
H	 -1.888548	 -2.136293	 -0.093331
H	 -1.289731	 -1.328757	 1.323321
C	 -3.489218	 0.042606	 0.286507
H	 -2.022185	 0.066287	 -1.279394
H	 -1.518764	 0.869305	 0.178730
C	 -4.219984	 1.311773	 -0.139038
H	 -4.022855	 -0.824300	 -0.093339
H	 -3.510372	 -0.038577	 1.370031
H	 -4.244251	 1.405725	 -1.219696
H	 -5.244345	 1.313233	 0.215630
H	 -3.732090	 2.196311	 0.257073

	symmetry c1
}
set optking {
	frozen_dihedral = ("
		14 10 13 16
	")
}

ee,wfn = optimize('scf', return_wfn=True)
oeprop( wfn, 'DIPOLE', 'QUADRUPOLE', 'MULLIKEN_CHARGES')
f=open( 'psi4out.xyz', 'w' )
f.write( "27  " )
f.write( str(ee) + "\n" )
f.write( MOL.save_string_xyz() )
f.close()
--------------------------------------------------------------------------

    Molecular point group: c1
  Charge       = 0
  Multiplicity = 1
  Basis Set: CC-PVTZ
  Basis Set:
  @DF-RHF Final Energy:  -388.42764196368574
    Total Energy =                       -388.4276419636851188
    Molecular point group: c1
  Basis Set: CC-PVTZ
  Basis Set:
  Basis Set: CC-PVTZ
  Basis Set:
  @DF-RHF Final Energy:  -388.42765417562418
    Total Energy =                       -388.4276541756242977
  Basis Set: CC-PVTZ
  Basis Set:
  Basis Set: CC-PVTZ
  Basis Set:
  @DF-RHF Final Energy:  -388.42768874887827
    Total Energy =                       -388.4276887488779266
  Basis Set: CC-PVTZ
  Basis Set:
  Basis Set: CC-PVTZ
  Basis Set:
  @DF-RHF Final Energy:  -388.42769011432978
    Total Energy =                       -388.4276901143296072
  Basis Set: CC-PVTZ
  Basis Set:
  Charge       = 0
  Multiplicity = 1
  Basis Set: CC-PVTZ
  Basis Set:

    Orbital Energies (a.u.)
    -----------------------

    Doubly Occupied:

       1A    -20.545366     2A    -11.264982     3A    -11.216739
       4A    -11.214635     5A    -11.213821     6A    -11.213215
       7A    -11.213151     8A    -11.211817     9A    -11.207174
      10A     -1.363264    11A     -1.096134    12A     -1.062632
      13A     -1.012499    14A     -0.949538    15A     -0.888006
      16A     -0.820579    17A     -0.800694    18A     -0.780030
      19A     -0.696365    20A     -0.651133    21A     -0.641068
      22A     -0.615840    23A     -0.601856    24A     -0.582902
      25A     -0.581365    26A     -0.553560    27A     -0.542045
      28A     -0.531474    29A     -0.505879    30A     -0.494772
      31A     -0.485123    32A     -0.474520    33A     -0.469839
      34A     -0.462229    35A     -0.452079    36A     -0.442707
      37A     -0.425492

  @DF-RHF Final Energy:  -388.42769046606332

   => Energetics <=

    Nuclear Repulsion Energy =            459.8391347691830902
    One-Electron Energy =               -1437.9645962016138583
    Two-Electron Energy =                 589.6977709663672158
    DFT Exchange-Correlation Energy =       0.0000000000000000
    Empirical Dispersion Energy =           0.0000000000000000
    PCM Polarization Energy =               0.0000000000000000
    EFP Energy =                            0.0000000000000000
    Total Energy =                       -388.4276904660634955
    Molecular point group: c1
  Basis Set: CC-PVTZ
  Basis Set:

  -Total Gradient:
     Atom            X                  Y                   Z
    ------   -----------------  -----------------  -----------------
       1        0.000020779784    -0.000016950967    -0.000006855329
       2        0.000010784820     0.000009905567    -0.000003903702
       3       -0.000026132852    -0.000011670878     0.000035857902
       4       -0.000001292566     0.000005004062    -0.000031587216
       5       -0.000021312204     0.000008988323     0.000004221442
       6        0.000004732312     0.000008250861    -0.000005334841
       7       -0.000001501327     0.000022583529     0.000005811875
       8       -0.000010301989    -0.000005751739     0.000004723014
       9       -0.000007591837     0.000014921789    -0.000004749908
      10       -0.000255939375    -0.001223796178    -0.000370987226
      11        0.000014533817    -0.000028606151    -0.000003168515
      12       -0.000006085557    -0.000000451843    -0.000004853336
      13        0.000353621173     0.000666819029     0.000791709396
      14        0.000127741033     0.000885705310     0.000152666547
      15       -0.000007291490    -0.000006762543    -0.000006341700
      16       -0.000229356062    -0.000313444635    -0.000561531897
      17        0.000005673842    -0.000002093152    -0.000000368137
      18        0.000014751214     0.000002881276    -0.000009558120
      19        0.000004768872     0.000004893653     0.000017289576
      20        0.000005345701     0.000004039620     0.000004064560
      21       -0.000025011289    -0.000022190427    -0.000003852295
      22        0.000004208263     0.000000962139    -0.000000249422
      23        0.000013889975     0.000016092631     0.000002116203
      24       -0.000002256528    -0.000002113070    -0.000003498745
      25        0.000001273496     0.000001951306     0.000007205573
      26        0.000020656701    -0.000005624689    -0.000005758504
      27       -0.000008687924    -0.000013542825    -0.000003067191

  **** Optimization is complete! (in 5 steps) ****
    Final optimized geometry and variables:
    Molecular point group: c1

    Geometry (in Angstrom), charge = 0, multiplicity = 1:

    H            2.655402392062     1.925240626608     0.643342630199
    O            3.399631559717     1.597102589560     0.174293823783
    C            3.574131724439     0.229503339513     0.435759721491
    C            2.532559474869    -0.653821545279    -0.234519202516
    H            4.556845840608    -0.020158983096     0.059153297043
    H            3.584285288276     0.046726106735     1.508517779819
    C            1.109859457793    -0.446878268796     0.279780870279
    H            2.564425065090    -0.474177606741    -1.304876110692
    H            2.823738791289    -1.689963271668    -0.079491801032
    C            0.099135848648    -1.385779727138    -0.378181486111
    H            0.811722765052     0.582248266043     0.108206613891
    H            1.090467257404    -0.602549341234     1.356887296787
    C           -1.336017602394    -1.238171938676     0.132155344127
    H            0.115640048256    -1.224600599863    -1.453161186870
    H            0.423831645363    -2.409608793846    -0.216856988862
    C           -2.051407084091     0.031511480932    -0.326011774796
    H           -1.911251520488    -2.095306585443    -0.206704656356
    H           -1.338646502878    -1.284894338717     1.218667868113
    C           -3.496392340890     0.113025000213     0.158982097812
    H           -2.036165683103     0.075508311257    -1.412579323622
    H           -1.515079594765     0.909754217892     0.021087762658
    C           -4.213903404630     1.377015731262    -0.302724509927
    H           -4.041994725309    -0.758744635885    -0.191598013310
    H           -3.513679297095     0.065686423387     1.244497149952
    H           -4.242819244964     1.437214595164    -1.385618766806
    H           -5.236184921408     1.402280977490     0.056799823366
    H           -3.713127472077     2.267436151959     0.062791636618

  Mulliken Charges: (a.u.)
   Center  Symbol    Alpha    Beta     Spin     Total
       1     H     0.39230  0.39230  0.00000  0.21541
       2     O     4.20550  4.20550  0.00000 -0.41100
       3     C     2.97988  2.97988  0.00000  0.04023
       4     C     3.08926  3.08926  0.00000 -0.17851
       5     H     0.44863  0.44863  0.00000  0.10274
       6     H     0.46963  0.46963  0.00000  0.06074
       7     C     3.10149  3.10149  0.00000 -0.20298
       8     H     0.45064  0.45064  0.00000  0.09872
       9     H     0.45536  0.45536  0.00000  0.08928
      10     C     3.09893  3.09893  0.00000 -0.19785
      11     H     0.45644  0.45644  0.00000  0.08712
      12     H     0.45397  0.45397  0.00000  0.09206
      13     C     3.09837  3.09837  0.00000 -0.19675
      14     H     0.45222  0.45222  0.00000  0.09556
      15     H     0.44749  0.44749  0.00000  0.10501
      16     C     3.08664  3.08664  0.00000 -0.17328
      17     H     0.44778  0.44778  0.00000  0.10444
      18     H     0.45428  0.45428  0.00000  0.09144
      19     C     3.08424  3.08424  0.00000 -0.16847
      20     H     0.45431  0.45431  0.00000  0.09138
      21     H     0.45565  0.45565  0.00000  0.08871
      22     C     3.14955  3.14955  0.00000 -0.29909
      23     H     0.45391  0.45391  0.00000  0.09217
      24     H     0.45465  0.45465  0.00000  0.09069
      25     H     0.45488  0.45488  0.00000  0.09025
      26     H     0.44833  0.44833  0.00000  0.10333
      27     H     0.45568  0.45568  0.00000  0.08865

   Total alpha = 37.00000, Total beta = 37.00000, Total charge = -0.00000

*** Psi4 exiting successfully. Buy a developer a beer!
