  ==> Input File <==

--------------------------------------------------------------------------
set {
	reference rhf
	basis 6-31G*
}

set_num_threads( 1 )
memory 2 gb

molecule MOL {
0 1

H	 0.413399	 -0.996766	 -4.559018
O	 1.340611	 -1.180529	 -4.598773
C	 2.010059	 -0.457414	 -3.597275
C	 1.770215	 -1.008236	 -2.195919
H	 3.062743	 -0.523131	 -3.840607
H	 1.734021	 0.595621	 -3.638495
C	 0.314104	 -0.918490	 -1.732719
H	 2.097612	 -2.044385	 -2.171970
H	 2.404816	 -0.458873	 -1.502487
C	 0.115918	 -1.429151	 -0.302766
H	 -0.312552	 -1.489599	 -2.412058
H	 -0.021522	 0.116978	 -1.791904
C	 -1.309753	 -1.282496	 0.241564
H	 0.414994	 -2.474498	 -0.251275
H	 0.792850	 -0.887942	 0.354924
C	 -2.037799	 -0.007733	 -0.193645
H	 -1.890610	 -2.142323	 -0.085726
H	 -1.285946	 -1.330893	 1.329189
C	 -3.489788	 0.042957	 0.286558
H	 -2.017067	 0.064384	 -1.280144
H	 -1.513726	 0.868678	 0.179924
C	 -4.216917	 1.317354	 -0.141063
H	 -4.025645	 -0.823308	 -0.095450
H	 -3.513059	 -0.038752	 1.371301
H	 -4.239342	 1.411634	 -1.223113
H	 -5.243387	 1.322503	 0.212445
H	 -3.726170	 2.201406	 0.256408

	symmetry c1
}
set optking {
	frozen_dihedral = ("
		14 10 7 4,
		10 7 4 8,
		8 4 3 2,
		10 13 16 20,
		20 16 19 22,
		4 3 2 1
	")
}

ee = energy('scf')
oeprop('DIPOLE', 'QUADRUPOLE', 'MULLIKEN_CHARGES')
f=open( 'psi4out.xyz', 'w' )
f.write( "27  " )
f.write( str(ee) + "\n" )
f.write( MOL.save_string_xyz() )
f.close()
--------------------------------------------------------------------------

    Molecular point group: c1

    Geometry (in Angstrom), charge = 0, multiplicity = 1:

       Center              X                  Y                   Z               Mass
    ------------   -----------------  -----------------  -----------------  -----------------
           H          1.010353739268    -0.455161555800    -3.141436512213     1.007825032070
           O          1.937565739268    -0.638924555800    -3.181191512213    15.994914619560
           C          2.607013739268     0.084190444200    -2.179693512213    12.000000000000
           C          2.367169739268    -0.466631555800    -0.778337512213    12.000000000000
           H          3.659697739268     0.018473444200    -2.423025512213     1.007825032070
           H          2.330975739268     1.137225444200    -2.220913512213     1.007825032070
           C          0.911058739268    -0.376885555800    -0.315137512213    12.000000000000
           H          2.694566739268    -1.502780555800    -0.754388512213     1.007825032070
           H          3.001770739268     0.082731444200    -0.084905512213     1.007825032070
           C          0.712872739268    -0.887546555800     1.114815487787    12.000000000000
           H          0.284402739268    -0.947994555800    -0.994476512213     1.007825032070
           H          0.575432739268     0.658582444200    -0.374322512213     1.007825032070
           C         -0.712798260732    -0.740891555800     1.659145487787    12.000000000000
           H          1.011948739268    -1.932893555800     1.166306487787     1.007825032070
           H          1.389804739268    -0.346337555800     1.772505487787     1.007825032070
           C         -1.440844260732     0.533871444200     1.223936487787    12.000000000000
           H         -1.293655260732    -1.600718555800     1.331855487787     1.007825032070
           H         -0.688991260732    -0.789288555800     2.746770487787     1.007825032070
           C         -2.892833260732     0.584561444200     1.704139487787    12.000000000000
           H         -1.420112260732     0.605988444200     0.137437487787     1.007825032070
           H         -0.916771260732     1.410282444200     1.597505487787     1.007825032070
           C         -3.619962260732     1.858958444200     1.276518487787    12.000000000000
           H         -3.428690260732    -0.281703555800     1.322131487787     1.007825032070
           H         -2.916104260732     0.502852444200     2.788882487787     1.007825032070
           H         -3.642387260732     1.953238444200     0.194468487787     1.007825032070
           H         -4.646432260732     1.864107444200     1.630026487787     1.007825032070
           H         -3.129215260732     2.743010444200     1.673989487787     1.007825032070

  Charge       = 0
  Multiplicity = 1
  Basis Set: 6-31G*
  Basis Set:

    Orbital Energies (a.u.)
    -----------------------

    Doubly Occupied:

       1A    -20.552209     2A    -11.266927     3A    -11.219404
       4A    -11.217020     5A    -11.216420     6A    -11.215547
       7A    -11.214842     8A    -11.214720     9A    -11.210177
      10A     -1.358961    11A     -1.096791    12A     -1.060760
      13A     -1.011657    14A     -0.947305    15A     -0.891039
      16A     -0.819975    17A     -0.807708    18A     -0.770728
      19A     -0.694065    20A     -0.652513    21A     -0.638741
      22A     -0.612569    23A     -0.606154    24A     -0.584629
      25A     -0.576712    26A     -0.552975    27A     -0.547070
      28A     -0.524814    29A     -0.505648    30A     -0.500454
      31A     -0.487343    32A     -0.474752    33A     -0.462975
      34A     -0.457484    35A     -0.452372    36A     -0.442722
      37A     -0.423271

  @DF-RHF Final Energy:  -388.27713261555755

   => Energetics <=

    Nuclear Repulsion Energy =            463.0599575054136494
    One-Electron Energy =               -1444.0953944497550765
    Two-Electron Energy =                 592.7583043287841065
    DFT Exchange-Correlation Energy =       0.0000000000000000
    Empirical Dispersion Energy =           0.0000000000000000
    PCM Polarization Energy =               0.0000000000000000
    EFP Energy =                            0.0000000000000000
    Total Energy =                       -388.2771326155573206

  Mulliken Charges: (a.u.)
   Center  Symbol    Alpha    Beta     Spin     Total
       1     H     0.28003  0.28003  0.00000  0.43995
       2     O     4.37096  4.37096  0.00000 -0.74192
       3     C     2.99739  2.99739  0.00000  0.00522
       4     C     3.15994  3.15994  0.00000 -0.31987
       5     H     0.41444  0.41444  0.00000  0.17113
       6     H     0.43214  0.43214  0.00000  0.13572
       7     C     3.16770  3.16770  0.00000 -0.33540
       8     H     0.41539  0.41539  0.00000  0.16922
       9     H     0.42426  0.42426  0.00000  0.15148
      10     C     3.15120  3.15120  0.00000 -0.30241
      11     H     0.42531  0.42531  0.00000  0.14937
      12     H     0.42043  0.42043  0.00000  0.15914
      13     C     3.15305  3.15305  0.00000 -0.30610
      14     H     0.41898  0.41898  0.00000  0.16204
      15     H     0.42345  0.42345  0.00000  0.15310
      16     C     3.15603  3.15603  0.00000 -0.31206
      17     H     0.42349  0.42349  0.00000  0.15302
      18     H     0.42044  0.42044  0.00000  0.15912
      19     C     3.15045  3.15045  0.00000 -0.30090
      20     H     0.42221  0.42221  0.00000  0.15559
      21     H     0.42421  0.42421  0.00000  0.15157
      22     C     3.23918  3.23918  0.00000 -0.47836
      23     H     0.42291  0.42291  0.00000  0.15419
      24     H     0.42298  0.42298  0.00000  0.15404
      25     H     0.42255  0.42255  0.00000  0.15490
      26     H     0.41893  0.41893  0.00000  0.16214
      27     H     0.42196  0.42196  0.00000  0.15608

   Total alpha = 37.00000, Total beta = 37.00000, Total charge =  0.00000
