                              Psi4 1.0.54 Driver

  ==> Input File <==

--------------------------------------------------------------------------
set {
	reference rhf
	basis cc-pvtz
}

set_num_threads( 4 )
memory 2 gb

molecule MOL {
0 1

H	 -2.623072	 1.153927	 -2.024914
C	 -1.873393	 0.539819	 -1.569765
C	 -2.105997	 -0.000418	 -0.398703
H	 -0.948393	 0.381462	 -2.088511
O	 -1.189946	 -0.765863	 0.237511
H	 -3.032625	 0.144756	 0.126093
C	 0.026572	 -0.995256	 -0.379403
C	 1.057223	 0.049888	 -0.004615
H	 -0.054361	 -1.010670	 -1.459674
H	 0.397526	 -1.952058	 -0.044198
F	 2.203233	 -0.234060	 -0.590375
F	 0.698147	 1.254887	 -0.392621
F	 1.266440	 0.094219	 1.288722

	symmetry c1
}
set optking {
	frozen_dihedral = ("
		6 3 5 7
	")
}

ee,wfn = optimize('scf', return_wfn=True)
oeprop( wfn, 'DIPOLE', 'QUADRUPOLE', 'MULLIKEN_CHARGES')
f=open( 'psi4out.xyz', 'w' )
f.write( "13  " )
f.write( str(ee) + "\n" )
f.write( MOL.save_string_xyz() )
f.close()
--------------------------------------------------------------------------

    Molecular point group: c1
  Charge       = 0
  Multiplicity = 1
  Basis Set: CC-PVTZ
  Basis Set:
  @DF-RHF Final Energy:  -527.73347371677596
    Total Energy =                       -527.7334737167761887
    Molecular point group: c1
  Basis Set: CC-PVTZ
  Basis Set:
  Basis Set: CC-PVTZ
  Basis Set:
  @DF-RHF Final Energy:  -527.63341099005572
    Total Energy =                       -527.6334109900557223
  Basis Set: CC-PVTZ
  Basis Set:
  Basis Set: CC-PVTZ
  Basis Set:
  @DF-RHF Final Energy:  -527.71950822013400
    Total Energy =                       -527.7195082201342302
  Basis Set: CC-PVTZ
  Basis Set:
  Basis Set: CC-PVTZ
  Basis Set:
  @DF-RHF Final Energy:  -527.73884735925299
    Total Energy =                       -527.7388473592532137
  Basis Set: CC-PVTZ
  Basis Set:
  @DF-RHF Final Energy:  -527.72824063645226
    Total Energy =                       -527.7282406364518010
  @DF-RHF Final Energy:  -527.74067472366767
    Total Energy =                       -527.7406747236677802
  @DF-RHF Final Energy:  -527.74101677550152
    Total Energy =                       -527.7410167755015209
  @DF-RHF Final Energy:  -527.74107824347584
    Total Energy =                       -527.7410782434756129
  @DF-RHF Final Energy:  -527.74109773319537
    Total Energy =                       -527.7410977331951472
  Basis Set: CC-PVTZ
  Basis Set:
  @DF-RHF Final Energy:  -527.74110205395652
    Total Energy =                       -527.7411020539568653
  Basis Set: CC-PVTZ
  Basis Set:
  Basis Set: CC-PVTZ
  Basis Set:
  @DF-RHF Final Energy:  -527.74110503491909
    Total Energy =                       -527.7411050349187462
  Basis Set: CC-PVTZ
  Basis Set:
  Basis Set: CC-PVTZ
  Basis Set:
  @DF-RHF Final Energy:  -527.74110750811315
    Total Energy =                       -527.7411075081129184
  Basis Set: CC-PVTZ
  Basis Set:
  Charge       = 0
  Multiplicity = 1
  Basis Set: CC-PVTZ
  Basis Set:

    Orbital Energies (a.u.)
    -----------------------

    Doubly Occupied:

       1A    -26.339693     2A    -26.337537     3A    -26.335972
       4A    -20.607045     5A    -11.496722     6A    -11.317256
       7A    -11.302964     8A    -11.217770     9A     -1.748423
      10A     -1.644701    11A     -1.642991    12A     -1.445278
      13A     -1.083838    14A     -1.027618    15A     -0.939406
      16A     -0.845134    17A     -0.837916    18A     -0.832302
      19A     -0.772270    20A     -0.735249    21A     -0.716281
      22A     -0.707401    23A     -0.682574    24A     -0.665895
      25A     -0.663206    26A     -0.648527    27A     -0.638344
      28A     -0.601695    29A     -0.551616    30A     -0.527642
      31A     -0.522704    32A     -0.361946

  @DF-RHF Final Energy:  -527.74110816899781

   => Energetics <=

    Nuclear Repulsion Energy =            418.4984480000637177
    One-Electron Energy =               -1560.8832825562080870
    Two-Electron Energy =                 614.6437263871465575
    DFT Exchange-Correlation Energy =       0.0000000000000000
    Empirical Dispersion Energy =           0.0000000000000000
    PCM Polarization Energy =               0.0000000000000000
    EFP Energy =                            0.0000000000000000
    Total Energy =                       -527.7411081689978118
    Molecular point group: c1
  Basis Set: CC-PVTZ
  Basis Set:

  -Total Gradient:
     Atom            X                  Y                   Z
    ------   -----------------  -----------------  -----------------
       1       -0.000006505412    -0.000005696642     0.000018227650
       2       -0.000012661702     0.000056389956    -0.000061195312
       3       -0.000798050739    -0.000539870367    -0.000281310683
       4        0.000009286948    -0.000014102389     0.000007454712
       5       -0.001133121560    -0.000497411163    -0.000454306702
       6        0.001036519346     0.000564899215     0.000423139468
       7        0.000890710649     0.000439595493     0.000339381166
       8        0.000032640184    -0.000007390952    -0.000115930480
       9        0.000008860794    -0.000003308520     0.000010627085
      10        0.000004589220    -0.000009989599     0.000006022341
      11       -0.000029400371     0.000008445076     0.000026838437
      12       -0.000004219011     0.000031679328     0.000003720820
      13        0.000001351660    -0.000023239433     0.000077331500

  **** Optimization is complete! (in 13 steps) ****
    Final optimized geometry and variables:
    Molecular point group: c1

    Geometry (in Angstrom), charge = 0, multiplicity = 1:

    H           -2.174297589326     2.853609458640    -1.123783991014
    C           -1.718617088525     1.895703921170    -0.977558685763
    C           -1.890126455747     1.299959431092     0.181258621273
    H           -1.136228030688     1.499811730437    -1.783828327327
    O           -1.441310449922     0.100777928022     0.603863367188
    H           -2.452044411679     1.765017323951     0.966594396402
    C           -0.681476047039    -0.718519707688    -0.216573509220
    C            0.803097275790    -0.542010908462     0.027010611854
    H           -0.880852409765    -0.565477924910    -1.266623457753
    H           -0.921034594012    -1.740975944694     0.035216435303
    F            1.469243968721    -1.383944548465    -0.738799071070
    F            1.223700973511     0.670107184832    -0.252761394625
    F            1.124362947928    -0.795517943495     1.274155889650

  Mulliken Charges: (a.u.)
   Center  Symbol    Alpha    Beta     Spin     Total
       1     H     0.42359  0.42359  0.00000  0.15282
       2     C     3.20082  3.20082  0.00000 -0.40164
       3     C     2.97819  2.97819  0.00000  0.04363
       4     H     0.43020  0.43020  0.00000  0.13960
       5     O     4.15145  4.15145  0.00000 -0.30290
       6     H     0.40998  0.40998  0.00000  0.18004
       7     C     3.01683  3.01683  0.00000 -0.03366
       8     C     2.67643  2.67643  0.00000  0.64715
       9     H     0.45195  0.45195  0.00000  0.09610
      10     H     0.43212  0.43212  0.00000  0.13576
      11     F     4.61333  4.61333  0.00000 -0.22666
      12     F     4.60683  4.60683  0.00000 -0.21366
      13     F     4.60829  4.60829  0.00000 -0.21658

   Total alpha = 32.00000, Total beta = 32.00000, Total charge = -0.00000

*** Psi4 exiting successfully. Buy a developer a beer!
