  ==> Input File <==

--------------------------------------------------------------------------
set {
	reference rhf
	basis 6-31G*
}

set_num_threads( 1 )
memory 2 gb

molecule MOL {
0 1

O	 3.225979	 0.970355	 -0.599647
C	 2.701189	 0.057885	 -0.047330
C	 1.245376	 -0.013843	 0.345420
O	 3.347903	 -1.046386	 0.304773
C	 0.455112	 1.231400	 -0.050772
H	 0.838542	 -0.913825	 -0.103701
H	 1.208210	 -0.175333	 1.419774
C	 -0.998893	 1.219485	 0.433193
H	 0.482531	 1.345121	 -1.130325
H	 0.957290	 2.103070	 0.354729
C	 -1.360261	 2.334672	 1.418525
H	 -1.187349	 0.260305	 0.909830
H	 -1.667190	 1.265749	 -0.425439
C	 -2.787938	 2.214600	 1.955480
H	 -0.659913	 2.316192	 2.252186
H	 -1.244371	 3.306296	 0.943669
C	 -3.161868	 3.326712	 2.937068
H	 -2.908399	 1.249388	 2.444449
H	 -3.488124	 2.222219	 1.121586
C	 -4.587815	 3.197336	 3.471518
H	 -2.462573	 3.321168	 3.770494
H	 -3.046268	 4.292100	 2.448762
H	 -4.823002	 3.999495	 4.164219
H	 -4.725884	 2.256199	 3.996299
H	 -5.313946	 3.234005	 2.664262
C	 4.728119	 -1.109107	 -0.004993
H	 4.882018	 -1.033965	 -1.071845
H	 5.068212	 -2.067527	 0.355250
H	 5.265056	 -0.311663	 0.488280

	symmetry c1
}
set optking {
	frozen_dihedral = ("
		21 17 14 11,
		17 14 11 15,
		15 11 8 5,
		6 3 5 9,
		2 4 26 27,
		1 2 4 26,
		6 3 2 1
	")
}

ee = energy('scf')
oeprop('DIPOLE', 'QUADRUPOLE', 'MULLIKEN_CHARGES')
f=open( 'psi4out.xyz', 'w' )
f.write( "29  " )
f.write( str(ee) + "\n" )
f.write( MOL.save_string_xyz() )
f.close()
--------------------------------------------------------------------------

    Molecular point group: c1

    Geometry (in Angstrom), charge = 0, multiplicity = 1:

       Center              X                  Y                   Z               Mass
    ------------   -----------------  -----------------  -----------------  -----------------
           O          2.928633689935    -0.137407583347    -1.520251514587    15.994914619560
           C          2.403843689935    -1.049877583347    -0.967934514587    12.000000000000
           C          0.948030689935    -1.121605583347    -0.575184514587    12.000000000000
           O          3.050557689935    -2.154148583347    -0.615831514587    15.994914619560
           C          0.157766689935     0.123637416653    -0.971376514587    12.000000000000
           H          0.541196689935    -2.021587583347    -1.024305514587     1.007825032070
           H          0.910864689935    -1.283095583347     0.499169485413     1.007825032070
           C         -1.296238310065     0.111722416653    -0.487411514587    12.000000000000
           H          0.185185689935     0.237358416653    -2.050929514587     1.007825032070
           H          0.659944689935     0.995307416653    -0.565875514587     1.007825032070
           C         -1.657606310065     1.226909416653     0.497920485413    12.000000000000
           H         -1.484694310065    -0.847457583347    -0.010774514587     1.007825032070
           H         -1.964535310065     0.157986416653    -1.346043514587     1.007825032070
           C         -3.085283310065     1.106837416653     1.034875485413    12.000000000000
           H         -0.957258310065     1.208429416653     1.331581485413     1.007825032070
           H         -1.541716310065     2.198533416653     0.023064485413     1.007825032070
           C         -3.459213310065     2.218949416653     2.016463485413    12.000000000000
           H         -3.205744310065     0.141625416653     1.523844485413     1.007825032070
           H         -3.785469310065     1.114456416653     0.200981485413     1.007825032070
           C         -4.885160310065     2.089573416653     2.550913485413    12.000000000000
           H         -2.759918310065     2.213405416653     2.849889485413     1.007825032070
           H         -3.343613310065     3.184337416653     1.528157485413     1.007825032070
           H         -5.120347310065     2.891732416653     3.243614485413     1.007825032070
           H         -5.023229310065     1.148436416653     3.075694485413     1.007825032070
           H         -5.611291310065     2.126242416653     1.743657485413     1.007825032070
           C          4.430773689935    -2.216869583347    -0.925597514587    12.000000000000
           H          4.584672689935    -2.141727583347    -1.992449514587     1.007825032070
           H          4.770866689935    -3.175289583347    -0.565354514587     1.007825032070
           H          4.967710689935    -1.419425583347    -0.432324514587     1.007825032070

  Charge       = 0
  Multiplicity = 1
  Basis Set: 6-31G*
  Basis Set:

    Orbital Energies (a.u.)
    -----------------------

    Doubly Occupied:

       1A    -20.603458     2A    -20.545338     3A    -11.371916
       4A    -11.280741     5A    -11.236036     6A    -11.217453
       7A    -11.216096     8A    -11.215277     9A    -11.214982
      10A    -11.213316    11A    -11.208416    12A     -1.469174
      13A     -1.362598    14A     -1.096672    15A     -1.067053
      16A     -1.019960    17A     -0.977389    18A     -0.927377
      19A     -0.857505    20A     -0.800175    21A     -0.790290
      22A     -0.766779    23A     -0.699259    24A     -0.682624
      25A     -0.672261    26A     -0.651539    27A     -0.628815
      28A     -0.600296    29A     -0.595723    30A     -0.582286
      31A     -0.565978    32A     -0.548817    33A     -0.531648
      34A     -0.529251    35A     -0.514996    36A     -0.508551
      37A     -0.498111    38A     -0.475860    39A     -0.468371
      40A     -0.461241    41A     -0.460285    42A     -0.456050
      43A     -0.442063    44A     -0.432501

  @DF-RHF Final Energy:  -501.03956917822427

   => Energetics <=

    Nuclear Repulsion Energy =            605.0622455419182870
    One-Electron Energy =               -1881.2746610586950737
    Two-Electron Energy =                 775.1728463385512669
    DFT Exchange-Correlation Energy =       0.0000000000000000
    Empirical Dispersion Energy =           0.0000000000000000
    PCM Polarization Energy =               0.0000000000000000
    EFP Energy =                            0.0000000000000000
    Total Energy =                       -501.0395691782254062

  Mulliken Charges: (a.u.)
   Center  Symbol    Alpha    Beta     Spin     Total
       1     O     4.28570  4.28570  0.00000 -0.57140
       2     C     2.60580  2.60580  0.00000  0.78839
       3     C     3.21047  3.21047  0.00000 -0.42094
       4     O     4.30756  4.30756  0.00000 -0.61512
       5     C     3.15552  3.15552  0.00000 -0.31104
       6     H     0.39981  0.39981  0.00000  0.20039
       7     H     0.40075  0.40075  0.00000  0.19850
       8     C     3.15790  3.15790  0.00000 -0.31579
       9     H     0.41047  0.41047  0.00000  0.17907
      10     H     0.40782  0.40782  0.00000  0.18436
      11     C     3.15382  3.15382  0.00000 -0.30765
      12     H     0.42260  0.42260  0.00000  0.15481
      13     H     0.41870  0.41870  0.00000  0.16261
      14     C     3.15161  3.15161  0.00000 -0.30323
      15     H     0.42412  0.42412  0.00000  0.15176
      16     H     0.42067  0.42067  0.00000  0.15866
      17     C     3.15147  3.15147  0.00000 -0.30295
      18     H     0.42432  0.42432  0.00000  0.15136
      19     H     0.42369  0.42369  0.00000  0.15261
      20     C     3.23924  3.23924  0.00000 -0.47848
      21     H     0.42315  0.42315  0.00000  0.15370
      22     H     0.42267  0.42267  0.00000  0.15466
      23     H     0.41925  0.41925  0.00000  0.16150
      24     H     0.42202  0.42202  0.00000  0.15597
      25     H     0.42175  0.42175  0.00000  0.15649
      26     C     3.09243  3.09243  0.00000 -0.18485
      27     H     0.40906  0.40906  0.00000  0.18188
      28     H     0.40851  0.40851  0.00000  0.18298
      29     H     0.40912  0.40912  0.00000  0.18175

   Total alpha = 44.00000, Total beta = 44.00000, Total charge =  0.00000
