                              Psi4 1.0.54 Driver

  ==> Input File <==

--------------------------------------------------------------------------
set {
	reference rhf
	basis cc-pvtz
}

set_num_threads( 4 )
memory 2 gb

molecule MOL {
0 1

H	 -3.162190	 0.493205	 -0.000107
C	 -2.363908	 -0.234727	 0.000005
O	 -1.158738	 0.454634	 -0.000087
H	 -2.464314	 -0.863616	 -0.882153
H	 -2.464327	 -0.863359	 0.882345
C	 -0.028611	 -0.359694	 0.000037
C	 1.212847	 0.509314	 -0.000053
H	 -0.034155	 -1.007047	 -0.877198
H	 -0.034195	 -1.006836	 0.877430
C	 2.131677	 0.211991	 -1.179757
H	 0.906450	 1.549373	 -0.018053
H	 1.742246	 0.355414	 0.933758
H	 1.628639	 0.383161	 -2.125664
H	 3.009322	 0.846150	 -1.155204
H	 2.470255	 -0.818678	 -1.167329

	symmetry c1
}
set optking {
	frozen_dihedral = ("
		11 7 6 8
	")
}

ee,wfn = optimize('scf', return_wfn=True)
oeprop( wfn, 'DIPOLE', 'QUADRUPOLE', 'MULLIKEN_CHARGES')
f=open( 'psi4out.xyz', 'w' )
f.write( "15  " )
f.write( str(ee) + "\n" )
f.write( MOL.save_string_xyz() )
f.close()
--------------------------------------------------------------------------

    Molecular point group: c1
  Charge       = 0
  Multiplicity = 1
  Basis Set: CC-PVTZ
  Basis Set:
  @DF-RHF Final Energy:  -232.22202344645217
    Total Energy =                       -232.2220234464521127
    Molecular point group: c1
  Basis Set: CC-PVTZ
  Basis Set:
  Basis Set: CC-PVTZ
  Basis Set:
  @DF-RHF Final Energy:  -232.22237529655226
    Total Energy =                       -232.2223752965521726
  Basis Set: CC-PVTZ
  Basis Set:
  Basis Set: CC-PVTZ
  Basis Set:
  @DF-RHF Final Energy:  -232.22248145705632
    Total Energy =                       -232.2224814570561193
  Basis Set: CC-PVTZ
  Basis Set:
  Basis Set: CC-PVTZ
  Basis Set:
  @DF-RHF Final Energy:  -232.22248246607569
    Total Energy =                       -232.2224824660756326
  Basis Set: CC-PVTZ
  Basis Set:
  Charge       = 0
  Multiplicity = 1
  Basis Set: CC-PVTZ
  Basis Set:

    Orbital Energies (a.u.)
    -----------------------

    Doubly Occupied:

       1A    -20.547835     2A    -11.264717     3A    -11.261496
       4A    -11.212524     5A    -11.208856     6A     -1.381319
       7A     -1.054365     8A     -0.954925     9A     -0.879051
      10A     -0.809168    11A     -0.672052    12A     -0.659247
      13A     -0.633365    14A     -0.595053    15A     -0.572881
      16A     -0.545734    17A     -0.493756    18A     -0.490626
      19A     -0.480212    20A     -0.462425    21A     -0.413995

  @DF-RHF Final Energy:  -232.22248261156378

   => Energetics <=

    Nuclear Repulsion Energy =            190.2190612139883399
    One-Electron Energy =                -691.6958831091003503
    Two-Electron Energy =                 269.2543392835483473
    DFT Exchange-Correlation Energy =       0.0000000000000000
    Empirical Dispersion Energy =           0.0000000000000000
    PCM Polarization Energy =               0.0000000000000000
    EFP Energy =                            0.0000000000000000
    Total Energy =                       -232.2224826115636915
    Molecular point group: c1
  Basis Set: CC-PVTZ
  Basis Set:

  -Total Gradient:
     Atom            X                  Y                   Z
    ------   -----------------  -----------------  -----------------
       1       -0.000002249809    -0.000002628734    -0.000000470216
       2       -0.000021714388    -0.000004363298    -0.000000384844
       3        0.000059647417    -0.000040721619     0.000001164805
       4       -0.000003190109     0.000001023331     0.000000922434
       5       -0.000001896924     0.000001252087    -0.000000889452
       6       -0.000410294940     0.000635550210    -0.000282316765
       7        0.000092518542    -0.000129951829    -0.000749122439
       8        0.000321194655    -0.000473300592     0.000348188017
       9       -0.000008360536     0.000000594432     0.000001315928
      10       -0.000006032742    -0.000002547832     0.000003218359
      11       -0.000005446814     0.000021071647     0.000665721959
      12       -0.000008594313    -0.000008326523     0.000000245044
      13        0.000002742958     0.000002943547     0.000006304926
      14       -0.000001704606    -0.000001880092     0.000006107563
      15       -0.000006618392     0.000001285269    -0.000000005318

  **** Optimization is complete! (in 5 steps) ****
    Final optimized geometry and variables:
    Molecular point group: c1

    Geometry (in Angstrom), charge = 0, multiplicity = 1:

    H           -3.098268841096     0.393349878818     0.240465220728
    C           -2.300822826073    -0.335638494856     0.248691999217
    O           -1.094826533426     0.351458737448     0.233417367638
    H           -2.405851576249    -0.978311752996    -0.623109729485
    H           -2.398857311675    -0.950835693641     1.140868146135
    C            0.033719893854    -0.469752232451     0.238743005830
    C            1.298184687812     0.395520414766     0.233092806641
    H            0.015181524928    -1.123574069398    -0.632203557860
    H            0.010628212704    -1.113915192263     1.115983739050
    C            2.230633481496     0.107679284351    -0.938979408635
    H            0.982858171378     1.430553345407     0.209587204149
    H            1.838480026564     0.260435922184     1.163456406140
    H            1.730402853141     0.283214942799    -1.885219193761
    H            3.108293313267     0.742465669415    -0.903155774704
    H            2.569798032909    -0.923151458530    -0.930109731097

  Mulliken Charges: (a.u.)
   Center  Symbol    Alpha    Beta     Spin     Total
       1     H     0.44703  0.44703  0.00000  0.10595
       2     C     3.02927  3.02927  0.00000 -0.05853
       3     O     4.17166  4.17166  0.00000 -0.34332
       4     H     0.47316  0.47316  0.00000  0.05368
       5     H     0.47213  0.47213  0.00000  0.05573
       6     C     2.96365  2.96365  0.00000  0.07271
       7     C     3.08704  3.08704  0.00000 -0.17409
       8     H     0.47475  0.47475  0.00000  0.05050
       9     H     0.47349  0.47349  0.00000  0.05302
      10     C     3.15177  3.15177  0.00000 -0.30354
      11     H     0.44462  0.44462  0.00000  0.11076
      12     H     0.45290  0.45290  0.00000  0.09419
      13     H     0.45259  0.45259  0.00000  0.09483
      14     H     0.44913  0.44913  0.00000  0.10174
      15     H     0.45682  0.45682  0.00000  0.08637

   Total alpha = 21.00000, Total beta = 21.00000, Total charge = -0.00000

*** Psi4 exiting successfully. Buy a developer a beer!
