  ==> Input File <==

--------------------------------------------------------------------------
set {
	reference rhf
	basis 6-31G*
}

set_num_threads( 4 )
memory 2 gb

molecule MOL {
0 1

H	 2.616038	 -1.765169	 -0.581647
O	 2.826016	 -1.159218	 0.122261
C	 2.077727	 -0.067559	 -0.035091
C	 0.624473	 -0.343591	 0.253101
O	 2.542965	 0.974826	 -0.363729
C	 -0.265902	 0.883932	 0.072916
H	 0.324016	 -1.163849	 -0.390541
H	 0.565024	 -0.726111	 1.268924
C	 -1.728698	 0.646073	 0.462102
H	 -0.209144	 1.219470	 -0.958188
H	 0.135059	 1.692851	 0.673903
C	 -2.482460	 -0.343073	 -0.431425
H	 -2.245265	 1.602650	 0.432430
H	 -1.779332	 0.308348	 1.496285
C	 -3.960546	 -0.461025	 -0.060175
H	 -2.395034	 -0.026811	 -1.468912
H	 -2.024850	 -1.327147	 -0.371646
H	 -4.472726	 -1.168004	 -0.705284
H	 -4.465146	 0.496508	 -0.151489
H	 -4.081218	 -0.800940	 0.964585

	symmetry c1
}
set optking {
	frozen_dihedral = ("
		1 2 3 5
	")
}

ee = optimize('scf')
oeprop('DIPOLE', 'QUADRUPOLE', 'MULLIKEN_CHARGES')
f=open( 'psi4out.xyz', 'w' )
f.write( "20  " )
f.write( str(ee) + "\n" )
f.write( MOL.save_string_xyz() )
f.close()
--------------------------------------------------------------------------

    Molecular point group: c1
  Charge       = 0
  Multiplicity = 1
  Basis Set: 6-31G*
  Basis Set:
  @DF-RHF Final Energy:  -383.92595166862947
    Total Energy =                       -383.9259516686297502
    Molecular point group: c1
  Basis Set: 6-31G*
  Basis Set:
  Basis Set: 6-31G*
  Basis Set:
  @DF-RHF Final Energy:  -383.92737698082163
    Total Energy =                       -383.9273769808215775
  Basis Set: 6-31G*
  Basis Set:
  Basis Set: 6-31G*
  Basis Set:
  @DF-RHF Final Energy:  -383.92640610359064
    Total Energy =                       -383.9264061035905797
  Basis Set: 6-31G*
  Basis Set:
  Basis Set: 6-31G*
  Basis Set:
  @DF-RHF Final Energy:  -383.92763524039651
    Total Energy =                       -383.9276352403968531
  Basis Set: 6-31G*
  Basis Set:
  Basis Set: 6-31G*
  Basis Set:
  @DF-RHF Final Energy:  -383.92764651787024
    Total Energy =                       -383.9276465178703575
  Basis Set: 6-31G*
  Basis Set:
  Basis Set: 6-31G*
  Basis Set:
  @DF-RHF Final Energy:  -383.92764549211614
    Total Energy =                       -383.9276454921160848
  Basis Set: 6-31G*
  Basis Set:
  Basis Set: 6-31G*
  Basis Set:
  @DF-RHF Final Energy:  -383.92764720042618
    Total Energy =                       -383.9276472004267475
  Basis Set: 6-31G*
  Basis Set:
  Charge       = 0
  Multiplicity = 1
  Basis Set: 6-31G*
  Basis Set:

    Orbital Energies (a.u.)
    -----------------------

    Doubly Occupied:

       1A    -20.595856     2A    -20.560868     3A    -11.381182
       4A    -11.245131     5A    -11.225841     6A    -11.224133
       7A    -11.223133     8A    -11.215239     9A     -1.460278
      10A     -1.368141    11A     -1.098569    12A     -1.041955
      13A     -0.959534    14A     -0.865622    15A     -0.819778
      16A     -0.785814    17A     -0.714809    18A     -0.671140
      19A     -0.664343    20A     -0.634954    21A     -0.616184
      22A     -0.588046    23A     -0.562894    24A     -0.561572
      25A     -0.527369    26A     -0.514714    27A     -0.497284
      28A     -0.495247    29A     -0.472780    30A     -0.466980
      31A     -0.460359    32A     -0.442936

  @DF-RHF Final Energy:  -383.92764761759253

   => Energetics <=

    Nuclear Repulsion Energy =            375.1727056363752695
    One-Electron Energy =               -1266.2753319980731703
    Two-Electron Energy =                 507.1749787441053741
    DFT Exchange-Correlation Energy =       0.0000000000000000
    Empirical Dispersion Energy =           0.0000000000000000
    PCM Polarization Energy =               0.0000000000000000
    EFP Energy =                            0.0000000000000000
    Total Energy =                       -383.9276476175925836
    Molecular point group: c1
  Basis Set: 6-31G*
  Basis Set:

  -Total Gradient:
     Atom            X                  Y                   Z
    ------   -----------------  -----------------  -----------------
       1        0.002451248567     0.001537396073    -0.001845789455
       2       -0.003228230117    -0.002249788456     0.001025840972
       3        0.001131906512     0.001349697978     0.003725935973
       4        0.000003893858     0.000003054516     0.000014147507
       5       -0.000365266618    -0.000637973901    -0.002907834752
       6       -0.000004638907    -0.000002176263    -0.000005680460
       7        0.000002021803     0.000000039399    -0.000007257837
       8        0.000000839420    -0.000000242894    -0.000004494043
       9        0.000002991648    -0.000003759410     0.000003668310
      10        0.000001208268    -0.000001605475     0.000000241878
      11        0.000002009472     0.000004622706     0.000003526732
      12       -0.000000086383     0.000003440517    -0.000002989068
      13        0.000004343556    -0.000000903312    -0.000001540537
      14       -0.000000722423     0.000000263432     0.000001608807
      15       -0.000000268451    -0.000002668785     0.000002033509
      16        0.000000751518     0.000001099625     0.000000706976
      17       -0.000001438769    -0.000000524048    -0.000001682088
      18       -0.000000066969    -0.000001271996     0.000001179595
      19       -0.000000160482    -0.000000550024    -0.000002153416
      20       -0.000000335508     0.000001850318     0.000000531397

  **** Optimization is complete! (in 8 steps) ****
    Final optimized geometry and variables:
    Molecular point group: c1

    Geometry (in Angstrom), charge = 0, multiplicity = 1:

    H            2.746308226953    -1.784970012838    -0.593831787232
    O            2.882097787306    -1.160963884201     0.108453167658
    C            2.087613536471    -0.065768912516    -0.032373308693
    C            0.627330341029    -0.334175047414     0.248743677295
    O            2.542665803472     0.984424154921    -0.315843534115
    C           -0.265225069372     0.891399576566     0.067229046045
    H            0.315343067669    -1.156256591137    -0.390893455944
    H            0.567916003987    -0.716928192243     1.264876692328
    C           -1.727449683124     0.656180760648     0.460202648959
    H           -0.210630450101     1.225495718531    -0.964783488515
    H            0.138827386593     1.700230670666     0.665756584994
    C           -2.485311916137    -0.333696199330    -0.429071921394
    H           -2.242600865861     1.613379241645     0.429504190691
    H           -1.776001939086     0.321112260099     1.495250884064
    C           -3.962988660768    -0.447197742307    -0.054859764143
    H           -2.399148918061    -0.020813015380    -1.467780262575
    H           -2.030216657184    -1.319058166831    -0.366935247850
    H           -4.477959500852    -1.155370222020    -0.696415755682
    H           -4.465405079828     0.511125212025    -0.148918165064
    H           -4.082490578582    -0.782872639412     0.971373354307

  Mulliken Charges: (a.u.)
   Center  Symbol    Alpha    Beta     Spin     Total
       1     H     0.26783  0.26783  0.00000  0.46434
       2     O     4.36761  4.36761  0.00000 -0.73522
       3     C     2.62540  2.62540  0.00000  0.74920
       4     C     3.21584  3.21584  0.00000 -0.43168
       5     O     4.24583  4.24583  0.00000 -0.49167
       6     C     3.15434  3.15434  0.00000 -0.30868
       7     H     0.41155  0.41155  0.00000  0.17691
       8     H     0.39713  0.39713  0.00000  0.20574
       9     C     3.15572  3.15572  0.00000 -0.31144
      10     H     0.41365  0.41365  0.00000  0.17270
      11     H     0.40555  0.40555  0.00000  0.18889
      12     C     3.15470  3.15470  0.00000 -0.30941
      13     H     0.41711  0.41711  0.00000  0.16579
      14     H     0.42301  0.42301  0.00000  0.15399
      15     C     3.23922  3.23922  0.00000 -0.47844
      16     H     0.42177  0.42177  0.00000  0.15645
      17     H     0.42448  0.42448  0.00000  0.15105
      18     H     0.41836  0.41836  0.00000  0.16328
      19     H     0.42000  0.42000  0.00000  0.16001
      20     H     0.42090  0.42090  0.00000  0.15820

   Total alpha = 32.00000, Total beta = 32.00000, Total charge = -0.00000
