  ==> Input File <==

--------------------------------------------------------------------------
set {
	reference rhf
	basis 6-31G*
}

set_num_threads( 4 )
memory 2 gb

molecule MOL {
0 1

O	 0.391030	 1.298905	 0.000133
C	 0.503002	 0.111612	 0.000005
C	 -0.702327	 -0.811998	 -0.000075
C	 1.863306	 -0.554493	 0.000030
C	 -0.679101	 -1.846058	 -1.119152
H	 -0.751839	 -1.296448	 0.973387
H	 -1.596348	 -0.194273	 -0.062578
H	 0.197066	 -2.478551	 -1.044961
H	 -1.561284	 -2.475815	 -1.070007
H	 -0.654932	 -1.366605	 -2.090110
H	 1.974395	 -1.189404	 -0.874166
H	 2.638695	 0.198920	 -0.000196
H	 1.974487	 -1.188655	 0.874727

	symmetry c1
}
set optking {
	frozen_dihedral = ("
		6 3 2 1
	")
}

ee = optimize('scf')
oeprop('DIPOLE', 'QUADRUPOLE', 'MULLIKEN_CHARGES')
f=open( 'psi4out.xyz', 'w' )
f.write( "13  " )
f.write( str(ee) + "\n" )
f.write( MOL.save_string_xyz() )
f.close()
--------------------------------------------------------------------------

    Molecular point group: c1
  Charge       = 0
  Multiplicity = 1
  Basis Set: 6-31G*
  Basis Set:
  @DF-RHF Final Energy:  -230.99393954184961
    Total Energy =                       -230.9939395418495565
    Molecular point group: c1
  Basis Set: 6-31G*
  Basis Set:
  Basis Set: 6-31G*
  Basis Set:
  @DF-RHF Final Energy:  -230.99330797982537
    Total Energy =                       -230.9933079798254312
  Basis Set: 6-31G*
  Basis Set:
  Basis Set: 6-31G*
  Basis Set:
  @DF-RHF Final Energy:  -230.99398446183599
    Total Energy =                       -230.9939844618362201
  Basis Set: 6-31G*
  Basis Set:
  Basis Set: 6-31G*
  Basis Set:
  @DF-RHF Final Energy:  -230.99491399754660
    Total Energy =                       -230.9949139975466892
  Basis Set: 6-31G*
  Basis Set:
  @DF-RHF Final Energy:  -230.99498055189218
    Total Energy =                       -230.9949805518921266
  @DF-RHF Final Energy:  -230.99499199057234
    Total Energy =                       -230.9949919905722879
  Basis Set: 6-31G*
  Basis Set:
  @DF-RHF Final Energy:  -230.99499999294613
    Total Energy =                       -230.9949999929463047
  Basis Set: 6-31G*
  Basis Set:
  Basis Set: 6-31G*
  Basis Set:
  @DF-RHF Final Energy:  -230.99501598675499
    Total Energy =                       -230.9950159867549360
  Basis Set: 6-31G*
  Basis Set:
  Basis Set: 6-31G*
  Basis Set:
  @DF-RHF Final Energy:  -230.99502115094080
    Total Energy =                       -230.9950211509407723
  Basis Set: 6-31G*
  Basis Set:
  Charge       = 0
  Multiplicity = 1
  Basis Set: 6-31G*
  Basis Set:

    Orbital Energies (a.u.)
    -----------------------

    Doubly Occupied:

       1A    -20.549133     2A    -11.325698     3A    -11.233700
       4A    -11.230512     5A    -11.228554     6A     -1.394516
       7A     -1.068176     8A     -0.993941     9A     -0.889194
      10A     -0.733093    11A     -0.652964    12A     -0.647128
      13A     -0.616007    14A     -0.590775    15A     -0.560188
      16A     -0.543135    17A     -0.529083    18A     -0.505210
      19A     -0.482029    20A     -0.400033

  @DF-RHF Final Energy:  -230.99502120395678

   => Energetics <=

    Nuclear Repulsion Energy =            176.8459955855925898
    One-Electron Energy =                -663.3358959057184165
    Two-Electron Energy =                 255.4948791161692156
    DFT Exchange-Correlation Energy =       0.0000000000000000
    Empirical Dispersion Energy =           0.0000000000000000
    PCM Polarization Energy =               0.0000000000000000
    EFP Energy =                            0.0000000000000000
    Total Energy =                       -230.9950212039565827
    Molecular point group: c1
  Basis Set: 6-31G*
  Basis Set:

  -Total Gradient:
     Atom            X                  Y                   Z
    ------   -----------------  -----------------  -----------------
       1        0.000008650718     0.000002473746     0.000376742606
       2       -0.000052547240     0.000053146450    -0.000503577825
       3        0.000260326083    -0.000343122864     0.000002623050
       4       -0.000002871300     0.000008657581     0.000014473080
       5       -0.000003858210    -0.000002618223    -0.000008279661
       6       -0.000208310236     0.000280864115     0.000126946083
       7        0.000002000117     0.000000643601     0.000000305224
       8       -0.000000303993     0.000002731242    -0.000000480871
       9       -0.000001277537     0.000000381709     0.000001789166
      10        0.000000958989    -0.000003014101     0.000000104602
      11       -0.000001834158    -0.000002080840    -0.000006133780
      12        0.000000805560    -0.000001429653    -0.000001282820
      13       -0.000001738792     0.000003367232    -0.000003228853

  **** Optimization is complete! (in 10 steps) ****
    Final optimized geometry and variables:
    Molecular point group: c1

    Geometry (in Angstrom), charge = 0, multiplicity = 1:

    O            0.109994517865     1.667360891973     0.202045276698
    C            0.228844258679     0.480238629505     0.217054784806
    C           -0.986292527854    -0.430281757257     0.238375597655
    C            1.598947108746    -0.166898458341     0.232347262171
    C           -0.983646675171    -1.513466771551    -0.845756001351
    H           -1.030196660508    -0.898986951961     1.219979015044
    H           -1.858633621172     0.203838443463     0.143144984117
    H           -0.160444888138    -2.209070164397    -0.724005650714
    H           -1.904064835485    -2.084840846977    -0.803165905159
    H           -0.912321039518    -1.076688484143    -1.836984143162
    H            1.824768164003    -0.578448055780    -0.747139682795
    H            2.343435718892     0.578140751688     0.476256564831
    H            1.644294268615    -0.983179022569     0.946330885176

  Mulliken Charges: (a.u.)
   Center  Symbol    Alpha    Beta     Spin     Total
       1     O     4.26051  4.26051  0.00000 -0.52102
       2     C     2.73339  2.73339  0.00000  0.53322
       3     C     3.20469  3.20469  0.00000 -0.40937
       4     C     3.29133  3.29133  0.00000 -0.58265
       5     C     3.25112  3.25112  0.00000 -0.50224
       6     H     0.40993  0.40993  0.00000  0.18014
       7     H     0.39805  0.39805  0.00000  0.20391
       8     H     0.41656  0.41656  0.00000  0.16688
       9     H     0.41026  0.41026  0.00000  0.17948
      10     H     0.41259  0.41259  0.00000  0.17482
      11     H     0.40422  0.40422  0.00000  0.19156
      12     H     0.39572  0.39572  0.00000  0.20855
      13     H     0.41164  0.41164  0.00000  0.17673

   Total alpha = 20.00000, Total beta = 20.00000, Total charge = -0.00000
