                              Psi4 1.0.54 Driver

  ==> Input File <==

--------------------------------------------------------------------------
set {
	reference rhf
	basis cc-pvtz
}

set_num_threads( 4 )
memory 2 gb

molecule MOL {
0 1

O	 0.074770	 1.259872	 0.000487
C	 0.029490	 0.077183	 0.000078
C	 -1.232113	 -0.748027	 0.000015
O	 1.106773	 -0.690081	 -0.000204
C	 -2.501422	 0.088592	 -0.000052
H	 -1.188777	 -1.400384	 -0.865133
H	 -1.188857	 -1.400312	 0.865225
H	 -2.548170	 0.725504	 -0.873205
H	 -3.371613	 -0.556398	 -0.000040
H	 -2.548215	 0.725571	 0.873047
C	 1.635190	 -1.066234	 -1.255962
H	 0.907632	 -1.627876	 -1.822930
H	 2.496472	 -1.679081	 -1.045161
H	 1.927387	 -0.194812	 -1.822963

	symmetry c1
}
set optking {
	frozen_dihedral = ("
		11 4 2 3
	")
}

ee,wfn = optimize('scf', return_wfn=True)
oeprop( wfn, 'DIPOLE', 'QUADRUPOLE', 'MULLIKEN_CHARGES')
f=open( 'psi4out.xyz', 'w' )
f.write( "14  " )
f.write( str(ee) + "\n" )
f.write( MOL.save_string_xyz() )
f.close()
--------------------------------------------------------------------------

    Molecular point group: c1
  Charge       = 0
  Multiplicity = 1
  Basis Set: CC-PVTZ
  Basis Set:
  @DF-RHF Final Energy:  -305.96676318239946
    Total Energy =                       -305.9667631823996885
    Molecular point group: c1
  Basis Set: CC-PVTZ
  Basis Set:
  Basis Set: CC-PVTZ
  Basis Set:
  @DF-RHF Final Energy:  -305.96785204713626
    Total Energy =                       -305.9678520471364891
  Basis Set: CC-PVTZ
  Basis Set:
  Basis Set: CC-PVTZ
  Basis Set:
  @DF-RHF Final Energy:  -305.96768861486049
    Total Energy =                       -305.9676886148608901
  Basis Set: CC-PVTZ
  Basis Set:
  Basis Set: CC-PVTZ
  Basis Set:
  @DF-RHF Final Energy:  -305.96806233434205
    Total Energy =                       -305.9680623343421075
  Basis Set: CC-PVTZ
  Basis Set:
  Basis Set: CC-PVTZ
  Basis Set:
  @DF-RHF Final Energy:  -305.96808068609232
    Total Energy =                       -305.9680806860925486
  Basis Set: CC-PVTZ
  Basis Set:
  Charge       = 0
  Multiplicity = 1
  Basis Set: CC-PVTZ
  Basis Set:

    Orbital Energies (a.u.)
    -----------------------

    Doubly Occupied:

       1A    -20.578546     2A    -20.546840     3A    -11.368661
       4A    -11.289864     5A    -11.242188     6A    -11.218336
       7A     -1.462617     8A     -1.370890     9A     -1.064209
      10A     -0.976686    11A     -0.893566    12A     -0.767766
      13A     -0.702885    14A     -0.681126    15A     -0.674409
      16A     -0.625388    17A     -0.616079    18A     -0.557298
      19A     -0.546833    20A     -0.526505    21A     -0.511785
      22A     -0.494396    23A     -0.459731    24A     -0.440393

  @DF-RHF Final Energy:  -305.96808154790995

   => Energetics <=

    Nuclear Repulsion Energy =            247.1300561467518548
    One-Electron Energy =                -906.9622861136491565
    Two-Electron Energy =                 353.8641484189876110
    DFT Exchange-Correlation Energy =       0.0000000000000000
    Empirical Dispersion Energy =           0.0000000000000000
    PCM Polarization Energy =               0.0000000000000000
    EFP Energy =                            0.0000000000000000
    Total Energy =                       -305.9680815479097191
    Molecular point group: c1
  Basis Set: CC-PVTZ
  Basis Set:

  -Total Gradient:
     Atom            X                  Y                   Z
    ------   -----------------  -----------------  -----------------
       1       -0.000040875388    -0.000028079065    -0.000004813053
       2       -0.000538441225    -0.001085938178     0.003094897578
       3        0.000075026698     0.000097696284    -0.002120840391
       4        0.001814809207     0.003047720252    -0.000842710181
       5       -0.000040297227     0.000008501735    -0.000013536569
       6        0.000010602973     0.000004325662    -0.000007194237
       7        0.000004908694    -0.000000368392    -0.000021230181
       8        0.000001156192    -0.000006054000     0.000010840024
       9       -0.000005523256     0.000007025093     0.000001931632
      10        0.000000837049    -0.000003898058    -0.000004653300
      11       -0.001306331768    -0.002026586604    -0.000084589182
      12        0.000027151996    -0.000000342801    -0.000017124701
      13       -0.000001102106     0.000006167123    -0.000010915490
      14       -0.000001921836    -0.000020169048     0.000019938050

  **** Optimization is complete! (in 6 steps) ****
    Final optimized geometry and variables:
    Molecular point group: c1

    Geometry (in Angstrom), charge = 0, multiplicity = 1:

    O            0.156295801730     1.421894593098     0.268632075388
    C            0.137545950016     0.246990617994     0.226895693576
    C           -1.112646611745    -0.594825253048     0.205138170952
    O            1.278082415718    -0.476565719566     0.221117929619
    C           -2.399213404084     0.214909447730     0.205923545440
    H           -1.057648903490    -1.241780085242    -0.664325466555
    H           -1.059867415686    -1.256116549221     1.063770639153
    H           -2.454562854040     0.859209181959    -0.661535666948
    H           -3.257035508624    -0.446341710293     0.196194805152
    H           -2.460954925027     0.842578300754     1.084534677828
    C            1.827117718979    -0.798682129983    -1.035883316807
    H            1.150508083872    -1.415724830768    -1.616287202151
    H            2.732128826293    -1.352502563381    -0.846518012985
    H            2.065011324967     0.100111752625    -1.590486154255

  Mulliken Charges: (a.u.)
   Center  Symbol    Alpha    Beta     Spin     Total
       1     O     4.16815  4.16815  0.00000 -0.33630
       2     C     2.78996  2.78996  0.00000  0.42007
       3     C     3.10595  3.10595  0.00000 -0.21189
       4     O     4.16807  4.16807  0.00000 -0.33614
       5     C     3.13889  3.13889  0.00000 -0.27777
       6     H     0.44600  0.44600  0.00000  0.10800
       7     H     0.43936  0.43936  0.00000  0.12127
       8     H     0.44910  0.44910  0.00000  0.10179
       9     H     0.45051  0.45051  0.00000  0.09899
      10     H     0.44570  0.44570  0.00000  0.10860
      11     C     3.03422  3.03422  0.00000 -0.06844
      12     H     0.46704  0.46704  0.00000  0.06593
      13     H     0.44228  0.44228  0.00000  0.11544
      14     H     0.45478  0.45478  0.00000  0.09044

   Total alpha = 24.00000, Total beta = 24.00000, Total charge =  0.00000

*** Psi4 exiting successfully. Buy a developer a beer!
