  ==> Input File <==

--------------------------------------------------------------------------
set {
	reference rhf
	basis 6-31G*
}

set_num_threads( 4 )
memory 2 gb

molecule MOL {
0 1

H	 -2.660788	 -1.086765	 1.493186
O	 -1.827850	 -0.782917	 1.162029
C	 -2.026376	 0.340750	 0.341611
C	 -0.673256	 0.843270	 -0.132153
H	 -2.641978	 0.079201	 -0.517204
H	 -2.544132	 1.127212	 0.889388
C	 0.486613	 -0.083066	 0.235839
H	 -0.715586	 0.970948	 -1.210718
H	 -0.508072	 1.829858	 0.297090
C	 1.840406	 0.433480	 -0.254303
H	 0.300215	 -1.068318	 -0.178947
H	 0.519509	 -0.203625	 1.318070
C	 3.000220	 -0.489290	 0.118523
H	 1.809207	 0.553576	 -1.335192
H	 2.021860	 1.424500	 0.157276
H	 2.864959	 -1.479103	 -0.307933
H	 3.946603	 -0.099227	 -0.243630
H	 3.080049	 -0.602997	 1.196117

	symmetry c1
}
set optking {
	frozen_dihedral = ("
		2 3 4 8
	")
}

ee = optimize('scf')
oeprop('DIPOLE', 'QUADRUPOLE', 'MULLIKEN_CHARGES')
f=open( 'psi4out.xyz', 'w' )
f.write( "18  " )
f.write( str(ee) + "\n" )
f.write( MOL.save_string_xyz() )
f.close()
--------------------------------------------------------------------------

    Molecular point group: c1
  Charge       = 0
  Multiplicity = 1
  Basis Set: 6-31G*
  Basis Set:
  @DF-RHF Final Energy:  -271.17017259481497
    Total Energy =                       -271.1701725948150852
    Molecular point group: c1
  Basis Set: 6-31G*
  Basis Set:
  Basis Set: 6-31G*
  Basis Set:
  @DF-RHF Final Energy:  -271.17056004667961
    Total Energy =                       -271.1705600466796113
  Basis Set: 6-31G*
  Basis Set:
  Basis Set: 6-31G*
  Basis Set:
  @DF-RHF Final Energy:  -271.17155180484303
    Total Energy =                       -271.1715518048430340
  Basis Set: 6-31G*
  Basis Set:
  Basis Set: 6-31G*
  Basis Set:
  @DF-RHF Final Energy:  -271.17157152508014
    Total Energy =                       -271.1715715250799690
  Basis Set: 6-31G*
  Basis Set:
  Basis Set: 6-31G*
  Basis Set:
  @DF-RHF Final Energy:  -271.17156922373783
    Total Energy =                       -271.1715692237380040
  Basis Set: 6-31G*
  Basis Set:
  Basis Set: 6-31G*
  Basis Set:
  @DF-RHF Final Energy:  -271.17157788475004
    Total Energy =                       -271.1715778847500360
  Basis Set: 6-31G*
  Basis Set:
  Charge       = 0
  Multiplicity = 1
  Basis Set: 6-31G*
  Basis Set:

    Orbital Energies (a.u.)
    -----------------------

    Doubly Occupied:

       1A    -20.552402     2A    -11.268978     3A    -11.213004
       4A    -11.208435     5A    -11.202842     6A    -11.202524
       7A     -1.359212     8A     -1.070678     9A     -1.003797
      10A     -0.912505    11A     -0.817296    12A     -0.780856
      13A     -0.694944    14A     -0.656575    15A     -0.615894
      16A     -0.579904    17A     -0.571560    18A     -0.552032
      19A     -0.514562    20A     -0.499160    21A     -0.494439
      22A     -0.461808    23A     -0.458932    24A     -0.442380
      25A     -0.423371

  @DF-RHF Final Energy:  -271.17157779733031

   => Energetics <=

    Nuclear Repulsion Energy =            249.8034829117912921
    One-Electron Energy =                -862.8339430518162771
    Two-Electron Energy =                 341.8588823426947556
    DFT Exchange-Correlation Energy =       0.0000000000000000
    Empirical Dispersion Energy =           0.0000000000000000
    PCM Polarization Energy =               0.0000000000000000
    EFP Energy =                            0.0000000000000000
    Total Energy =                       -271.1715777973302011
    Molecular point group: c1
  Basis Set: 6-31G*
  Basis Set:

  -Total Gradient:
     Atom            X                  Y                   Z
    ------   -----------------  -----------------  -----------------
       1        0.000006420933     0.000017693632    -0.000012172948
       2       -0.000080092749    -0.001328372633    -0.001686672157
       3        0.000283074380     0.001125066735     0.002199599352
       4       -0.001041482174     0.002745496440    -0.000204163243
       5        0.000005283876     0.000015243073    -0.000010328360
       6        0.000007774873     0.000014442286    -0.000014485365
       7        0.000005488765    -0.000015602151    -0.000014564878
       8        0.000814453418    -0.002594958639    -0.000285407521
       9       -0.000004262253    -0.000001545035    -0.000003506294
      10        0.000006968935     0.000019556862     0.000030084155
      11        0.000009359524    -0.000001173428     0.000010230279
      12       -0.000002454729     0.000008403356     0.000003434439
      13       -0.000009944863    -0.000014026917    -0.000019168716
      14       -0.000006112654     0.000008970927     0.000004547373
      15        0.000009191821     0.000002942892     0.000008541755
      16        0.000000618586    -0.000008091791     0.000006180299
      17       -0.000004555545    -0.000002896590    -0.000009110171
      18        0.000000269863     0.000008850981    -0.000003038004

  **** Optimization is complete! (in 7 steps) ****
    Final optimized geometry and variables:
    Molecular point group: c1

    Geometry (in Angstrom), charge = 0, multiplicity = 1:

    H           -2.866363366109    -1.074032106427     1.185794037201
    O           -2.003471911251    -0.796015217001     0.913869017064
    C           -2.124773873589     0.321208671131     0.068596181739
    C           -0.735221007370     0.813729343705    -0.385930950539
    H           -2.719571576031     0.053232540154    -0.801800965314
    H           -2.652331896875     1.122313106320     0.580728609188
    C            0.430349733739    -0.112381741752    -0.022495690351
    H           -0.746464426356     0.928240587151    -1.466531779832
    H           -0.543681755986     1.798832080439     0.029725371915
    C            1.768890476230     0.421231063255    -0.536809548356
    H            0.251782038519    -1.101716988684    -0.433045286034
    H            0.476809992600    -0.236917065988     1.053880272752
    C            2.944456630104    -0.489733094366    -0.184189469423
    H            1.721640214782     0.544563025321    -1.617178323178
    H            1.947210184837     1.413013679816    -0.125458739942
    H            2.813003890234    -1.480742037976    -0.609355637845
    H            3.880827945732    -0.089361685401    -0.561073989900
    H            3.042043878174    -0.603846401031     0.891666796196

  Mulliken Charges: (a.u.)
   Center  Symbol    Alpha    Beta     Spin     Total
       1     H     0.28053  0.28053  0.00000  0.43894
       2     O     4.37127  4.37127  0.00000 -0.74253
       3     C     2.99052  2.99052  0.00000  0.01896
       4     C     3.17657  3.17657  0.00000 -0.35314
       5     H     0.43071  0.43071  0.00000  0.13857
       6     H     0.42978  0.42978  0.00000  0.14043
       7     C     3.14264  3.14264  0.00000 -0.28527
       8     H     0.42054  0.42054  0.00000  0.15893
       9     H     0.41950  0.41950  0.00000  0.16100
      10     C     3.15317  3.15317  0.00000 -0.30634
      11     H     0.41782  0.41782  0.00000  0.16437
      12     H     0.41316  0.41316  0.00000  0.17368
      13     C     3.23841  3.23841  0.00000 -0.47683
      14     H     0.42569  0.42569  0.00000  0.14862
      15     H     0.42523  0.42523  0.00000  0.14955
      16     H     0.42184  0.42184  0.00000  0.15633
      17     H     0.42116  0.42116  0.00000  0.15768
      18     H     0.42148  0.42148  0.00000  0.15705

   Total alpha = 25.00000, Total beta = 25.00000, Total charge = -0.00000
