                              Psi4 1.0.54 Driver

  ==> Input File <==

--------------------------------------------------------------------------
set {
	reference rhf
	basis cc-pvtz
}

set_num_threads( 4 )
memory 2 gb

molecule MOL {
0 1

H	 2.646708	 0.758099	 0.000000
O	 2.258158	 -0.097743	 0.000000
C	 0.911162	 -0.015915	 0.000000
C	 0.336374	 1.084661	 -0.614126
C	 0.110876	 -0.979964	 0.583586
H	 0.972668	 1.822491	 -1.061604
C	 -1.035716	 1.210539	 -0.638633
H	 0.556807	 -1.834137	 1.060225
C	 -1.265341	 -0.840502	 0.551395
H	 -1.475616	 2.065549	 -1.115965
C	 -1.848159	 0.251162	 -0.057313
H	 -1.879506	 -1.593841	 1.007037
H	 -2.915104	 0.356004	 -0.080380

	symmetry c1
}
set optking {
	frozen_dihedral = ("
		4 3 2 1
	")
}

ee,wfn = optimize('scf', return_wfn=True)
oeprop( wfn, 'DIPOLE', 'QUADRUPOLE', 'MULLIKEN_CHARGES')
f=open( 'psi4out.xyz', 'w' )
f.write( "13  " )
f.write( str(ee) + "\n" )
f.write( MOL.save_string_xyz() )
f.close()
--------------------------------------------------------------------------

    Molecular point group: c1
  Charge       = 0
  Multiplicity = 1
  Basis Set: CC-PVTZ
  Basis Set:
  @DF-RHF Final Energy:  -305.66763875375136
    Total Energy =                       -305.6676387537514756
    Molecular point group: c1
  Basis Set: CC-PVTZ
  Basis Set:
  Basis Set: CC-PVTZ
  Basis Set:
  @DF-RHF Final Energy:  -305.66925977776162
    Total Energy =                       -305.6692597777614537
  Basis Set: CC-PVTZ
  Basis Set:
  Basis Set: CC-PVTZ
  Basis Set:
  @DF-RHF Final Energy:  -305.66943319055878
    Total Energy =                       -305.6694331905584932
  Basis Set: CC-PVTZ
  Basis Set:
  Basis Set: CC-PVTZ
  Basis Set:
  @DF-RHF Final Energy:  -305.66944993602607
    Total Energy =                       -305.6694499360263535
  Basis Set: CC-PVTZ
  Basis Set:
  Basis Set: CC-PVTZ
  Basis Set:
  @DF-RHF Final Energy:  -305.66945428835271
    Total Energy =                       -305.6694542883524832
  Basis Set: CC-PVTZ
  Basis Set:
  Charge       = 0
  Multiplicity = 1
  Basis Set: CC-PVTZ
  Basis Set:

    Orbital Energies (a.u.)
    -----------------------

    Doubly Occupied:

       1A    -20.581693     2A    -11.295559     3A    -11.234915
       4A    -11.233280     5A    -11.226211     6A    -11.221287
       7A    -11.220848     8A     -1.411451     9A     -1.152791
      10A     -1.022626    11A     -1.008402    12A     -0.848646
      13A     -0.826979    14A     -0.740909    15A     -0.687464
      16A     -0.653915    17A     -0.618378    18A     -0.598857
      19A     -0.591742    20A     -0.554357    21A     -0.517430
      22A     -0.494752    23A     -0.482492    24A     -0.342845
      25A     -0.317755

  @DF-RHF Final Energy:  -305.66945474805237

   => Energetics <=

    Nuclear Repulsion Energy =            273.7148598587360198
    One-Electron Energy =                -956.9974673874853579
    Two-Electron Energy =                 377.6131527806969643
    DFT Exchange-Correlation Energy =       0.0000000000000000
    Empirical Dispersion Energy =           0.0000000000000000
    PCM Polarization Energy =               0.0000000000000000
    EFP Energy =                            0.0000000000000000
    Total Energy =                       -305.6694547480524307
    Molecular point group: c1
  Basis Set: CC-PVTZ
  Basis Set:

  -Total Gradient:
     Atom            X                  Y                   Z
    ------   -----------------  -----------------  -----------------
       1       -0.000044486679    -0.000091931673     0.002274515875
       2        0.000022579021    -0.000302077076    -0.003677989331
       3        0.000143775173     0.001178979614     0.002955939177
       4       -0.000042261740    -0.000774230490    -0.001525358681
       5       -0.000046949310    -0.000002150674    -0.000027499906
       6        0.000002953801    -0.000003388042     0.000004131845
       7       -0.000007953079    -0.000019423351    -0.000022227654
       8        0.000020824062     0.000008290011    -0.000001094936
       9       -0.000020174881     0.000026159224    -0.000019458502
      10       -0.000018036870    -0.000005546518     0.000010010347
      11        0.000003259709    -0.000031692250     0.000030068912
      12       -0.000004221478     0.000005033713     0.000003116304
      13       -0.000009307728     0.000011977510    -0.000004153448

  **** Optimization is complete! (in 6 steps) ****
    Final optimized geometry and variables:
    Molecular point group: c1

    Geometry (in Angstrom), charge = 0, multiplicity = 1:

    H            2.690387459223     0.593868657395     0.094874361719
    O            2.250327914694    -0.235669671451     0.049642516685
    C            0.907031013154    -0.068833139565     0.027972700802
    C            0.316811290244     1.053581926022    -0.523307065652
    C            0.120905353759    -1.088996505029     0.533036132142
    H            0.930087186991     1.834856579406    -0.933453585963
    C           -1.061466504266     1.161003164393    -0.548261012869
    H            0.596358498461    -1.954931650307     0.949800133599
    C           -1.253420838356    -0.974912878890     0.491957426502
    H           -1.512959005882     2.037554292086    -0.972678371335
    C           -1.854789995659     0.150220376771    -0.043815177432
    H           -1.858640509961    -1.769132188228     0.886017697955
    H           -2.923616901116     0.234899302361    -0.069234516082

  Mulliken Charges: (a.u.)
   Center  Symbol    Alpha    Beta     Spin     Total
       1     H     0.38628  0.38628  0.00000  0.22745
       2     O     4.17972  4.17972  0.00000 -0.35945
       3     C     2.85773  2.85773  0.00000  0.28454
       4     C     3.12873  3.12873  0.00000 -0.25746
       5     C     3.11000  3.11000  0.00000 -0.22000
       6     H     0.43048  0.43048  0.00000  0.13905
       7     C     3.06577  3.06577  0.00000 -0.13153
       8     H     0.41841  0.41841  0.00000  0.16318
       9     C     3.05871  3.05871  0.00000 -0.11742
      10     H     0.42233  0.42233  0.00000  0.15535
      11     C     3.09579  3.09579  0.00000 -0.19159
      12     H     0.42230  0.42230  0.00000  0.15540
      13     H     0.42375  0.42375  0.00000  0.15250

   Total alpha = 25.00000, Total beta = 25.00000, Total charge = -0.00000

*** Psi4 exiting successfully. Buy a developer a beer!
