  ==> Input File <==

--------------------------------------------------------------------------
set {
	reference rhf
	basis cc-pvtz
}

set_num_threads( 4 )
memory 2 gb

molecule MOL {
0 1

H	 -2.337107	 -0.965527	 -0.571864
O	 -2.346257	 -0.289210	 0.080372
C	 -1.183935	 0.486039	 -0.009831
C	 0.062853	 -0.375310	 0.027457
H	 -1.178881	 1.094526	 -0.908634
H	 -1.184406	 1.155156	 0.838676
O	 1.172093	 0.457955	 -0.054438
H	 0.052476	 -1.081302	 -0.804627
H	 0.076323	 -0.955658	 0.947560
C	 2.395478	 -0.199028	 -0.000366
H	 2.505946	 -0.901710	 -0.823354
H	 3.174616	 0.545641	 -0.071768
H	 2.513730	 -0.742241	 0.934223

	symmetry c1
}
set optking {
	frozen_dihedral = ("
		1 2 3 5
	")
}

ee = optimize('scf')
oeprop('DIPOLE', 'QUADRUPOLE', 'MULLIKEN_CHARGES')
f=open( 'psi4out.xyz', 'w' )
f.write( "13  " )
f.write( str(ee) + "\n" )
f.write( MOL.save_string_xyz() )
f.close()
--------------------------------------------------------------------------

    Molecular point group: c1
  Charge       = 0
  Multiplicity = 1
  Basis Set: CC-PVTZ
  Basis Set:
  @DF-RHF Final Energy:  -268.06175198882323
    Total Energy =                       -268.0617519888228912
    Molecular point group: c1
  Basis Set: CC-PVTZ
  Basis Set:
  Basis Set: CC-PVTZ
  Basis Set:
  @DF-RHF Final Energy:  -268.06177537186431
    Total Energy =                       -268.0617753718643144
  Basis Set: CC-PVTZ
  Basis Set:
  Basis Set: CC-PVTZ
  Basis Set:
  @DF-RHF Final Energy:  -268.06177981428942
    Total Energy =                       -268.0617798142893662
  Basis Set: CC-PVTZ
  Basis Set:
  Charge       = 0
  Multiplicity = 1
  Basis Set: CC-PVTZ
  Basis Set:

    Orbital Energies (a.u.)
    -----------------------

    Doubly Occupied:

       1A    -20.558188     2A    -20.552685     3A    -11.272843
       4A    -11.269398     5A    -11.267260     6A     -1.394238
       7A     -1.369234     8A     -1.020870     9A     -0.915073
      10A     -0.847034    11A     -0.707898    12A     -0.678550
      13A     -0.668116    14A     -0.636188    15A     -0.598585
      16A     -0.578136    17A     -0.546300    18A     -0.495625
      19A     -0.479016    20A     -0.443016    21A     -0.426917

  @DF-RHF Final Energy:  -268.06177990239252

   => Energetics <=

    Nuclear Repulsion Energy =            190.5932524126800445
    One-Electron Energy =                -743.8597237227334062
    Two-Electron Energy =                 285.2046914076607891
    DFT Exchange-Correlation Energy =       0.0000000000000000
    Empirical Dispersion Energy =           0.0000000000000000
    PCM Polarization Energy =               0.0000000000000000
    EFP Energy =                            0.0000000000000000
    Total Energy =                       -268.0617799023925727
    Molecular point group: c1
  Basis Set: CC-PVTZ
  Basis Set:

  -Total Gradient:
     Atom            X                  Y                   Z
    ------   -----------------  -----------------  -----------------
       1        0.000819445672    -0.001105530765     0.001130485357
       2       -0.001230249706     0.001676803670    -0.001152428408
       3        0.001108556495    -0.001727391534    -0.000778927167
       4       -0.000033172736    -0.000005812238     0.000018917443
       5       -0.000687625489     0.001149861848     0.000789594342
       6       -0.000003961431    -0.000005417287     0.000003080471
       7        0.000014454756    -0.000004863155    -0.000005297126
       8        0.000002412701     0.000012497459     0.000002995253
       9       -0.000001559546    -0.000001396772    -0.000005416888
      10        0.000000480977     0.000019789443    -0.000005363569
      11        0.000001098013    -0.000002324431     0.000001168967
      12        0.000011949867    -0.000005340254     0.000001105240
      13       -0.000001829575    -0.000000875985     0.000000086084

  **** Optimization is complete! (in 4 steps) ****
    Final optimized geometry and variables:
    Molecular point group: c1

    Geometry (in Angstrom), charge = 0, multiplicity = 1:

    H           -2.351494222273    -0.954358217583    -0.582540553300
    O           -2.352318113651    -0.282968463092     0.075611194821
    C           -1.185265486344     0.484778030706    -0.011927112069
    C            0.063009153423    -0.373203940047     0.029545094585
    H           -1.181790201559     1.100283953031    -0.906289763696
    H           -1.189011253070     1.152048969417     0.838207734660
    O            1.170387313590     0.460280495764    -0.057072348563
    H            0.054920809558    -1.082781366620    -0.800700723101
    H            0.078872653047    -0.950202853442     0.952060701789
    C            2.394947919777    -0.195106250648    -0.003000663487
    H            2.505005603116    -0.899817308663    -0.824254968183
    H            3.172575158727     0.550637585131    -0.077795015112
    H            2.515300263584    -0.735278273370     0.933041730023

  Mulliken Charges: (a.u.)
   Center  Symbol    Alpha    Beta     Spin     Total
       1     H     0.39463  0.39463  0.00000  0.21074
       2     O     4.20153  4.20153  0.00000 -0.40306
       3     C     2.96636  2.96636  0.00000  0.06727
       4     C     2.96986  2.96986  0.00000  0.06027
       5     H     0.46817  0.46817  0.00000  0.06367
       6     H     0.45461  0.45461  0.00000  0.09077
       7     O     4.17410  4.17410  0.00000 -0.34821
       8     H     0.48344  0.48344  0.00000  0.03312
       9     H     0.46871  0.46871  0.00000  0.06257
      10     C     3.03224  3.03224  0.00000 -0.06449
      11     H     0.47111  0.47111  0.00000  0.05779
      12     H     0.44544  0.44544  0.00000  0.10912
      13     H     0.46978  0.46978  0.00000  0.06044

   Total alpha = 21.00000, Total beta = 21.00000, Total charge = -0.00000
