  ==> Input File <==

--------------------------------------------------------------------------
set {
	reference rhf
	basis 6-31G*
}

set_num_threads( 4 )
memory 2 gb

molecule MOL {
0 1

H	 -2.441467	 -0.734523	 0.705581
O	 -2.315789	 -0.143634	 -0.024262
C	 -0.945151	 -0.064130	 -0.333158
H	 -0.813375	 -0.223047	 -1.403232
C	 -0.232801	 -1.184051	 0.407206
C	 -0.355424	 1.302939	 0.054523
H	 -0.318824	 -0.992899	 1.473524
H	 -0.742411	 -2.122033	 0.217954
C	 1.248522	 -1.270719	 -0.013048
H	 -0.546144	 2.018388	 -0.742941
H	 -0.890929	 1.656788	 0.930149
C	 1.156425	 1.235120	 0.355905
H	 1.825384	 -1.683246	 0.809111
H	 1.357782	 -1.965923	 -0.840362
C	 1.828244	 0.099899	 -0.419275
H	 1.626109	 2.185622	 0.123525
H	 1.309438	 1.071213	 1.419539
H	 2.901447	 0.112642	 -0.255830
H	 1.681817	 0.263413	 -1.484607

	symmetry c1
}
set optking {
	frozen_dihedral = ("
		1 2 3 4
	")
}

ee = optimize('scf')
oeprop('DIPOLE', 'QUADRUPOLE', 'MULLIKEN_CHARGES')
f=open( 'psi4out.xyz', 'w' )
f.write( "19  " )
f.write( str(ee) + "\n" )
f.write( MOL.save_string_xyz() )
f.close()
--------------------------------------------------------------------------

    Molecular point group: c1
  Charge       = 0
  Multiplicity = 1
  Basis Set: 6-31G*
  Basis Set:
  @DF-RHF Final Energy:  -309.04449532990890
    Total Energy =                       -309.0444953299088411
    Molecular point group: c1
  Basis Set: 6-31G*
  Basis Set:
  Basis Set: 6-31G*
  Basis Set:
  @DF-RHF Final Energy:  -309.04583360799325
    Total Energy =                       -309.0458336079933588
  Basis Set: 6-31G*
  Basis Set:
  Basis Set: 6-31G*
  Basis Set:
  @DF-RHF Final Energy:  -309.04616791281717
    Total Energy =                       -309.0461679128172818
  Basis Set: 6-31G*
  Basis Set:
  Basis Set: 6-31G*
  Basis Set:
  @DF-RHF Final Energy:  -309.04617471601875
    Total Energy =                       -309.0461747160184132
  Basis Set: 6-31G*
  Basis Set:
  Charge       = 0
  Multiplicity = 1
  Basis Set: 6-31G*
  Basis Set:

    Orbital Energies (a.u.)
    -----------------------

    Doubly Occupied:

       1A    -20.547315     2A    -11.268682     3A    -11.221936
       4A    -11.221111     5A    -11.217796     6A    -11.216088
       7A    -11.208313     8A     -1.356645     9A     -1.110676
      10A     -1.004966    11A     -0.988942    12A     -0.851858
      13A     -0.834693    14A     -0.747298    15A     -0.675605
      16A     -0.667232    17A     -0.621759    18A     -0.599719
      19A     -0.578651    20A     -0.552520    21A     -0.531934
      22A     -0.521962    23A     -0.500954    24A     -0.491515
      25A     -0.464665    26A     -0.449332    27A     -0.428144
      28A     -0.410486

  @DF-RHF Final Energy:  -309.04617554757090

   => Energetics <=

    Nuclear Repulsion Energy =            331.2230628104886136
    One-Electron Energy =               -1075.9568835840991596
    Two-Electron Energy =                 435.6876452260396491
    DFT Exchange-Correlation Energy =       0.0000000000000000
    Empirical Dispersion Energy =           0.0000000000000000
    PCM Polarization Energy =               0.0000000000000000
    EFP Energy =                            0.0000000000000000
    Total Energy =                       -309.0461755475708969
    Molecular point group: c1
  Basis Set: 6-31G*
  Basis Set:

  -Total Gradient:
     Atom            X                  Y                   Z
    ------   -----------------  -----------------  -----------------
       1       -0.000118775563    -0.000954497878    -0.000811464467
       2        0.000147865884     0.000926048666     0.001039562242
       3       -0.000085723773     0.001039737917    -0.000349015778
       4        0.000058334480    -0.001048819429     0.000168605290
       5       -0.000031700711     0.000019115500    -0.000035753266
       6        0.000062011485     0.000000040365     0.000012721496
       7        0.000007872769    -0.000011054072    -0.000017036356
       8        0.000009494921    -0.000004976141     0.000008546337
       9       -0.000008803439    -0.000009721155     0.000054166641
      10        0.000024100167     0.000019331575    -0.000020724612
      11       -0.000002371633    -0.000007409994    -0.000015432605
      12       -0.000030443484     0.000030034474    -0.000020238316
      13        0.000022713291    -0.000023785783    -0.000000964760
      14       -0.000017775020     0.000003418488    -0.000002013130
      15       -0.000014767913     0.000022369506    -0.000026228978
      16       -0.000013879949     0.000015046534     0.000018276224
      17       -0.000000778230    -0.000000968434     0.000003836234
      18       -0.000012461080    -0.000021864372     0.000000213785
      19        0.000005087805     0.000007954233    -0.000007055982

  **** Optimization is complete! (in 5 steps) ****
    Final optimized geometry and variables:
    Molecular point group: c1

    Geometry (in Angstrom), charge = 0, multiplicity = 1:

    H           -2.540953109946    -0.663762195385     0.631082615122
    O           -2.338912942219    -0.079575359613    -0.085105582140
    C           -0.948877860024    -0.066743543445    -0.321935634262
    H           -0.823439011459    -0.229771168512    -1.387967021606
    C           -0.218721083784    -1.187246012311     0.410854098033
    C           -0.362229283862     1.300219749252     0.063444718500
    H           -0.289635859169    -1.003810067849     1.482364237041
    H           -0.714105393786    -2.135627537583     0.220667471600
    C            1.261122672162    -1.263854571127    -0.018366318172
    H           -0.575245562639     2.010853766102    -0.729352640909
    H           -0.892445980246     1.651663880276     0.942721108278
    C            1.153571857258     1.241391074112     0.345572698027
    H            1.847095846653    -1.666508989276     0.802100620336
    H            1.367576611974    -1.963020448619    -0.842181225379
    C            1.823120477727     0.109948132570    -0.436931081402
    H            1.615303658042     2.193905678130     0.105790674098
    H            1.325105339575     1.080052377427     1.407409387121
    H            2.898479911366     0.128494914727    -0.289535927979
    H            1.658974589010     0.268328932055    -1.500101034876

  Mulliken Charges: (a.u.)
   Center  Symbol    Alpha    Beta     Spin     Total
       1     H     0.28031  0.28031  0.00000  0.43937
       2     O     4.38572  4.38572  0.00000 -0.77144
       3     C     2.89506  2.89506  0.00000  0.20988
       4     H     0.42181  0.42181  0.00000  0.15637
       5     C     3.19297  3.19297  0.00000 -0.38594
       6     C     3.16170  3.16170  0.00000 -0.32340
       7     H     0.42174  0.42174  0.00000  0.15651
       8     H     0.41444  0.41444  0.00000  0.17112
       9     C     3.15747  3.15747  0.00000 -0.31493
      10     H     0.41557  0.41557  0.00000  0.16886
      11     H     0.41588  0.41588  0.00000  0.16824
      12     C     3.16575  3.16575  0.00000 -0.33149
      13     H     0.41739  0.41739  0.00000  0.16522
      14     H     0.41658  0.41658  0.00000  0.16684
      15     C     3.16446  3.16446  0.00000 -0.32893
      16     H     0.41582  0.41582  0.00000  0.16836
      17     H     0.42141  0.42141  0.00000  0.15718
      18     H     0.41621  0.41621  0.00000  0.16757
      19     H     0.41968  0.41968  0.00000  0.16063

   Total alpha = 28.00000, Total beta = 28.00000, Total charge =  0.00000
