  ==> Input File <==

--------------------------------------------------------------------------
set {
	reference rhf
	basis 6-31G*
}

set_num_threads( 4 )
memory 2 gb

molecule MOL {
0 1

H	 2.427017	 2.816795	 -1.138636
O	 1.483121	 2.767226	 -1.195296
C	 1.020188	 1.647506	 -0.598377
C	 1.863119	 0.722863	 0.004787
C	 -0.347782	 1.437560	 -0.601732
H	 2.927410	 0.888148	 0.006287
C	 1.338120	 -0.410024	 0.603630
H	 -0.999993	 2.150979	 -1.067276
C	 -0.865228	 0.300799	 0.000000
H	 2.000389	 -1.118442	 1.067227
C	 -0.027775	 -0.627882	 0.604975
C	 -2.333960	 0.069074	 0.000000
H	 -0.437717	 -1.507162	 1.069539
O	 -2.847347	 -1.003763	 0.000000
H	 -2.943845	 0.977528	 0.000000

	symmetry c1
}
set optking {
	frozen_dihedral = ("
		11 9 12 14
	")
}

ee = optimize('scf')
oeprop('DIPOLE', 'QUADRUPOLE', 'MULLIKEN_CHARGES')
f=open( 'psi4out.xyz', 'w' )
f.write( "15  " )
f.write( str(ee) + "\n" )
f.write( MOL.save_string_xyz() )
f.close()
--------------------------------------------------------------------------

    Molecular point group: c1
  Charge       = 0
  Multiplicity = 1
  Basis Set: 6-31G*
  Basis Set:
  @DF-RHF Final Energy:  -418.28337181573062
    Total Energy =                       -418.2833718157307885
    Molecular point group: c1
  Basis Set: 6-31G*
  Basis Set:
  Basis Set: 6-31G*
  Basis Set:
  @DF-RHF Final Energy:  -418.28199877333151
    Total Energy =                       -418.2819987733312246
  Basis Set: 6-31G*
  Basis Set:
  Basis Set: 6-31G*
  Basis Set:
  @DF-RHF Final Energy:  -418.28367362994294
    Total Energy =                       -418.2836736299425411
  Basis Set: 6-31G*
  Basis Set:
  Basis Set: 6-31G*
  Basis Set:
  @DF-RHF Final Energy:  -418.28385347752032
    Total Energy =                       -418.2838534775204380
  Basis Set: 6-31G*
  Basis Set:
  Charge       = 0
  Multiplicity = 1
  Basis Set: 6-31G*
  Basis Set:

    Orbital Energies (a.u.)
    -----------------------

    Doubly Occupied:

       1A    -20.604472     2A    -20.566474     3A    -11.333372
       4A    -11.314649     5A    -11.253305     6A    -11.251207
       7A    -11.247826     8A    -11.245694     9A    -11.239482
      10A     -1.423878    11A     -1.406513    12A     -1.169236
      13A     -1.050546    14A     -1.024506    15A     -0.901086
      16A     -0.845412    17A     -0.814059    18A     -0.738044
      19A     -0.701043    20A     -0.673244    21A     -0.663245
      22A     -0.629103    23A     -0.612102    24A     -0.603487
      25A     -0.579390    26A     -0.544654    27A     -0.538883
      28A     -0.515712    29A     -0.486683    30A     -0.423759
      31A     -0.355446    32A     -0.324392

  @DF-RHF Final Energy:  -418.28385650831945

   => Energetics <=

    Nuclear Repulsion Energy =            402.1932344016939851
    One-Electron Energy =               -1366.7923757701094019
    Two-Electron Energy =                 546.3152848600957441
    DFT Exchange-Correlation Energy =       0.0000000000000000
    Empirical Dispersion Energy =           0.0000000000000000
    PCM Polarization Energy =               0.0000000000000000
    EFP Energy =                            0.0000000000000000
    Total Energy =                       -418.2838565083196727
    Molecular point group: c1
  Basis Set: 6-31G*
  Basis Set:

  -Total Gradient:
     Atom            X                  Y                   Z
    ------   -----------------  -----------------  -----------------
       1       -0.000002634242    -0.000003889850    -0.000001484140
       2        0.000050809954    -0.000008876807     0.000037578311
       3       -0.000442594183     0.000111702329    -0.000143353182
       4        0.000059264392    -0.000439427166     0.000131231838
       5        0.000306010621     0.000245504359    -0.000028769148
       6       -0.000000361304     0.000023553477     0.000007822788
       7        0.000333786961     0.000313474783    -0.000021851682
       8       -0.000019981112    -0.000042502702    -0.000000774533
       9        0.000382374036    -0.003651049967    -0.007729898376
      10       -0.000012616461    -0.000027240431    -0.000010885813
      11       -0.000626750015     0.002420950868     0.003636847210
      12        0.000008775596     0.001316044101     0.009445309921
      13        0.000017588101    -0.000030607163    -0.000005027660
      14       -0.000099968475    -0.000217313308    -0.005339141274
      15        0.000046296129    -0.000010322523     0.000022395743

  **** Optimization is complete! (in 5 steps) ****
    Final optimized geometry and variables:
    Molecular point group: c1

    Geometry (in Angstrom), charge = 0, multiplicity = 1:

    H            2.508700889466     2.250011551137    -0.995909812375
    O            1.564424265992     2.196330761071    -1.043820065547
    C            1.114346841280     1.070600706648    -0.447323390749
    C            1.958240292930     0.151523330491     0.153884740266
    C           -0.256358401997     0.856705077443    -0.438404236836
    H            3.021659486572     0.322025671105     0.160439158632
    C            1.432494958006    -0.983476401538     0.755959975338
    H           -0.899530948546     1.589851755603    -0.891243024545
    C           -0.768560723147    -0.293997614624     0.135584220382
    H            2.097127340975    -1.683407084238     1.229145300984
    C            0.071863723553    -1.215947316348     0.751209873992
    C           -2.243439336237    -0.496818559241     0.157949503731
    H           -0.345113318549    -2.094800034827     1.204801214284
    O           -2.769347663333    -1.563027844561     0.191167905020
    H           -2.840960189119     0.417353263803     0.098234628610

  Mulliken Charges: (a.u.)
   Center  Symbol    Alpha    Beta     Spin     Total
       1     H     0.27008  0.27008  0.00000  0.45984
       2     O     4.37730  4.37730  0.00000 -0.75459
       3     C     2.79466  2.79466  0.00000  0.41068
       4     C     3.13655  3.13655  0.00000 -0.27310
       5     C     3.12857  3.12857  0.00000 -0.25714
       6     H     0.39940  0.39940  0.00000  0.20120
       7     C     3.09383  3.09383  0.00000 -0.18766
       8     H     0.38517  0.38517  0.00000  0.22967
       9     C     3.03604  3.03604  0.00000 -0.07208
      10     H     0.39264  0.39264  0.00000  0.21472
      11     C     3.10436  3.10436  0.00000 -0.20873
      12     C     2.83894  2.83894  0.00000  0.32212
      13     H     0.38127  0.38127  0.00000  0.23746
      14     O     4.24022  4.24022  0.00000 -0.48043
      15     H     0.42098  0.42098  0.00000  0.15804

   Total alpha = 32.00000, Total beta = 32.00000, Total charge =  0.00000
