                              Psi4 1.0.54 Driver

  ==> Input File <==

--------------------------------------------------------------------------
set {
	reference rhf
	basis cc-pvtz
}

set_num_threads( 4 )
memory 2 gb

molecule MOL {
0 1

H	 -2.122788	 0.067663	 0.000363
C	 -1.207832	 -0.484956	 0.000217
C	 -1.200234	 -1.865056	 0.000185
C	 0.000000	 0.179985	 0.000046
H	 -2.128939	 -2.400800	 0.000318
C	 -0.000000	 -2.552036	 -0.000013
N	 0.000000	 1.644631	 0.000076
C	 1.207832	 -0.484956	 -0.000151
H	 -0.000000	 -3.625035	 -0.000032
C	 1.200234	 -1.865056	 -0.000180
O	 1.050559	 2.194174	 -0.000073
O	 -1.050559	 2.194174	 -0.000074
H	 2.122788	 0.067663	 -0.000283
H	 2.128939	 -2.400800	 -0.000330

	symmetry c1
}
set optking {
	frozen_dihedral = ("
		2 4 7 11
	")
}

ee,wfn = optimize('scf', return_wfn=True)
oeprop( wfn, 'DIPOLE', 'QUADRUPOLE', 'MULLIKEN_CHARGES')
f=open( 'psi4out.xyz', 'w' )
f.write( "14  " )
f.write( str(ee) + "\n" )
f.write( MOL.save_string_xyz() )
f.close()
--------------------------------------------------------------------------

    Molecular point group: c1
  Charge       = 0
  Multiplicity = 1
  Basis Set: CC-PVTZ
  Basis Set:
  @DF-RHF Final Energy:  -434.33008810095595
    Total Energy =                       -434.3300881009558907
    Molecular point group: c1
  Basis Set: CC-PVTZ
  Basis Set:
  Basis Set: CC-PVTZ
  Basis Set:
  @DF-RHF Final Energy:  -434.33008384214082
    Total Energy =                       -434.3300838421407661
  Basis Set: CC-PVTZ
  Basis Set:
  Basis Set: CC-PVTZ
  Basis Set:
  @DF-RHF Final Energy:  -434.33008772666403
    Total Energy =                       -434.3300877266638054
  Basis Set: CC-PVTZ
  Basis Set:
  Charge       = 0
  Multiplicity = 1
  Basis Set: CC-PVTZ
  Basis Set:

    Orbital Energies (a.u.)
    -----------------------

    Doubly Occupied:

       1A    -20.591683     2A    -20.591627     3A    -15.847792
       4A    -11.302390     5A    -11.267168     6A    -11.267127
       7A    -11.264854     8A    -11.258170     9A    -11.258037
      10A     -1.641202    11A     -1.423519    12A     -1.204489
      13A     -1.095644    14A     -1.054991    15A     -0.959450
      16A     -0.866950    17A     -0.828967    18A     -0.789566
      19A     -0.740815    20A     -0.735312    21A     -0.711446
      22A     -0.659883    23A     -0.651995    24A     -0.626424
      25A     -0.555134    26A     -0.540630    27A     -0.531289
      28A     -0.492063    29A     -0.491695    30A     -0.457741
      31A     -0.377784    32A     -0.369250

  @DF-RHF Final Energy:  -434.33008823677204

   => Energetics <=

    Nuclear Repulsion Energy =            418.2277944481650707
    One-Electron Energy =               -1420.2055974238028284
    Two-Electron Energy =                 567.6477147388659432
    DFT Exchange-Correlation Energy =       0.0000000000000000
    Empirical Dispersion Energy =           0.0000000000000000
    PCM Polarization Energy =               0.0000000000000000
    EFP Energy =                            0.0000000000000000
    Total Energy =                       -434.3300882367718714
    Molecular point group: c1
  Basis Set: CC-PVTZ
  Basis Set:

  -Total Gradient:
     Atom            X                  Y                   Z
    ------   -----------------  -----------------  -----------------
       1       -0.000000643408    -0.000000504821     0.000000240226
       2        0.000006146813    -0.000002981801    -0.000000337416
       3        0.000003507049     0.000002939523     0.000000305708
       4       -0.000000409487    -0.000001956293     0.000001863346
       5        0.000000624286     0.000001388061    -0.000000151104
       6        0.000000002038     0.000002390371     0.000000685439
       7        0.000006761342    -0.000000017364    -0.000008524373
       8       -0.000006364943    -0.000002829473    -0.000000085462
       9        0.000000016575     0.000001122501    -0.000000475878
      10       -0.000003480684     0.000002948597     0.000000044500
      11       -0.000011109065    -0.000003291568     0.000002937920
      12        0.000004743718    -0.000000157038     0.000003354008
      13        0.000000817599    -0.000000441563     0.000000274360
      14       -0.000000611833     0.000001390871    -0.000000131274

  **** Optimization is complete! (in 4 steps) ****
    Final optimized geometry and variables:
    Molecular point group: c1

    Geometry (in Angstrom), charge = 0, multiplicity = 1:

    H           -2.122713196729     0.067890136000     0.000290641179
    C           -1.207827651574    -0.484799351434     0.000163216331
    C           -1.200192389687    -1.864846515916     0.000167560682
    C           -0.000000222724     0.179929488864    -0.000006107713
    H           -2.128857444582    -2.400622165128     0.000294454616
    C            0.000000130824    -2.551764456685     0.000003271563
    N            0.000002084639     1.644450717426    -0.000011651310
    C            1.207827146039    -0.484799333127    -0.000169250336
    H            0.000000232106    -3.624737122711    -0.000002041136
    C            1.200192539897    -1.864846471441    -0.000163615537
    O            1.050682302385     2.193859794446    -0.000158543420
    O           -1.050683818797     2.193861454945     0.000172600240
    H            2.122713106406     0.067889946067    -0.000293674175
    H            2.128857729679    -2.400621879800    -0.000291943764

  Mulliken Charges: (a.u.)
   Center  Symbol    Alpha    Beta     Spin     Total
       1     H     0.39891  0.39891  0.00000  0.20219
       2     C     3.07669  3.07669  0.00000 -0.15338
       3     C     3.07221  3.07221  0.00000 -0.14442
       4     C     2.98227  2.98227  0.00000  0.03545
       5     H     0.41694  0.41694  0.00000  0.16613
       6     C     3.06449  3.06449  0.00000 -0.12897
       7     N     3.25234  3.25234  0.00000  0.49531
       8     C     3.07669  3.07669  0.00000 -0.15338
       9     H     0.41708  0.41708  0.00000  0.16584
      10     C     3.07221  3.07221  0.00000 -0.14442
      11     O     4.17717  4.17717  0.00000 -0.35434
      12     O     4.17717  4.17717  0.00000 -0.35435
      13     H     0.39891  0.39891  0.00000  0.20219
      14     H     0.41694  0.41694  0.00000  0.16613

   Total alpha = 32.00000, Total beta = 32.00000, Total charge =  0.00000

*** Psi4 exiting successfully. Buy a developer a beer!
