  ==> Input File <==

--------------------------------------------------------------------------
set {
	reference rhf
	basis 6-31G*
}

set_num_threads( 1 )
memory 2 gb

molecule MOL {
0 1

O	 3.817993	 -0.118022	 2.258548
C	 3.017400	 -0.524514	 1.479526
C	 1.520454	 -0.523686	 1.674309
O	 3.347903	 -1.046386	 0.304773
C	 1.089558	 0.079929	 3.009260
H	 1.090026	 0.005636	 0.830662
H	 1.182239	 -1.552745	 1.582955
C	 -0.418445	 -0.007051	 3.267830
H	 1.411426	 1.115996	 3.054924
H	 1.616785	 -0.432560	 3.806636
C	 -1.284715	 0.829748	 2.322074
H	 -0.604437	 0.318522	 4.288679
H	 -0.734836	 -1.048075	 3.221197
C	 -2.769654	 0.796307	 2.689275
H	 -0.934497	 1.860774	 2.334377
H	 -1.168148	 0.479711	 1.298913
C	 -3.645641	 1.624848	 1.747842
H	 -2.896505	 1.158078	 3.708228
H	 -3.117860	 -0.235414	 2.687626
C	 -5.126572	 1.589259	 2.123712
H	 -3.298429	 2.655909	 1.747517
H	 -3.523527	 1.261910	 0.729439
H	 -5.721201	 2.185386	 1.438397
H	 -5.286326	 1.978980	 3.125106
H	 -5.512897	 0.574147	 2.099752
C	 4.728119	 -1.109107	 -0.004993
H	 4.882018	 -1.033965	 -1.071845
H	 5.068212	 -2.067527	 0.355250
H	 5.265056	 -0.311663	 0.488280

	symmetry c1
}
set optking {
	frozen_dihedral = ("
		21 17 14 11,
		17 14 11 15,
		15 11 8 5,
		6 3 5 9,
		11 8 5 9,
		1 2 4 26,
		6 3 2 1
	")
}

ee = energy('scf')
oeprop('DIPOLE', 'QUADRUPOLE', 'MULLIKEN_CHARGES')
f=open( 'psi4out.xyz', 'w' )
f.write( "29  " )
f.write( str(ee) + "\n" )
f.write( MOL.save_string_xyz() )
f.close()
--------------------------------------------------------------------------

    Molecular point group: c1

    Geometry (in Angstrom), charge = 0, multiplicity = 1:

       Center              X                  Y                   Z               Mass
    ------------   -----------------  -----------------  -----------------  -----------------
           O          3.390720267872    -0.253425102749     0.382177319083    15.994914619560
           C          2.590127267872    -0.659917102749    -0.396844680917    12.000000000000
           C          1.093181267872    -0.659089102749    -0.202061680917    12.000000000000
           O          2.920630267872    -1.181789102749    -1.571597680917    15.994914619560
           C          0.662285267872    -0.055474102749     1.132889319083    12.000000000000
           H          0.662753267872    -0.129767102749    -1.045708680917     1.007825032070
           H          0.754966267872    -1.688148102749    -0.293415680917     1.007825032070
           C         -0.845717732128    -0.142454102749     1.391459319083    12.000000000000
           H          0.984153267872     0.980592897251     1.178553319083     1.007825032070
           H          1.189512267872    -0.567963102749     1.930265319083     1.007825032070
           C         -1.711987732128     0.694344897251     0.445703319083    12.000000000000
           H         -1.031709732128     0.183118897251     2.412308319083     1.007825032070
           H         -1.162108732128    -1.183478102749     1.344826319083     1.007825032070
           C         -3.196926732128     0.660903897251     0.812904319083    12.000000000000
           H         -1.361769732128     1.725370897251     0.458006319083     1.007825032070
           H         -1.595420732128     0.344307897251    -0.577457680917     1.007825032070
           C         -4.072913732128     1.489444897251    -0.128528680917    12.000000000000
           H         -3.323777732128     1.022674897251     1.831857319083     1.007825032070
           H         -3.545132732128    -0.370817102749     0.811255319083     1.007825032070
           C         -5.553844732128     1.453855897251     0.247341319083    12.000000000000
           H         -3.725701732128     2.520505897251    -0.128853680917     1.007825032070
           H         -3.950799732128     1.126506897251    -1.146931680917     1.007825032070
           H         -6.148473732128     2.049982897251    -0.437973680917     1.007825032070
           H         -5.713598732128     1.843576897251     1.248735319083     1.007825032070
           H         -5.940169732128     0.438743897251     0.223381319083     1.007825032070
           C          4.300846267872    -1.244510102749    -1.881363680917    12.000000000000
           H          4.454745267872    -1.169368102749    -2.948215680917     1.007825032070
           H          4.640939267872    -2.202930102749    -1.521120680917     1.007825032070
           H          4.837783267872    -0.447066102749    -1.388090680917     1.007825032070

  Charge       = 0
  Multiplicity = 1
  Basis Set: 6-31G*
  Basis Set:

    Orbital Energies (a.u.)
    -----------------------

    Doubly Occupied:

       1A    -20.602650     2A    -20.544555     3A    -11.372860
       4A    -11.278200     5A    -11.234988     6A    -11.219198
       7A    -11.217696     8A    -11.216029     9A    -11.215875
      10A    -11.214490    11A    -11.209069    12A     -1.469079
      13A     -1.362416    14A     -1.098159    15A     -1.066893
      16A     -1.019442    17A     -0.976681    18A     -0.928271
      19A     -0.861558    20A     -0.799189    21A     -0.790425
      22A     -0.762882    23A     -0.701945    24A     -0.683244
      25A     -0.672091    26A     -0.651175    27A     -0.629474
      28A     -0.604951    29A     -0.595527    30A     -0.580319
      31A     -0.567540    32A     -0.549577    33A     -0.533484
      34A     -0.525855    35A     -0.515251    36A     -0.511605
      37A     -0.496694    38A     -0.477904    39A     -0.470186
      40A     -0.462425    41A     -0.458974    42A     -0.453158
      43A     -0.441615    44A     -0.435627

  @DF-RHF Final Energy:  -501.04156927363965

   => Energetics <=

    Nuclear Repulsion Energy =            610.3009409084227173
    One-Electron Energy =               -1891.7266142558860338
    Two-Electron Energy =                 780.3841040738251422
    DFT Exchange-Correlation Energy =       0.0000000000000000
    Empirical Dispersion Energy =           0.0000000000000000
    PCM Polarization Energy =               0.0000000000000000
    EFP Energy =                            0.0000000000000000
    Total Energy =                       -501.0415692736381743

  Mulliken Charges: (a.u.)
   Center  Symbol    Alpha    Beta     Spin     Total
       1     O     4.28635  4.28635  0.00000 -0.57270
       2     C     2.60452  2.60452  0.00000  0.79096
       3     C     3.21003  3.21003  0.00000 -0.42006
       4     O     4.30792  4.30792  0.00000 -0.61583
       5     C     3.15385  3.15385  0.00000 -0.30769
       6     H     0.39865  0.39865  0.00000  0.20270
       7     H     0.40112  0.40112  0.00000  0.19777
       8     C     3.15663  3.15663  0.00000 -0.31325
       9     H     0.41308  0.41308  0.00000  0.17383
      10     H     0.40869  0.40869  0.00000  0.18262
      11     C     3.15508  3.15508  0.00000 -0.31015
      12     H     0.41821  0.41821  0.00000  0.16358
      13     H     0.42385  0.42385  0.00000  0.15230
      14     C     3.15030  3.15030  0.00000 -0.30059
      15     H     0.42261  0.42261  0.00000  0.15477
      16     H     0.42359  0.42359  0.00000  0.15282
      17     C     3.15146  3.15146  0.00000 -0.30293
      18     H     0.42332  0.42332  0.00000  0.15336
      19     H     0.42396  0.42396  0.00000  0.15208
      20     C     3.23935  3.23935  0.00000 -0.47870
      21     H     0.42280  0.42280  0.00000  0.15439
      22     H     0.42342  0.42342  0.00000  0.15316
      23     H     0.41923  0.41923  0.00000  0.16155
      24     H     0.42155  0.42155  0.00000  0.15691
      25     H     0.42182  0.42182  0.00000  0.15636
      26     C     3.09812  3.09812  0.00000 -0.19624
      27     H     0.40962  0.40962  0.00000  0.18076
      28     H     0.41323  0.41323  0.00000  0.17354
      29     H     0.39765  0.39765  0.00000  0.20469

   Total alpha = 44.00000, Total beta = 44.00000, Total charge =  0.00000
