                              Psi4 1.0.54 Driver

  ==> Input File <==

--------------------------------------------------------------------------
set {
	reference rhf
	basis cc-pvtz
}

set_num_threads( 4 )
memory 2 gb

molecule MOL {
0 1

H	 3.466604	 0.818753	 1.897526
N	 2.645094	 0.252495	 1.907020
C	 1.629546	 0.787688	 1.013884
H	 2.314502	 0.228984	 2.849094
C	 0.411774	 -0.123197	 0.968634
H	 2.063033	 0.854831	 0.021670
H	 1.313700	 1.795683	 1.286173
C	 -0.678115	 0.376691	 0.025731
H	 0.734229	 -1.116155	 0.672893
H	 0.002948	 -0.218857	 1.972723
C	 -1.900706	 -0.535531	 -0.022488
H	 -0.268287	 0.476206	 -0.976812
H	 -0.989620	 1.374377	 0.326496
C	 -3.220513	 0.226854	 0.028039
H	 -1.865036	 -1.134397	 -0.928236
H	 -1.857948	 -1.236381	 0.806820
H	 -3.309098	 0.911849	 -0.808725
H	 -4.066838	 -0.449485	 -0.008086
H	 -3.301685	 0.809374	 0.939860

	symmetry c1
}
set optking {
	frozen_dihedral = ("
		12 8 11 15
	")
}

ee,wfn = optimize('scf', return_wfn=True)
oeprop( wfn, 'DIPOLE', 'QUADRUPOLE', 'MULLIKEN_CHARGES')
f=open( 'psi4out.xyz', 'w' )
f.write( "19  " )
f.write( str(ee) + "\n" )
f.write( MOL.save_string_xyz() )
f.close()
--------------------------------------------------------------------------

    Molecular point group: c1
  Charge       = 0
  Multiplicity = 1
  Basis Set: CC-PVTZ
  Basis Set:
  @DF-RHF Final Energy:  -251.44321994499461
    Total Energy =                       -251.4432199449943255
    Molecular point group: c1
  Basis Set: CC-PVTZ
  Basis Set:
  Basis Set: CC-PVTZ
  Basis Set:
  @DF-RHF Final Energy:  -251.44350304832804
    Total Energy =                       -251.4435030483281253
  Basis Set: CC-PVTZ
  Basis Set:
  Basis Set: CC-PVTZ
  Basis Set:
  @DF-RHF Final Energy:  -251.44357341341254
    Total Energy =                       -251.4435734134124800
  Basis Set: CC-PVTZ
  Basis Set:
  Charge       = 0
  Multiplicity = 1
  Basis Set: CC-PVTZ
  Basis Set:

    Orbital Energies (a.u.)
    -----------------------

    Doubly Occupied:

       1A    -15.526379     2A    -11.237693     3A    -11.211781
       4A    -11.210383     5A    -11.207925     6A    -11.205742
       7A     -1.178073     8A     -1.072145     9A     -0.999329
      10A     -0.900251    11A     -0.814572    12A     -0.789100
      13A     -0.663976    14A     -0.642967    15A     -0.615556
      16A     -0.592927    17A     -0.563681    18A     -0.557361
      19A     -0.522739    20A     -0.499910    21A     -0.485030
      22A     -0.464751    23A     -0.456416    24A     -0.449017
      25A     -0.383722

  @DF-RHF Final Energy:  -251.44357428663480

   => Energetics <=

    Nuclear Repulsion Energy =            246.2092382846890075
    One-Electron Energy =                -826.8027671852780713
    Two-Electron Energy =                 329.1499546139540939
    DFT Exchange-Correlation Energy =       0.0000000000000000
    Empirical Dispersion Energy =           0.0000000000000000
    PCM Polarization Energy =               0.0000000000000000
    EFP Energy =                            0.0000000000000000
    Total Energy =                       -251.4435742866349415
    Molecular point group: c1
  Basis Set: CC-PVTZ
  Basis Set:

  -Total Gradient:
     Atom            X                  Y                   Z
    ------   -----------------  -----------------  -----------------
       1        0.000023386006    -0.000007555426     0.000016833255
       2        0.000043587454     0.000014189599    -0.000018691424
       3       -0.000009754085    -0.000008835770     0.000034471724
       4       -0.000005840292     0.000006750685    -0.000007970626
       5       -0.000061653135     0.000048582255    -0.000044149864
       6        0.000008270924     0.000000259348     0.000008120449
       7        0.000007570099     0.000001030972    -0.000004590891
       8       -0.002960704235     0.004020815504    -0.001053624893
       9       -0.000007387192     0.000000984170     0.000008684080
      10        0.000005814933    -0.000005580718     0.000005862726
      11        0.002680299374    -0.003740351940     0.002222930955
      12        0.002091309751    -0.002813203945     0.000540986277
      13       -0.000004246007    -0.000014411766     0.000009035601
      14        0.000025347166    -0.000048056979     0.000005640399
      15       -0.001825286845     0.002525156764    -0.001725437503
      16        0.000000624136     0.000016910964     0.000001105649
      17        0.000003647233    -0.000002471888     0.000006916377
      18       -0.000017990478     0.000000292797    -0.000001364386
      19        0.000003005187     0.000005495374    -0.000004757905

  **** Optimization is complete! (in 4 steps) ****
    Final optimized geometry and variables:
    Molecular point group: c1

    Geometry (in Angstrom), charge = 0, multiplicity = 1:

    H            3.667694348268     0.585657207305     1.156923393160
    N            2.835984983639     0.035064287162     1.184964404498
    C            1.809421641179     0.591366524192     0.317606662854
    H            2.527815994682     0.015922418952     2.134705499952
    C            0.573556681820    -0.295273848135     0.300212102292
    H            2.219887742268     0.652366546906    -0.684789813970
    H            1.519723598174     1.604936558529     0.598795426301
    C           -0.533401225623     0.230247583195    -0.611765682364
    H            0.867619850704    -1.293194317687    -0.009049909417
    H            0.188555349501    -0.389053249641     1.313954933491
    C           -1.761021371767    -0.696965786998    -0.670032441102
    H           -0.118871718705     0.343762860005    -1.609065474044
    H           -0.831785862141     1.219577673139    -0.278706058547
    C           -3.086989008798     0.060237396528    -0.655745068179
    H           -1.724078564984    -1.289401205273    -1.578097984736
    H           -1.740552895109    -1.392447025834     0.162096960594
    H           -3.148569593786     0.754897656022    -1.487223157904
    H           -3.929386236535    -0.618458242085    -0.729243072491
    H           -3.200389308337     0.632610199053     0.259121422020

  Mulliken Charges: (a.u.)
   Center  Symbol    Alpha    Beta     Spin     Total
       1     H     0.43024  0.43024  0.00000  0.13953
       2     N     3.68912  3.68912  0.00000 -0.37823
       3     C     3.02752  3.02752  0.00000 -0.05503
       4     H     0.43103  0.43103  0.00000  0.13795
       5     C     3.08296  3.08296  0.00000 -0.16592
       6     H     0.45727  0.45727  0.00000  0.08546
       7     H     0.46861  0.46861  0.00000  0.06278
       8     C     3.09632  3.09632  0.00000 -0.19264
       9     H     0.44812  0.44812  0.00000  0.10375
      10     H     0.46029  0.46029  0.00000  0.07943
      11     C     3.08512  3.08512  0.00000 -0.17023
      12     H     0.45280  0.45280  0.00000  0.09440
      13     H     0.45595  0.45595  0.00000  0.08811
      14     C     3.14816  3.14816  0.00000 -0.29631
      15     H     0.45202  0.45202  0.00000  0.09595
      16     H     0.45359  0.45359  0.00000  0.09281
      17     H     0.45464  0.45464  0.00000  0.09072
      18     H     0.44977  0.44977  0.00000  0.10046
      19     H     0.45648  0.45648  0.00000  0.08704

   Total alpha = 25.00000, Total beta = 25.00000, Total charge = -0.00000

*** Psi4 exiting successfully. Buy a developer a beer!
