                              Psi4 1.0.54 Driver

  ==> Input File <==

--------------------------------------------------------------------------
set {
	reference rhf
	basis cc-pvtz
}

set_num_threads( 4 )
memory 2 gb

molecule MOL {
0 1

H	 -4.201279	 -0.160935	 -1.285478
O	 -3.458596	 0.315260	 -0.960865
C	 -3.176635	 -0.080824	 0.355601
C	 -1.763371	 0.265266	 0.799691
H	 -3.321825	 -1.153438	 0.379502
H	 -3.895468	 0.357385	 1.043382
C	 -0.673390	 -0.426948	 -0.013392
H	 -1.631049	 1.344913	 0.747560
H	 -1.664587	 -0.001624	 1.849167
C	 0.737842	 -0.043159	 0.423759
H	 -0.806103	 -0.190518	 -1.063345
H	 -0.797221	 -1.503753	 0.074146
C	 1.824000	 -0.743224	 -0.390623
H	 0.850588	 1.033777	 0.343840
H	 0.868587	 -0.286314	 1.476203
C	 3.255957	 -0.453067	 0.062319
H	 1.718250	 -0.470599	 -1.438164
H	 1.658105	 -1.815850	 -0.339904
C	 3.707029	 0.992337	 -0.133857
H	 3.928201	 -1.104096	 -0.488158
H	 3.362667	 -0.724561	 1.109374
H	 3.605811	 1.294044	 -1.171549
H	 4.748333	 1.111029	 0.143343
H	 3.129882	 1.683078	 0.468956

	symmetry c1
}
set optking {
	frozen_dihedral = ("
		1 2 3 5
	")
}

ee,wfn = optimize('scf', return_wfn=True)
oeprop( wfn, 'DIPOLE', 'QUADRUPOLE', 'MULLIKEN_CHARGES')
f=open( 'psi4out.xyz', 'w' )
f.write( "24  " )
f.write( str(ee) + "\n" )
f.write( MOL.save_string_xyz() )
f.close()
--------------------------------------------------------------------------

    Molecular point group: c1
  Charge       = 0
  Multiplicity = 1
  Basis Set: CC-PVTZ
  Basis Set:
  @DF-RHF Final Energy:  -349.37885681776510
    Total Energy =                       -349.3788568177648131
    Molecular point group: c1
  Basis Set: CC-PVTZ
  Basis Set:
  Basis Set: CC-PVTZ
  Basis Set:
  @DF-RHF Final Energy:  -349.38017778940878
    Total Energy =                       -349.3801777894087763
  Basis Set: CC-PVTZ
  Basis Set:
  Basis Set: CC-PVTZ
  Basis Set:
  @DF-RHF Final Energy:  -349.38048787005988
    Total Energy =                       -349.3804878700598238
  Basis Set: CC-PVTZ
  Basis Set:
  Basis Set: CC-PVTZ
  Basis Set:
  @DF-RHF Final Energy:  -349.38049408548682
    Total Energy =                       -349.3804940854864753
  Basis Set: CC-PVTZ
  Basis Set:
  Basis Set: CC-PVTZ
  Basis Set:
  @DF-RHF Final Energy:  -349.38049563873000
    Total Energy =                       -349.3804956387303946
  Basis Set: CC-PVTZ
  Basis Set:
  Charge       = 0
  Multiplicity = 1
  Basis Set: CC-PVTZ
  Basis Set:

    Orbital Energies (a.u.)
    -----------------------

    Doubly Occupied:

       1A    -20.545881     2A    -11.265824     3A    -11.210205
       4A    -11.209975     5A    -11.207275     6A    -11.206471
       7A    -11.205206     8A    -11.202905     9A     -1.363630
      10A     -1.087009    11A     -1.047534    12A     -0.985512
      13A     -0.913552    14A     -0.844631    15A     -0.789217
      16A     -0.773947    17A     -0.708973    18A     -0.641332
      19A     -0.636518    20A     -0.610084    21A     -0.591318
      22A     -0.578421    23A     -0.557582    24A     -0.535324
      25A     -0.516927    26A     -0.504766    27A     -0.495077
      28A     -0.475234    29A     -0.466813    30A     -0.457490
      31A     -0.449812    32A     -0.447674    33A     -0.423194

  @DF-RHF Final Energy:  -349.38049580617883

   => Energetics <=

    Nuclear Repulsion Energy =            385.0746133266706011
    One-Electron Energy =               -1236.9995928147955055
    Two-Electron Energy =                 502.5444836819458487
    DFT Exchange-Correlation Energy =       0.0000000000000000
    Empirical Dispersion Energy =           0.0000000000000000
    PCM Polarization Energy =               0.0000000000000000
    EFP Energy =                            0.0000000000000000
    Total Energy =                       -349.3804958061790558
    Molecular point group: c1
  Basis Set: CC-PVTZ
  Basis Set:

  -Total Gradient:
     Atom            X                  Y                   Z
    ------   -----------------  -----------------  -----------------
       1        0.000635245877    -0.000768023905    -0.000395812340
       2       -0.001017336599     0.000973270248     0.000550107031
       3        0.001278584603    -0.000345076063    -0.000397718566
       4       -0.000012616508    -0.000013260452     0.000041214991
       5       -0.000889860395     0.000159759298     0.000219958817
       6        0.000011158438    -0.000008336206     0.000009408114
       7       -0.000010882479    -0.000012114232    -0.000008512723
       8       -0.000018744547     0.000001079218    -0.000004597968
       9        0.000007141396     0.000006597752    -0.000005130628
      10       -0.000001529163    -0.000002929901    -0.000000965610
      11        0.000003528512    -0.000000460032    -0.000001989091
      12        0.000002553677     0.000004327321    -0.000002923686
      13        0.000006721354     0.000013282057    -0.000007777927
      14       -0.000010943232    -0.000015980006    -0.000004781149
      15        0.000000347180     0.000004745710     0.000005340906
      16       -0.000006675485     0.000002576858     0.000017133544
      17       -0.000001144392     0.000007180536     0.000000026390
      18        0.000003479588    -0.000001349255    -0.000007119906
      19        0.000009208598     0.000000086960    -0.000004697009
      20        0.000000078695    -0.000004262770     0.000004530158
      21       -0.000002047369     0.000004902723     0.000004389688
      22       -0.000002844448     0.000003925938    -0.000002979336
      23        0.000000352339    -0.000002644522    -0.000005228235
      24        0.000016224360    -0.000007297274    -0.000001875467

  **** Optimization is complete! (in 6 steps) ****
    Final optimized geometry and variables:
    Molecular point group: c1

    Geometry (in Angstrom), charge = 0, multiplicity = 1:

    H           -4.173771677646     0.013119043146    -1.186368767640
    O           -3.419720610637     0.442985391622    -0.828959982043
    C           -3.162190954954    -0.024890769432     0.470553060461
    C           -1.732934054047     0.310223413208     0.850390081637
    H           -3.323639435068    -1.099087369974     0.527636711578
    H           -3.845115182873     0.442895420784     1.175250579061
    C           -0.684243806004    -0.418896133193     0.015590205108
    H           -1.598862867172     1.383612581394     0.754971381159
    H           -1.598455260796     0.069493796515     1.901853353931
    C            0.746594938746    -0.048861576517     0.397370022829
    H           -0.849165833886    -0.197943659142    -1.032734138191
    H           -0.820120541574    -1.492291948896     0.130645127576
    C            1.794340022231    -0.782731334135    -0.437354826033
    H            0.871720810718     1.023996921950     0.289996670480
    H            0.909187674361    -0.271778596521     1.449986286070
    C            3.245016452034    -0.505762378418    -0.038701853878
    H            1.657559304816    -0.530212611902    -1.486345406126
    H            1.614552136077    -1.851569524655    -0.358244329700
    C            3.711359657753     0.927569882197    -0.282190002067
    H            3.888649155369    -1.179450985189    -0.596261014385
    H            3.382492128064    -0.755847899233     1.010148587434
    H            3.578089181075     1.208704187401    -1.322002702569
    H            4.763577374546     1.035155283629    -0.044231699028
    H            3.166483522947     1.640267952683     0.324918798003

  Mulliken Charges: (a.u.)
   Center  Symbol    Alpha    Beta     Spin     Total
       1     H     0.39466  0.39466  0.00000  0.21068
       2     O     4.20086  4.20086  0.00000 -0.40172
       3     C     2.97575  2.97575  0.00000  0.04850
       4     C     3.09053  3.09053  0.00000 -0.18106
       5     H     0.47309  0.47309  0.00000  0.05383
       6     H     0.46380  0.46380  0.00000  0.07240
       7     C     3.08979  3.08979  0.00000 -0.17957
       8     H     0.45140  0.45140  0.00000  0.09719
       9     H     0.45389  0.45389  0.00000  0.09222
      10     C     3.09202  3.09202  0.00000 -0.18403
      11     H     0.44475  0.44475  0.00000  0.11050
      12     H     0.45906  0.45906  0.00000  0.08189
      13     C     3.09423  3.09423  0.00000 -0.18846
      14     H     0.45183  0.45183  0.00000  0.09634
      15     H     0.45691  0.45691  0.00000  0.08617
      16     C     3.09016  3.09016  0.00000 -0.18032
      17     H     0.45376  0.45376  0.00000  0.09249
      18     H     0.45091  0.45091  0.00000  0.09818
      19     C     3.15226  3.15226  0.00000 -0.30453
      20     H     0.44917  0.44917  0.00000  0.10165
      21     H     0.45557  0.45557  0.00000  0.08887
      22     H     0.45476  0.45476  0.00000  0.09049
      23     H     0.44716  0.44716  0.00000  0.10567
      24     H     0.45368  0.45368  0.00000  0.09263

   Total alpha = 33.00000, Total beta = 33.00000, Total charge = -0.00000

*** Psi4 exiting successfully. Buy a developer a beer!
