  ==> Input File <==

--------------------------------------------------------------------------
set {
	reference rhf
	basis 6-31G*
}

set_num_threads( 4 )
memory 2 gb

molecule MOL {
0 1

H	 3.276176	 0.174363	 -0.109463
N	 2.434251	 -0.367735	 -0.081097
C	 1.267428	 0.496480	 0.024474
H	 2.501951	 -0.965776	 0.720575
C	 -0.016086	 -0.325158	 -0.029487
H	 1.288818	 1.183521	 -0.816092
H	 1.267576	 1.109062	 0.929528
C	 -1.282277	 0.529072	 0.046735
H	 -0.012495	 -0.908639	 -0.945788
H	 -0.015903	 -1.041248	 0.791956
C	 -2.539622	 -0.295015	 0.321806
H	 -1.406653	 1.073145	 -0.887343
H	 -1.167933	 1.281098	 0.824770
H	 -2.701610	 -1.033678	 -0.457846
H	 -3.421631	 0.336172	 0.368536
H	 -2.461623	 -0.825103	 1.266869

	symmetry c1
}
set optking {
	frozen_dihedral = ("
		12 8 5 9
	")
}

ee = optimize('scf')
oeprop('DIPOLE', 'QUADRUPOLE', 'MULLIKEN_CHARGES')
f=open( 'psi4out.xyz', 'w' )
f.write( "16  " )
f.write( str(ee) + "\n" )
f.write( MOL.save_string_xyz() )
f.close()
--------------------------------------------------------------------------

    Molecular point group: c1
  Charge       = 0
  Multiplicity = 1
  Basis Set: 6-31G*
  Basis Set:
  @DF-RHF Final Energy:  -212.31636799075602
    Total Energy =                       -212.3163679907562482
    Molecular point group: c1
  Basis Set: 6-31G*
  Basis Set:
  Basis Set: 6-31G*
  Basis Set:
  @DF-RHF Final Energy:  -212.31644015457610
    Total Energy =                       -212.3164401545762416
  Basis Set: 6-31G*
  Basis Set:
  Basis Set: 6-31G*
  Basis Set:
  @DF-RHF Final Energy:  -212.31647193892343
    Total Energy =                       -212.3164719389230868
  Basis Set: 6-31G*
  Basis Set:
  Charge       = 0
  Multiplicity = 1
  Basis Set: 6-31G*
  Basis Set:

    Orbital Energies (a.u.)
    -----------------------

    Doubly Occupied:

       1A    -15.532552     2A    -11.239761     3A    -11.215069
       4A    -11.209641     5A    -11.207886     6A     -1.176663
       7A     -1.059249     8A     -0.958553     9A     -0.843292
      10A     -0.791879    11A     -0.663767    12A     -0.638845
      13A     -0.602280    14A     -0.578550    15A     -0.564806
      16A     -0.522042    17A     -0.502912    18A     -0.469405
      19A     -0.465196    20A     -0.460645    21A     -0.381186

  @DF-RHF Final Energy:  -212.31647242730301

   => Energetics <=

    Nuclear Repulsion Energy =            186.2671489596372965
    One-Electron Energy =                -654.9988906990176929
    Two-Electron Energy =                 256.4152693120772710
    DFT Exchange-Correlation Energy =       0.0000000000000000
    Empirical Dispersion Energy =           0.0000000000000000
    PCM Polarization Energy =               0.0000000000000000
    EFP Energy =                            0.0000000000000000
    Total Energy =                       -212.3164724273030970
    Molecular point group: c1
  Basis Set: 6-31G*
  Basis Set:

  -Total Gradient:
     Atom            X                  Y                   Z
    ------   -----------------  -----------------  -----------------
       1       -0.000006049169     0.000000670331     0.000003428282
       2        0.000009198015    -0.000003567366    -0.000001752422
       3       -0.000002322797     0.000005362166     0.000040589687
       4        0.000001585737     0.000003344659    -0.000002087663
       5       -0.001735472511    -0.002603165591     0.001102282290
       6        0.000001518842    -0.000014453575     0.000001269639
       7        0.000017948900     0.000034764594     0.000005828525
       8        0.001843516284     0.002622136266     0.000830951329
       9        0.001113745301     0.001732575050    -0.001127181119
      10        0.000000831487     0.000041355195    -0.000012297442
      11        0.000000627571    -0.000007035866     0.000011177134
      12       -0.001229170204    -0.001781910483    -0.000863295661
      13        0.000008712532    -0.000019412767     0.000008148610
      14        0.000007887609    -0.000013576484     0.000009340713
      15       -0.000006489977    -0.000001521134    -0.000016956959
      16       -0.000026067622     0.000004435003     0.000010555058

  **** Optimization is complete! (in 4 steps) ****
    Final optimized geometry and variables:
    Molecular point group: c1

    Geometry (in Angstrom), charge = 0, multiplicity = 1:

    H            3.269372513830     0.177483242899    -0.218469125503
    N            2.429316808848    -0.366801718757    -0.178600155856
    C            1.263418744523     0.493141667352    -0.035583439299
    H            2.516041111051    -0.975187654073     0.613412525616
    C           -0.020309376279    -0.331332306012    -0.066012512222
    H            1.262368208072     1.188819449070    -0.869483949962
    H            1.284472625363     1.096622442524     0.875253437074
    C           -1.284467080607     0.529573094187    -0.005553633397
    H           -0.014255308072    -0.919316074958    -0.978957969014
    H           -0.012950505615    -1.033296503365     0.766791450455
    C           -2.549976890109    -0.293743081945     0.238194469606
    H           -1.395055955114     1.066069912096    -0.945129753806
    H           -1.187238682098     1.279070573738     0.776723097436
    H           -2.680504704543    -1.047308538873    -0.533333527351
    H           -3.434999629322     0.335110758898     0.239339639271
    H           -2.506451154678    -0.806219947659     1.195058307361

  Mulliken Charges: (a.u.)
   Center  Symbol    Alpha    Beta     Spin     Total
       1     H     0.33249  0.33249  0.00000  0.33502
       2     N     3.92178  3.92178  0.00000 -0.84357
       3     C     3.06075  3.06075  0.00000 -0.12151
       4     H     0.33538  0.33538  0.00000  0.32925
       5     C     3.15106  3.15106  0.00000 -0.30212
       6     H     0.42101  0.42101  0.00000  0.15799
       7     H     0.43480  0.43480  0.00000  0.13039
       8     C     3.15578  3.15578  0.00000 -0.31155
       9     H     0.41248  0.41248  0.00000  0.17505
      10     H     0.42770  0.42770  0.00000  0.14461
      11     C     3.23891  3.23891  0.00000 -0.47783
      12     H     0.42143  0.42143  0.00000  0.15715
      13     H     0.42367  0.42367  0.00000  0.15265
      14     H     0.42070  0.42070  0.00000  0.15860
      15     H     0.41985  0.41985  0.00000  0.16031
      16     H     0.42222  0.42222  0.00000  0.15557

   Total alpha = 21.00000, Total beta = 21.00000, Total charge =  0.00000
