                              Psi4 1.0.54 Driver

  ==> Input File <==

--------------------------------------------------------------------------
set {
	reference rhf
	basis cc-pvtz
}

set_num_threads( 4 )
memory 2 gb

molecule MOL {
0 1

H	 3.110685	 -2.111807	 2.705367
O	 3.828184	 -2.120771	 2.099607
C	 3.506687	 -2.899749	 0.977508
C	 2.495189	 -2.240927	 0.051489
H	 4.437088	 -3.052091	 0.447295
H	 3.147646	 -3.879698	 1.286115
C	 1.110154	 -2.054090	 0.666810
H	 2.889146	 -1.278714	 -0.261724
H	 2.411792	 -2.854169	 -0.842590
C	 0.113298	 -1.420414	 -0.302504
H	 1.192700	 -1.436709	 1.555084
H	 0.727018	 -3.020051	 0.991482
C	 -1.311023	 -1.277304	 0.237018
H	 0.481990	 -0.443477	 -0.605631
H	 0.079203	 -2.023564	 -1.205563
C	 -2.041121	 -0.006551	 -0.194127
H	 -1.888548	 -2.136293	 -0.093331
H	 -1.289731	 -1.328757	 1.323321
C	 -3.489218	 0.042606	 0.286507
H	 -2.022185	 0.066287	 -1.279394
H	 -1.518764	 0.869305	 0.178730
C	 -4.219984	 1.311773	 -0.139038
H	 -4.022855	 -0.824300	 -0.093339
H	 -3.510372	 -0.038577	 1.370031
H	 -4.244251	 1.405725	 -1.219696
H	 -5.244345	 1.313233	 0.215630
H	 -3.732090	 2.196311	 0.257073

	symmetry c1
}
set optking {
	frozen_dihedral = ("
		14 10 13 16
	")
}

ee,wfn = optimize('scf', return_wfn=True)
oeprop( wfn, 'DIPOLE', 'QUADRUPOLE', 'MULLIKEN_CHARGES')
f=open( 'psi4out.xyz', 'w' )
f.write( "27  " )
f.write( str(ee) + "\n" )
f.write( MOL.save_string_xyz() )
f.close()
--------------------------------------------------------------------------

    Molecular point group: c1
  Charge       = 0
  Multiplicity = 1
  Basis Set: CC-PVTZ
  Basis Set:
  @DF-RHF Final Energy:  -388.42547142267330
    Total Energy =                       -388.4254714226728993
    Molecular point group: c1
  Basis Set: CC-PVTZ
  Basis Set:
  Basis Set: CC-PVTZ
  Basis Set:
  @DF-RHF Final Energy:  -388.42594306174283
    Total Energy =                       -388.4259430617426005
  Basis Set: CC-PVTZ
  Basis Set:
  Basis Set: CC-PVTZ
  Basis Set:
  @DF-RHF Final Energy:  -388.42598347822354
    Total Energy =                       -388.4259834782233156
  Basis Set: CC-PVTZ
  Basis Set:
  Basis Set: CC-PVTZ
  Basis Set:
  @DF-RHF Final Energy:  -388.42598753749178
    Total Energy =                       -388.4259875374918920
  Basis Set: CC-PVTZ
  Basis Set:
  Charge       = 0
  Multiplicity = 1
  Basis Set: CC-PVTZ
  Basis Set:

    Orbital Energies (a.u.)
    -----------------------

    Doubly Occupied:

       1A    -20.545301     2A    -11.265078     3A    -11.217884
       4A    -11.214040     5A    -11.213364     6A    -11.213291
       7A    -11.212750     8A    -11.211879     9A    -11.206828
      10A     -1.363259    11A     -1.095097    12A     -1.063650
      13A     -1.012173    14A     -0.951423    15A     -0.883295
      16A     -0.821067    17A     -0.792775    18A     -0.790453
      19A     -0.696724    20A     -0.655146    21A     -0.638570
      22A     -0.614216    23A     -0.600604    24A     -0.588585
      25A     -0.575426    26A     -0.553995    27A     -0.542707
      28A     -0.521400    29A     -0.512148    30A     -0.487542
      31A     -0.486537    32A     -0.476507    33A     -0.468688
      34A     -0.461960    35A     -0.456957    36A     -0.444305
      37A     -0.422755

  @DF-RHF Final Energy:  -388.42599100548773

   => Energetics <=

    Nuclear Repulsion Energy =            452.5623148125109765
    One-Electron Energy =               -1423.4198487171456691
    Two-Electron Energy =                 582.4315428991468480
    DFT Exchange-Correlation Energy =       0.0000000000000000
    Empirical Dispersion Energy =           0.0000000000000000
    PCM Polarization Energy =               0.0000000000000000
    EFP Energy =                            0.0000000000000000
    Total Energy =                       -388.4259910054878446
    Molecular point group: c1
  Basis Set: CC-PVTZ
  Basis Set:

  -Total Gradient:
     Atom            X                  Y                   Z
    ------   -----------------  -----------------  -----------------
       1        0.000021522892    -0.000009774137    -0.000022587973
       2       -0.000003939368     0.000013596148     0.000023878911
       3       -0.000028043417    -0.000015082282    -0.000013654246
       4        0.000031134496     0.000010173462     0.000003487754
       5       -0.000016628382     0.000003474409     0.000013048024
       6        0.000009871685     0.000013664752    -0.000000822089
       7        0.000019433504    -0.000010913304    -0.000002572968
       8       -0.000008759528    -0.000012080651     0.000005543365
       9       -0.000013225137     0.000008704718     0.000008982926
      10        0.002157338208     0.001377340409     0.005510077930
      11        0.000004998137    -0.000010302047    -0.000032784918
      12       -0.000009013032     0.000014043787    -0.000014520438
      13       -0.001731536919    -0.002154866957    -0.004185769823
      14       -0.001423733907    -0.000642540061    -0.003653531628
      15       -0.000019546093    -0.000023378813     0.000020339047
      16        0.000975519473     0.001452298109     0.002354612520
      17        0.000008140338    -0.000008486208    -0.000009361777
      18        0.000001976585     0.000013866046    -0.000021598456
      19       -0.000023631309     0.000006875549     0.000014897503
      20       -0.000002854537    -0.000009569978     0.000047324247
      21       -0.000035688953    -0.000012715746    -0.000011367042
      22        0.000022366374     0.000005968561    -0.000012394165
      23        0.000036160864     0.000014700283     0.000005598633
      24        0.000013877437    -0.000000737970    -0.000034067339
      25       -0.000004503575     0.000002564581     0.000031262618
      26        0.000039854735    -0.000010410877    -0.000014580763
      27       -0.000021090568    -0.000016411782    -0.000009439850

  **** Optimization is complete! (in 5 steps) ****
    Final optimized geometry and variables:
    Molecular point group: c1

    Geometry (in Angstrom), charge = 0, multiplicity = 1:

    H            2.987301406585    -0.905549627793     2.318574823406
    O            3.725936678026    -0.899758532686     1.738937411967
    C            3.455419248808    -1.673080325581     0.599739186097
    C            2.463540706579    -1.022835990100    -0.353098778895
    H            4.405344938485    -1.804176463884     0.099447093698
    H            3.103597234917    -2.661952014161     0.887282868451
    C            1.057422926930    -0.863244830926     0.218468871663
    H            2.851419667296    -0.051981144463    -0.646345352543
    H            2.418143667217    -1.630043166624    -1.253943514094
    C            0.074187996677    -0.238807223204    -0.766348765228
    H            1.092182037251    -0.244948223100     1.111576388667
    H            0.681260255890    -1.836170092615     0.529593399726
    C           -1.359875943590    -0.122287899472    -0.227464436124
    H            0.429964502564     0.739033753833    -1.078152836489
    H            0.063782463493    -0.833616444105    -1.676197425574
    C           -2.085508881806     1.139289375008    -0.687981546874
    H           -1.931880674041    -1.000812016830    -0.510044429808
    H           -1.335498312409    -0.119604794310     0.859550279310
    C           -3.522504396484     1.233060100944    -0.184387293443
    H           -2.084281779653     1.182975561580    -1.775123610481
    H           -1.528337914574     2.009368318826    -0.349718828379
    C           -4.234205040645     2.504608944798    -0.634300708719
    H           -4.080626891013     0.366985749978    -0.529398490475
    H           -3.525840582674     1.183704791681     0.901214334481
    H           -4.277617331639     2.566694329308    -1.716583007675
    H           -5.251078828294     2.539193964040    -0.260571236477
    H           -3.719675081227     3.389429752195    -0.274515866704

  Mulliken Charges: (a.u.)
   Center  Symbol    Alpha    Beta     Spin     Total
       1     H     0.39231  0.39231  0.00000  0.21539
       2     O     4.20575  4.20575  0.00000 -0.41151
       3     C     2.98014  2.98014  0.00000  0.03972
       4     C     3.08953  3.08953  0.00000 -0.17905
       5     H     0.44845  0.44845  0.00000  0.10309
       6     H     0.46994  0.46994  0.00000  0.06012
       7     C     3.10161  3.10161  0.00000 -0.20323
       8     H     0.45057  0.45057  0.00000  0.09886
       9     H     0.45574  0.45574  0.00000  0.08851
      10     C     3.09370  3.09370  0.00000 -0.18740
      11     H     0.45716  0.45716  0.00000  0.08567
      12     H     0.45248  0.45248  0.00000  0.09505
      13     C     3.09172  3.09172  0.00000 -0.18343
      14     H     0.45156  0.45156  0.00000  0.09688
      15     H     0.45272  0.45272  0.00000  0.09455
      16     C     3.08686  3.08686  0.00000 -0.17372
      17     H     0.45157  0.45157  0.00000  0.09687
      18     H     0.45654  0.45654  0.00000  0.08692
      19     C     3.08483  3.08483  0.00000 -0.16966
      20     H     0.45415  0.45415  0.00000  0.09169
      21     H     0.45436  0.45436  0.00000  0.09128
      22     C     3.15008  3.15008  0.00000 -0.30017
      23     H     0.45474  0.45474  0.00000  0.09051
      24     H     0.45465  0.45465  0.00000  0.09071
      25     H     0.45514  0.45514  0.00000  0.08972
      26     H     0.44852  0.44852  0.00000  0.10295
      27     H     0.45516  0.45516  0.00000  0.08968

   Total alpha = 37.00000, Total beta = 37.00000, Total charge = -0.00000

*** Psi4 exiting successfully. Buy a developer a beer!
