  ==> Input File <==

--------------------------------------------------------------------------
set {
	reference rhf
	basis cc-pvtz
}

set_num_threads( 4 )
memory 2 gb

molecule MOL {
0 1

H	 1.255098	 -1.093508	 0.261093
O	 1.283177	 -0.557228	 -0.510961
C	 0.675911	 0.671012	 -0.253512
C	 -0.793473	 0.591216	 0.050087
H	 0.824690	 1.278221	 -1.138648
H	 1.176103	 1.187185	 0.563846
C	 -1.534243	 -0.493009	 -0.013340
H	 -1.243428	 1.526524	 0.339892
H	 -1.101195	 -1.466332	 -0.144046
H	 -2.604242	 -0.437780	 0.050785

	symmetry c1
}
set optking {
	frozen_dihedral = ("
		3 4 7 9
	")
}

ee = optimize('scf')
oeprop('DIPOLE', 'QUADRUPOLE', 'MULLIKEN_CHARGES')
f=open( 'psi4out.xyz', 'w' )
f.write( "10  " )
f.write( str(ee) + "\n" )
f.write( MOL.save_string_xyz() )
f.close()
--------------------------------------------------------------------------

    Molecular point group: c1
  Charge       = 0
  Multiplicity = 1
  Basis Set: CC-PVTZ
  Basis Set:
  @DF-RHF Final Energy:  -191.99605506275367
    Total Energy =                       -191.9960550627536406
    Molecular point group: c1
  Basis Set: CC-PVTZ
  Basis Set:
  Basis Set: CC-PVTZ
  Basis Set:
  @DF-RHF Final Energy:  -191.99777150825693
    Total Energy =                       -191.9977715082569034
  Basis Set: CC-PVTZ
  Basis Set:
  Basis Set: CC-PVTZ
  Basis Set:
  @DF-RHF Final Energy:  -191.99784493559704
    Total Energy =                       -191.9978449355970156
  Basis Set: CC-PVTZ
  Basis Set:
  Basis Set: CC-PVTZ
  Basis Set:
  @DF-RHF Final Energy:  -191.99785296905003
    Total Energy =                       -191.9978529690500864
  Basis Set: CC-PVTZ
  Basis Set:
  Charge       = 0
  Multiplicity = 1
  Basis Set: CC-PVTZ
  Basis Set:

    Orbital Energies (a.u.)
    -----------------------

    Doubly Occupied:

       1A    -20.554479     2A    -11.278224     3A    -11.229961
       4A    -11.216633     5A     -1.374670     6A     -1.062047
       7A     -0.932006     8A     -0.771563     9A     -0.692542
      10A     -0.664682    11A     -0.619931    12A     -0.574632
      13A     -0.541543    14A     -0.495486    15A     -0.452345
      16A     -0.368520

  @DF-RHF Final Energy:  -191.99785375055623

   => Energetics <=

    Nuclear Repulsion Energy =            119.4549703897902475
    One-Electron Energy =                -497.2471226241011664
    Two-Electron Energy =                 185.7942984837546589
    DFT Exchange-Correlation Energy =       0.0000000000000000
    Empirical Dispersion Energy =           0.0000000000000000
    PCM Polarization Energy =               0.0000000000000000
    EFP Energy =                            0.0000000000000000
    Total Energy =                       -191.9978537505562883
    Molecular point group: c1
  Basis Set: CC-PVTZ
  Basis Set:

  -Total Gradient:
     Atom            X                  Y                   Z
    ------   -----------------  -----------------  -----------------
       1        0.000009813896     0.000000416410    -0.000001920585
       2        0.000026685379     0.000009178582    -0.000005537557
       3       -0.000984848126     0.001156847989    -0.004282874621
       4        0.001806321227    -0.002444544041     0.009690306689
       5        0.000008469018    -0.000000633109     0.000008196775
       6        0.000003485330     0.000008245043     0.000001293235
       7       -0.001324392346     0.002305574330    -0.011363895096
       8       -0.000008552292     0.000004603917     0.000007591576
       9        0.000460910660    -0.001035999904     0.005960930594
      10        0.000002107258    -0.000003689217    -0.000014091011

  **** Optimization is complete! (in 5 steps) ****
    Final optimized geometry and variables:
    Molecular point group: c1

    Geometry (in Angstrom), charge = 0, multiplicity = 1:

    H            1.308827448246    -1.096066449671     0.489379714099
    O            1.307519665257    -0.584636118752    -0.299716241148
    C            0.693733503994     0.645273061675    -0.063752439028
    C           -0.773188498484     0.563465412259     0.252578751446
    H            0.819742413201     1.229964885627    -0.967100366372
    H            1.205075930723     1.186710659041     0.730030611442
    C           -1.529591275135    -0.504619506064     0.126313120378
    H           -1.227458372168     1.506448162379     0.509551446079
    H           -1.113811095011    -1.473439725321    -0.074734548909
    H           -2.585023979687    -0.458841990841     0.317276151620

  Mulliken Charges: (a.u.)
   Center  Symbol    Alpha    Beta     Spin     Total
       1     H     0.39151  0.39151  0.00000  0.21697
       2     O     4.19876  4.19876  0.00000 -0.39752
       3     C     2.95121  2.95121  0.00000  0.09757
       4     C     3.08810  3.08810  0.00000 -0.17620
       5     H     0.45291  0.45291  0.00000  0.09418
       6     H     0.46775  0.46775  0.00000  0.06451
       7     C     3.17162  3.17162  0.00000 -0.34324
       8     H     0.42383  0.42383  0.00000  0.15234
       9     H     0.42608  0.42608  0.00000  0.14784
      10     H     0.42822  0.42822  0.00000  0.14355

   Total alpha = 16.00000, Total beta = 16.00000, Total charge = -0.00000
