                              Psi4 1.0.54 Driver

  ==> Input File <==

--------------------------------------------------------------------------
set {
	reference rhf
	basis cc-pvtz
}

set_num_threads( 4 )
memory 2 gb

molecule MOL {
0 1

H	 3.083659	 -1.378387	 0.000000
O	 2.179005	 -1.633391	 0.000000
C	 1.366950	 -0.558201	 0.000000
C	 -0.000622	 -0.663033	 -0.203565
C	 1.939309	 0.679321	 0.212045
H	 -0.444830	 -1.627850	 -0.368598
C	 -0.791615	 0.467987	 -0.194668
H	 2.995211	 0.763589	 0.369571
C	 1.139212	 1.807664	 0.219376
H	 -1.848478	 0.374697	 -0.353288
C	 -0.226863	 1.709670	 0.016749
C	 1.743368	 3.146586	 0.446671
H	 -0.839400	 2.590937	 0.024214
O	 2.895261	 3.344186	 0.629747
H	 1.031302	 3.977501	 0.434781

	symmetry c1
}
set optking {
	frozen_dihedral = ("
		4 3 2 1
	")
}

ee,wfn = optimize('scf', return_wfn=True)
oeprop( wfn, 'DIPOLE', 'QUADRUPOLE', 'MULLIKEN_CHARGES')
f=open( 'psi4out.xyz', 'w' )
f.write( "15  " )
f.write( str(ee) + "\n" )
f.write( MOL.save_string_xyz() )
f.close()
--------------------------------------------------------------------------

    Molecular point group: c1
  Charge       = 0
  Multiplicity = 1
  Basis Set: CC-PVTZ
  Basis Set:
  @DF-RHF Final Energy:  -418.43804065598289
    Total Energy =                       -418.4380406559826042
    Molecular point group: c1
  Basis Set: CC-PVTZ
  Basis Set:
  Basis Set: CC-PVTZ
  Basis Set:
  @DF-RHF Final Energy:  -418.43996520669282
    Total Energy =                       -418.4399652066930457
  Basis Set: CC-PVTZ
  Basis Set:
  Basis Set: CC-PVTZ
  Basis Set:
  @DF-RHF Final Energy:  -418.44010455006168
    Total Energy =                       -418.4401045500619603
  Basis Set: CC-PVTZ
  Basis Set:
  Basis Set: CC-PVTZ
  Basis Set:
  @DF-RHF Final Energy:  -418.43781208445711
    Total Energy =                       -418.4378120844571640
  Basis Set: CC-PVTZ
  Basis Set:
  Basis Set: CC-PVTZ
  Basis Set:
  @DF-RHF Final Energy:  -418.44011653433608
    Total Energy =                       -418.4401165343366529
  Basis Set: CC-PVTZ
  Basis Set:
  Basis Set: CC-PVTZ
  Basis Set:
  @DF-RHF Final Energy:  -418.44016138729683
    Total Energy =                       -418.4401613872965981
  Basis Set: CC-PVTZ
  Basis Set:
  Charge       = 0
  Multiplicity = 1
  Basis Set: CC-PVTZ
  Basis Set:

    Orbital Energies (a.u.)
    -----------------------

    Doubly Occupied:

       1A    -20.595197     2A    -20.556678     3A    -11.329987
       4A    -11.311497     5A    -11.252124     6A    -11.249264
       7A    -11.244555     8A    -11.242957     9A    -11.241519
      10A     -1.426869    11A     -1.412367    12A     -1.174549
      13A     -1.053293    14A     -1.029598    15A     -0.904174
      16A     -0.857644    17A     -0.799787    18A     -0.759162
      19A     -0.704236    20A     -0.672031    21A     -0.665901
      22A     -0.633820    23A     -0.616698    24A     -0.609856
      25A     -0.578424    26A     -0.559358    27A     -0.539571
      28A     -0.521077    29A     -0.492566    30A     -0.429249
      31A     -0.358214    32A     -0.331971

  @DF-RHF Final Energy:  -418.44016356369912

   => Energetics <=

    Nuclear Repulsion Energy =            404.2510899382493790
    One-Electron Energy =               -1371.0741255611569613
    Two-Electron Energy =                 548.3828720592084665
    DFT Exchange-Correlation Energy =       0.0000000000000000
    Empirical Dispersion Energy =           0.0000000000000000
    PCM Polarization Energy =               0.0000000000000000
    EFP Energy =                            0.0000000000000000
    Total Energy =                       -418.4401635636991159
    Molecular point group: c1
  Basis Set: CC-PVTZ
  Basis Set:

  -Total Gradient:
     Atom            X                  Y                   Z
    ------   -----------------  -----------------  -----------------
       1        0.000007437019    -0.000021637687    -0.001122174236
       2        0.000067623719     0.000060100165     0.001016862077
       3       -0.000317177144    -0.000164583852     0.000893689981
       4        0.000251225945    -0.000008184074    -0.000781154093
       5       -0.000027993184     0.000126808146     0.000000860783
       6        0.000018300816     0.000013203219     0.000002060342
       7       -0.000021151351     0.000259404950     0.000017628704
       8       -0.000001614183     0.000014985226    -0.000000866920
       9        0.000259653615    -0.000034839101     0.000024559438
      10       -0.000005243405    -0.000025221853    -0.000003653274
      11       -0.000244057441    -0.000197222251    -0.000049345158
      12       -0.000090186163     0.000032607746    -0.000003034322
      13        0.000029209302     0.000009454540     0.000005059237
      14        0.000003886579     0.000003846751    -0.000002022178
      15        0.000070085875    -0.000068721921     0.000001529620

  **** Optimization is complete! (in 7 steps) ****
    Final optimized geometry and variables:
    Molecular point group: c1

    Geometry (in Angstrom), charge = 0, multiplicity = 1:

    H            1.832900138741    -2.405260851776    -0.124371908826
    O            0.911220139136    -2.592248647073    -0.128335234601
    C            0.185900125362    -1.456606275623    -0.120852574993
    C           -1.182361983433    -1.574010686638    -0.340149366256
    C            0.744784519770    -0.217785352018     0.091156836448
    H           -1.596620079704    -2.548767700570    -0.507252615206
    C           -1.977945579019    -0.452976307674    -0.338520917020
    H            1.798272651644    -0.104756963541     0.262916258175
    C           -0.065371647878     0.910381993180     0.086219489670
    H           -3.032707327256    -0.552567412957    -0.507142750505
    C           -1.423313458909     0.799883338832    -0.125615199881
    C            0.531401292550     2.250777235155     0.312500783660
    H           -2.043747409951     1.675746620792    -0.126618045711
    O            1.682925109314     2.451408201027     0.499408552466
    H           -0.183113107636     3.079072281188     0.295843771257

  Mulliken Charges: (a.u.)
   Center  Symbol    Alpha    Beta     Spin     Total
       1     H     0.38451  0.38451  0.00000  0.23099
       2     O     4.17318  4.17318  0.00000 -0.34635
       3     C     2.84123  2.84123  0.00000  0.31755
       4     C     3.10187  3.10187  0.00000 -0.20375
       5     C     3.14290  3.14290  0.00000 -0.28579
       6     H     0.41535  0.41535  0.00000  0.16930
       7     C     3.05634  3.05634  0.00000 -0.11269
       8     H     0.41729  0.41729  0.00000  0.16541
       9     C     2.98006  2.98006  0.00000  0.03989
      10     H     0.41936  0.41936  0.00000  0.16128
      11     C     3.10825  3.10825  0.00000 -0.21651
      12     C     2.90933  2.90933  0.00000  0.18134
      13     H     0.42311  0.42311  0.00000  0.15378
      14     O     4.17228  4.17228  0.00000 -0.34456
      15     H     0.45494  0.45494  0.00000  0.09011

   Total alpha = 32.00000, Total beta = 32.00000, Total charge = -0.00000

*** Psi4 exiting successfully. Buy a developer a beer!
