  ==> Input File <==

--------------------------------------------------------------------------
set {
	reference rhf
	basis cc-pvtz
}

set_num_threads( 4 )
memory 2 gb

molecule MOL {
0 1

O	 0.074770	 1.259872	 0.000487
C	 0.029490	 0.077183	 0.000078
C	 -1.232113	 -0.748027	 0.000015
O	 1.106773	 -0.690081	 -0.000204
C	 -2.501422	 0.088592	 -0.000052
H	 -1.188777	 -1.400384	 -0.865133
H	 -1.188857	 -1.400312	 0.865225
H	 -2.548170	 0.725504	 -0.873205
H	 -3.371613	 -0.556398	 -0.000040
H	 -2.548215	 0.725571	 0.873047
C	 2.103626	 -0.409337	 0.961621
H	 2.488705	 0.591065	 0.830683
H	 2.885672	 -1.133300	 0.800042
H	 1.706677	 -0.506093	 1.961278

	symmetry c1
}
set optking {
	frozen_dihedral = ("
		11 4 2 3
	")
}

ee = optimize('scf')
oeprop('DIPOLE', 'QUADRUPOLE', 'MULLIKEN_CHARGES')
f=open( 'psi4out.xyz', 'w' )
f.write( "14  " )
f.write( str(ee) + "\n" )
f.write( MOL.save_string_xyz() )
f.close()
--------------------------------------------------------------------------

    Molecular point group: c1
  Charge       = 0
  Multiplicity = 1
  Basis Set: CC-PVTZ
  Basis Set:
  @DF-RHF Final Energy:  -305.97625676028031
    Total Energy =                       -305.9762567602804211
    Molecular point group: c1
  Basis Set: CC-PVTZ
  Basis Set:
  Basis Set: CC-PVTZ
  Basis Set:
  @DF-RHF Final Energy:  -305.97453494698732
    Total Energy =                       -305.9745349469875464
  Basis Set: CC-PVTZ
  Basis Set:
  Basis Set: CC-PVTZ
  Basis Set:
  @DF-RHF Final Energy:  -305.97691061132332
    Total Energy =                       -305.9769106113235466
  Basis Set: CC-PVTZ
  Basis Set:
  Basis Set: CC-PVTZ
  Basis Set:
  @DF-RHF Final Energy:  -305.97705062086737
    Total Energy =                       -305.9770506208669758
  Basis Set: CC-PVTZ
  Basis Set:
  Basis Set: CC-PVTZ
  Basis Set:
  @DF-RHF Final Energy:  -305.97707019323451
    Total Energy =                       -305.9770701932342831
  Basis Set: CC-PVTZ
  Basis Set:
  Basis Set: CC-PVTZ
  Basis Set:
  @DF-RHF Final Energy:  -305.97707170024972
    Total Energy =                       -305.9770717002497236
  Basis Set: CC-PVTZ
  Basis Set:
  Charge       = 0
  Multiplicity = 1
  Basis Set: CC-PVTZ
  Basis Set:

    Orbital Energies (a.u.)
    -----------------------

    Doubly Occupied:

       1A    -20.586017     2A    -20.540861     3A    -11.367414
       4A    -11.283361     5A    -11.239445     6A    -11.216225
       7A     -1.466583     8A     -1.368205     9A     -1.064844
      10A     -0.978329    11A     -0.885222    12A     -0.768284
      13A     -0.702597    14A     -0.680198    15A     -0.675806
      16A     -0.621616    17A     -0.609823    18A     -0.555502
      19A     -0.541327    20A     -0.522706    21A     -0.511479
      22A     -0.498310    23A     -0.459288    24A     -0.440203

  @DF-RHF Final Energy:  -305.97707186649336

   => Energetics <=

    Nuclear Repulsion Energy =            247.1329346352133598
    One-Electron Energy =                -907.0527314285493503
    Two-Electron Energy =                 353.9427249268425157
    DFT Exchange-Correlation Energy =       0.0000000000000000
    Empirical Dispersion Energy =           0.0000000000000000
    PCM Polarization Energy =               0.0000000000000000
    EFP Energy =                            0.0000000000000000
    Total Energy =                       -305.9770718664934748
    Molecular point group: c1
  Basis Set: CC-PVTZ
  Basis Set:

  -Total Gradient:
     Atom            X                  Y                   Z
    ------   -----------------  -----------------  -----------------
       1        0.000030889996    -0.000011457839    -0.000167174063
       2       -0.001933171464    -0.001762723982    -0.007160135627
       3        0.000201885083    -0.000513642812     0.006804629622
       4        0.004871454856     0.007500527406    -0.004141500978
       5        0.000010033937    -0.000009799514    -0.000010248495
       6       -0.000002035652     0.000006157238    -0.000003723429
       7       -0.000002543950     0.000000005610    -0.000001261272
       8       -0.000005086755     0.000002606650    -0.000004087050
       9        0.000008997844    -0.000001145736     0.000000263127
      10        0.000004360252     0.000002949567     0.000008880959
      11       -0.003178047815    -0.005222438315     0.004673441386
      12       -0.000000553971     0.000005619718    -0.000005605342
      13        0.000002967780     0.000005086111     0.000002676388
      14       -0.000009150139    -0.000001744102     0.000003844772

  **** Optimization is complete! (in 7 steps) ****
    Final optimized geometry and variables:
    Molecular point group: c1

    Geometry (in Angstrom), charge = 0, multiplicity = 1:

    O            0.102229339122     1.323687723174     0.012179848901
    C            0.064616159962     0.154772807127    -0.144132770869
    C           -1.191432599633    -0.675572066728    -0.162151958907
    O            1.164731395835    -0.600285455088    -0.235131380768
    C           -2.469103117621     0.141725267994    -0.260368829137
    H           -1.111606868602    -1.395074921781    -0.968619975438
    H           -1.165800071102    -1.257304084006     0.754938104585
    H           -2.495622843699     0.711824186452    -1.180140007847
    H           -3.332748724182    -0.511642472465    -0.240900017758
    H           -2.548090527255     0.840245956126     0.561205755438
    C            2.185122809941    -0.367901191307     0.714393989330
    H            2.553754527497     0.644701703904     0.650914241427
    H            2.976698105692    -1.063330358378     0.487553071910
    H            1.813945305354    -0.556233430545     1.714331435716

  Mulliken Charges: (a.u.)
   Center  Symbol    Alpha    Beta     Spin     Total
       1     O     4.18324  4.18324  0.00000 -0.36648
       2     C     2.79822  2.79822  0.00000  0.40357
       3     C     3.09435  3.09435  0.00000 -0.18870
       4     O     4.16112  4.16112  0.00000 -0.32223
       5     C     3.14045  3.14045  0.00000 -0.28091
       6     H     0.43856  0.43856  0.00000  0.12288
       7     H     0.44618  0.44618  0.00000  0.10763
       8     H     0.44941  0.44941  0.00000  0.10118
       9     H     0.45036  0.45036  0.00000  0.09928
      10     H     0.44634  0.44634  0.00000  0.10732
      11     C     3.03534  3.03534  0.00000 -0.07067
      12     H     0.44629  0.44629  0.00000  0.10742
      13     H     0.44537  0.44537  0.00000  0.10925
      14     H     0.46477  0.46477  0.00000  0.07046

   Total alpha = 24.00000, Total beta = 24.00000, Total charge = -0.00000
