  ==> Input File <==

--------------------------------------------------------------------------
set {
	reference rhf
	basis cc-pvtz
}

set_num_threads( 4 )
memory 2 gb

molecule MOL {
0 1

H	 -2.498963	 -0.741158	 -0.729149
O	 -2.346257	 -0.289210	 0.080372
C	 -1.183935	 0.486039	 -0.009831
C	 0.062853	 -0.375310	 0.027457
H	 -1.178881	 1.094526	 -0.908634
H	 -1.184406	 1.155156	 0.838676
O	 1.172093	 0.457955	 -0.054438
H	 0.052476	 -1.081302	 -0.804627
H	 0.076323	 -0.955658	 0.947560
C	 0.925857	 1.784671	 0.277848
H	 0.574084	 1.878948	 1.302857
H	 1.853394	 2.328888	 0.176916
H	 0.184758	 2.228662	 -0.382579

	symmetry c1
}
set optking {
	frozen_dihedral = ("
		10 7 4 8
	")
}

ee = optimize('scf')
oeprop('DIPOLE', 'QUADRUPOLE', 'MULLIKEN_CHARGES')
f=open( 'psi4out.xyz', 'w' )
f.write( "13  " )
f.write( str(ee) + "\n" )
f.write( MOL.save_string_xyz() )
f.close()
--------------------------------------------------------------------------

    Molecular point group: c1
  Charge       = 0
  Multiplicity = 1
  Basis Set: CC-PVTZ
  Basis Set:
  @DF-RHF Final Energy:  -268.03817595891439
    Total Energy =                       -268.0381759589143940
    Molecular point group: c1
  Basis Set: CC-PVTZ
  Basis Set:
  Basis Set: CC-PVTZ
  Basis Set:
  @DF-RHF Final Energy:  -268.03939965678654
    Total Energy =                       -268.0393996567863724
  Basis Set: CC-PVTZ
  Basis Set:
  Basis Set: CC-PVTZ
  Basis Set:
  @DF-RHF Final Energy:  -268.04715508763729
    Total Energy =                       -268.0471550876371793
  Basis Set: CC-PVTZ
  Basis Set:
  Basis Set: CC-PVTZ
  Basis Set:
  @DF-RHF Final Energy:  -268.05053140820576
    Total Energy =                       -268.0505314082058703
  Basis Set: CC-PVTZ
  Basis Set:
  @DF-RHF Final Energy:  -268.05108142824270
    Total Energy =                       -268.0510814282428669
  Basis Set: CC-PVTZ
  Basis Set:
  @DF-RHF Final Energy:  -268.05169437950389
    Total Energy =                       -268.0516943795038287
  Basis Set: CC-PVTZ
  Basis Set:
  Basis Set: CC-PVTZ
  Basis Set:
  @DF-RHF Final Energy:  -268.05181103987371
    Total Energy =                       -268.0518110398737122
  Basis Set: CC-PVTZ
  Basis Set:
  Basis Set: CC-PVTZ
  Basis Set:
  @DF-RHF Final Energy:  -268.05182048010181
    Total Energy =                       -268.0518204801020374
  Basis Set: CC-PVTZ
  Basis Set:
  Charge       = 0
  Multiplicity = 1
  Basis Set: CC-PVTZ
  Basis Set:

    Orbital Energies (a.u.)
    -----------------------

    Doubly Occupied:

       1A    -20.558128     2A    -20.550499     3A    -11.275215
       4A    -11.270315     5A    -11.267874     6A     -1.384699
       7A     -1.372065     8A     -1.013931     9A     -0.939749
      10A     -0.828495    11A     -0.715629    12A     -0.676731
      13A     -0.663167    14A     -0.637520    15A     -0.599143
      16A     -0.559444    17A     -0.554308    18A     -0.518510
      19A     -0.486451    20A     -0.436079    21A     -0.412349

  @DF-RHF Final Energy:  -268.05182120817210

   => Energetics <=

    Nuclear Repulsion Energy =            193.0152218534557562
    One-Electron Energy =                -748.6934856969785415
    Two-Electron Energy =                 287.6264426353508838
    DFT Exchange-Correlation Energy =       0.0000000000000000
    Empirical Dispersion Energy =           0.0000000000000000
    PCM Polarization Energy =               0.0000000000000000
    EFP Energy =                            0.0000000000000000
    Total Energy =                       -268.0518212081719298
    Molecular point group: c1
  Basis Set: CC-PVTZ
  Basis Set:

  -Total Gradient:
     Atom            X                  Y                   Z
    ------   -----------------  -----------------  -----------------
       1        0.000004622007     0.000017392438     0.000004420688
       2       -0.000003053183     0.000002775750     0.000035620390
       3       -0.000011883093    -0.000013176576    -0.000069763754
       4        0.002296696302    -0.003350578538     0.001082219307
       5       -0.000002554483     0.000018359481     0.000006894004
       6       -0.000010490923    -0.000020734242    -0.000005463776
       7        0.000801244389    -0.000676103805     0.005053208732
       8       -0.002249533702     0.003121427525    -0.002394570688
       9        0.000026270264    -0.000001240970     0.000004435018
      10       -0.000860108745     0.000902835739    -0.003721672778
      11        0.000002758805     0.000005622068     0.000002421562
      12       -0.000002663589    -0.000010510521    -0.000002664680
      13        0.000008695944     0.000003931652     0.000004915974

  **** Optimization is complete! (in 9 steps) ****
    Final optimized geometry and variables:
    Molecular point group: c1

    Geometry (in Angstrom), charge = 0, multiplicity = 1:

    H           -2.092451978035    -1.393447808705    -0.790858096072
    O           -2.065490350244    -0.876663185419    -0.005997741632
    C           -1.014698376707     0.045932345927    -0.069078900485
    C            0.321276776447    -0.689590951910    -0.027237851090
    H           -1.088522863346     0.656648392773    -0.964077571511
    H           -1.136570911503     0.696063149429     0.784879295926
    O            1.476079945027     0.098335127522    -0.098177497489
    H            0.343742781675    -1.343483557825    -0.893179650430
    H            0.346820470924    -1.302744753741     0.867805594419
    C            1.422393592879     1.448638817750     0.236823058429
    H            1.104674110647     1.606243149858     1.264313941403
    H            2.426050489337     1.833809773314     0.131576883466
    H            0.770884124371     2.014781277211    -0.420108278929

  Mulliken Charges: (a.u.)
   Center  Symbol    Alpha    Beta     Spin     Total
       1     H     0.39316  0.39316  0.00000  0.21368
       2     O     4.19997  4.19997  0.00000 -0.39994
       3     C     2.99348  2.99348  0.00000  0.01304
       4     C     2.96934  2.96934  0.00000  0.06132
       5     H     0.46504  0.46504  0.00000  0.06992
       6     H     0.44892  0.44892  0.00000  0.10215
       7     O     4.18054  4.18054  0.00000 -0.36108
       8     H     0.47004  0.47004  0.00000  0.05992
       9     H     0.46186  0.46186  0.00000  0.07628
      10     C     3.03679  3.03679  0.00000 -0.07357
      11     H     0.46982  0.46982  0.00000  0.06036
      12     H     0.44113  0.44113  0.00000  0.11774
      13     H     0.46991  0.46991  0.00000  0.06019

   Total alpha = 21.00000, Total beta = 21.00000, Total charge = -0.00000
