  ==> Input File <==

--------------------------------------------------------------------------
set {
	reference rhf
	basis 6-31G*
}

set_num_threads( 4 )
memory 2 gb

molecule MOL {
0 1

H	 -3.892951	 0.981613	 -0.358725
C	 -3.196921	 0.361773	 0.172313
C	 -2.076860	 -0.007332	 -0.404944
H	 -3.439953	 0.057760	 1.173024
O	 -0.991213	 0.808389	 -0.458142
H	 -1.944854	 -0.977626	 -0.850253
C	 0.087912	 0.415726	 -1.234772
C	 -0.071866	 0.849263	 -2.674498
H	 0.237328	 -0.658125	 -1.220142
H	 0.970431	 0.897174	 -0.839989
F	 0.997934	 0.484419	 -3.366034
F	 -1.127112	 0.288390	 -3.241691
F	 -0.201929	 2.154975	 -2.786702

	symmetry c1
}
set optking {
	frozen_dihedral = ("
		6 3 2 1
	")
}

ee = optimize('scf')
oeprop('DIPOLE', 'QUADRUPOLE', 'MULLIKEN_CHARGES')
f=open( 'psi4out.xyz', 'w' )
f.write( "13  " )
f.write( str(ee) + "\n" )
f.write( MOL.save_string_xyz() )
f.close()
--------------------------------------------------------------------------

    Molecular point group: c1
  Charge       = 0
  Multiplicity = 1
  Basis Set: 6-31G*
  Basis Set:
  @DF-RHF Final Energy:  -527.40574974319031
    Total Energy =                       -527.4057497431901993
    Molecular point group: c1
  Basis Set: 6-31G*
  Basis Set:
  Basis Set: 6-31G*
  Basis Set:
  @DF-RHF Final Energy:  -527.44010748737173
    Total Energy =                       -527.4401074873719608
  Basis Set: 6-31G*
  Basis Set:
  Basis Set: 6-31G*
  Basis Set:
  @DF-RHF Final Energy:  -527.47432130662696
    Total Energy =                       -527.4743213066269618
  Basis Set: 6-31G*
  Basis Set:
  Basis Set: 6-31G*
  Basis Set:
  @DF-RHF Final Energy:  -527.48150895061940
    Total Energy =                       -527.4815089506192862
  Basis Set: 6-31G*
  Basis Set:
  @DF-RHF Final Energy:  -527.48235752678659
    Total Energy =                       -527.4823575267865863
  @DF-RHF Final Energy:  -527.48258755142410
    Total Energy =                       -527.4825875514239897
  @DF-RHF Final Energy:  -527.48265641934540
    Total Energy =                       -527.4826564193450622
  @DF-RHF Final Energy:  -527.48266608454173
    Total Energy =                       -527.4826660845417337
  @DF-RHF Final Energy:  -527.48267215483133
    Total Energy =                       -527.4826721548315618
  @DF-RHF Final Energy:  -527.48263980593174
    Total Energy =                       -527.4826398059321946
  @DF-RHF Final Energy:  -527.48267198341523
    Total Energy =                       -527.4826719834152300
  @DF-RHF Final Energy:  -527.38822035726389
    Total Energy =                       -527.3882203572638900
  @DF-RHF Final Energy:  -527.30351901387655
    Total Energy =                       -527.3035190138764392
  @DF-RHF Final Energy:  -527.32900988715676
    Total Energy =                       -527.3290098871568716
  @DF-RHF Final Energy:  -527.33813099724432
    Total Energy =                       -527.3381309972438657
  @DF-RHF Final Energy:  -527.44063822674730
    Total Energy =                       -527.4406382267476374
  @DF-RHF Final Energy:  -527.43726206083693
    Total Energy =                       -527.4372620608371562
  @DF-RHF Final Energy:  -527.44942924594761
    Total Energy =                       -527.4494292459476128
  @DF-RHF Final Energy:  -527.47663698092265
    Total Energy =                       -527.4766369809224216
  @DF-RHF Final Energy:  -527.48099988159584
    Total Energy =                       -527.4809998815958352
  @DF-RHF Final Energy:  -527.28029213783407
    Total Energy =                       -527.2802921378338397
  @DF-RHF Final Energy:  -527.43449212081350
    Total Energy =                       -527.4344921208137293
  @DF-RHF Final Energy:  -527.46858694502316
    Total Energy =                       -527.4685869450233895
  @DF-RHF Final Energy:  -527.40591498041510
    Total Energy =                       -527.4059149804149911
  @DF-RHF Final Energy:  -527.43173154769124
    Total Energy =                       -527.4317315476910153
  @DF-RHF Final Energy:  -527.39743906044214
    Total Energy =                       -527.3974390604416840
  @DF-RHF Final Energy:  -527.46088373151395
    Total Energy =                       -527.4608837315140590
  @DF-RHF Final Energy:  -527.48100142965927
    Total Energy =                       -527.4810014296592726
  @DF-RHF Final Energy:  -527.48214677535930
    Total Energy =                       -527.4821467753596380
  @DF-RHF Final Energy:  -527.48259723036051
    Total Energy =                       -527.4825972303606250
  @DF-RHF Final Energy:  -527.48266930836633
    Total Energy =                       -527.4826693083662121
  @DF-RHF Final Energy:  -527.48267551393235
    Total Energy =                       -527.4826755139320085
  @DF-RHF Final Energy:  -527.48267497774555
    Total Energy =                       -527.4826749777458872
  @DF-RHF Final Energy:  -527.48267264263791
    Total Energy =                       -527.4826726426381356
  @DF-RHF Final Energy:  -527.48252212569412
    Total Energy =                       -527.4825221256946861
  @DF-RHF Final Energy:  -527.48215748618759
    Total Energy =                       -527.4821574861873614
  Basis Set: 6-31G*
  Basis Set:
  @DF-RHF Final Energy:  -527.48265090978487
    Total Energy =                       -527.4826509097848657
  Basis Set: 6-31G*
  Basis Set:
  Basis Set: 6-31G*
  Basis Set:
  @DF-RHF Final Energy:  -527.48265277216797
    Total Energy =                       -527.4826527721680804
  Basis Set: 6-31G*
  Basis Set:
  Basis Set: 6-31G*
  Basis Set:
  @DF-RHF Final Energy:  -527.48267249160381
    Total Energy =                       -527.4826724916035801
  Basis Set: 6-31G*
  Basis Set:
  Charge       = 0
  Multiplicity = 1
  Basis Set: 6-31G*
  Basis Set:

    Orbital Energies (a.u.)
    -----------------------

    Doubly Occupied:

       1A    -26.347490     2A    -26.346919     3A    -26.342799
       4A    -20.605880     5A    -11.505200     6A    -11.318187
       7A    -11.312246     8A    -11.217488     9A     -1.744234
      10A     -1.642638    11A     -1.640709    12A     -1.435468
      13A     -1.085850    14A     -1.017861    15A     -0.926754
      16A     -0.839573    17A     -0.833663    18A     -0.824455
      19A     -0.791160    20A     -0.724455    21A     -0.713046
      22A     -0.696995    23A     -0.675681    24A     -0.661365
      25A     -0.657009    26A     -0.645874    27A     -0.632423
      28A     -0.593556    29A     -0.551230    30A     -0.526095
      31A     -0.499472    32A     -0.338379

  @DF-RHF Final Energy:  -527.48267380178766

   => Energetics <=

    Nuclear Repulsion Energy =            414.2449237733806058
    One-Electron Energy =               -1552.0668907452500207
    Two-Electron Energy =                 610.3392931700818735
    DFT Exchange-Correlation Energy =       0.0000000000000000
    Empirical Dispersion Energy =           0.0000000000000000
    PCM Polarization Energy =               0.0000000000000000
    EFP Energy =                            0.0000000000000000
    Total Energy =                       -527.4826738017875414
    Molecular point group: c1
  Basis Set: 6-31G*
  Basis Set:

  -Total Gradient:
     Atom            X                  Y                   Z
    ------   -----------------  -----------------  -----------------
       1       -0.022506252004    -0.023975753581    -0.028470255906
       2        0.032461622064     0.047969777075     0.026405200980
       3       -0.008340005868    -0.051708773643     0.035846542628
       4       -0.000122474148     0.000185631131    -0.000062407333
       5        0.000301143187    -0.000429817001    -0.000612990360
       6       -0.001713905162     0.027929629054    -0.033231838845
       7       -0.000093734368     0.000096520003     0.000087180939
       8        0.000049322824    -0.000303293154     0.000071338215
       9       -0.000034678559     0.000023332767    -0.000001240051
      10       -0.000025024003     0.000001725678     0.000010553769
      11        0.000008107312     0.000113663913    -0.000090905074
      12       -0.000011832608     0.000065247767     0.000055056611
      13        0.000027711333     0.000032109987    -0.000006235580

    Molecular point group: c1

    Geometry (in Angstrom), charge = 0, multiplicity = 1:

    H           -2.847523524065     0.673384931290     1.785216192216
    C           -2.341241024599    -0.210831647882     2.126479234580
    C           -1.210204023431    -0.702236363883     1.643328087650
    H           -3.084993277174    -0.984662192706     2.267996485544
    O           -0.170556823110     0.168403492859     1.443531669103
    H           -1.124348657559    -1.522332315851     0.950531258671
    C            0.881506613610    -0.225362015502     0.632914111796
    C            0.626291381535     0.119341384077    -0.816683320790
    H            1.071244304684    -1.291612261319     0.695285291764
    H            1.765887931097     0.307149892076     0.950722565757
    F            1.661157421916    -0.251659565584    -1.554585492094
    F           -0.444438104033    -0.507664398096    -1.282932978538
    F            0.441554741121     1.410725427915    -0.995614693936

  Mulliken Charges: (a.u.)
   Center  Symbol    Alpha    Beta     Spin     Total
       1     H     0.39290  0.39290  0.00000  0.21419
       2     C     3.22748  3.22748  0.00000 -0.45496
       3     C     2.90878  2.90878  0.00000  0.18245
       4     H     0.42221  0.42221  0.00000  0.15559
       5     O     4.29407  4.29407  0.00000 -0.58815
       6     H     0.39844  0.39844  0.00000  0.20311
       7     C     3.06574  3.06574  0.00000 -0.13148
       8     C     2.45602  2.45602  0.00000  1.08797
       9     H     0.40611  0.40611  0.00000  0.18778
      10     H     0.39016  0.39016  0.00000  0.21968
      11     F     4.68186  4.68186  0.00000 -0.36372
      12     F     4.68208  4.68208  0.00000 -0.36415
      13     F     4.67416  4.67416  0.00000 -0.34832

   Total alpha = 32.00000, Total beta = 32.00000, Total charge = -0.00000
