  ==> Input File <==

--------------------------------------------------------------------------
set {
	reference rhf
	basis 6-31G*
}

set_num_threads( 1 )
memory 2 gb

molecule MOL {
0 1

O	 0.625848	 1.349995	 -0.000749
C	 0.486307	 0.169203	 0.000779
C	 1.608116	 -0.841643	 0.000302
O	 -0.698257	 -0.426125	 0.001050
C	 2.990107	 -0.200498	 -0.000684
H	 1.468623	 -1.481519	 -0.865924
H	 1.469683	 -1.481289	 0.866878
H	 3.129736	 0.423364	 -0.875135
H	 3.757882	 -0.966877	 -0.001197
H	 3.130964	 0.423383	 0.873533
C	 -1.479637	 -0.335792	 1.187931
C	 -2.771780	 -1.084485	 0.938664
H	 -1.658785	 0.706603	 1.413547
H	 -0.922278	 -0.762970	 2.010403
H	 -3.315470	 -0.647847	 0.108659
H	 -3.400451	 -1.040681	 1.822124
H	 -2.575046	 -2.125508	 0.708828

	symmetry c1
}
set optking {
	frozen_dihedral = ("
		2 4 11 13,
		4 2 3 6
	")
}

ee = energy('scf')
oeprop('DIPOLE', 'QUADRUPOLE', 'MULLIKEN_CHARGES')
f=open( 'psi4out.xyz', 'w' )
f.write( "17  " )
f.write( str(ee) + "\n" )
f.write( MOL.save_string_xyz() )
f.close()
--------------------------------------------------------------------------

    Molecular point group: c1

    Geometry (in Angstrom), charge = 0, multiplicity = 1:

       Center              X                  Y                   Z               Mass
    ------------   -----------------  -----------------  -----------------  -----------------
           O          0.528535232690     1.543484575114    -0.310717285167    15.994914619560
           C          0.388994232690     0.362692575114    -0.309189285167    12.000000000000
           C          1.510803232690    -0.648153424886    -0.309666285167    12.000000000000
           O         -0.795569767310    -0.232635424886    -0.308918285167    15.994914619560
           C          2.892794232690    -0.007008424886    -0.310652285167    12.000000000000
           H          1.371310232690    -1.288029424886    -1.175892285167     1.007825032070
           H          1.372370232690    -1.287799424886     0.556909714833     1.007825032070
           H          3.032423232690     0.616853575114    -1.185103285167     1.007825032070
           H          3.660569232690    -0.773387424886    -0.311165285167     1.007825032070
           H          3.033651232690     0.616872575114     0.563564714833     1.007825032070
           C         -1.576949767310    -0.142302424886     0.877962714833    12.000000000000
           C         -2.869092767310    -0.890995424886     0.628695714833    12.000000000000
           H         -1.756097767310     0.900092575114     1.103578714833     1.007825032070
           H         -1.019590767310    -0.569480424886     1.700434714833     1.007825032070
           H         -3.412782767310    -0.454357424886    -0.201309285167     1.007825032070
           H         -3.497763767310    -0.847191424886     1.512155714833     1.007825032070
           H         -2.672358767310    -1.932018424886     0.398859714833     1.007825032070

  Charge       = 0
  Multiplicity = 1
  Basis Set: 6-31G*
  Basis Set:

    Orbital Energies (a.u.)
    -----------------------

    Doubly Occupied:

       1A    -20.585374     2A    -20.552076     3A    -11.372134
       4A    -11.295744     5A    -11.238150     6A    -11.226021
       7A    -11.215689     8A     -1.462763     9A     -1.364583
      10A     -1.067155    11A     -1.036711    12A     -0.906602
      13A     -0.861231    14A     -0.773254    15A     -0.699978
      16A     -0.684594    17A     -0.659527    18A     -0.632635
      19A     -0.601987    20A     -0.563662    21A     -0.556956
      22A     -0.529242    23A     -0.524006    24A     -0.519209
      25A     -0.504468    26A     -0.488379    27A     -0.451118
      28A     -0.433133

  @DF-RHF Final Energy:  -344.89478462743148

   => Energetics <=

    Nuclear Repulsion Energy =            315.0394357949378445
    One-Electron Energy =               -1094.2555577370542323
    Two-Electron Energy =                 434.3213373146843423
    DFT Exchange-Correlation Energy =       0.0000000000000000
    Empirical Dispersion Energy =           0.0000000000000000
    PCM Polarization Energy =               0.0000000000000000
    EFP Energy =                            0.0000000000000000
    Total Energy =                       -344.8947846274320455

  Mulliken Charges: (a.u.)
   Center  Symbol    Alpha    Beta     Spin     Total
       1     O     4.26541  4.26541  0.00000 -0.53081
       2     C     2.61059  2.61059  0.00000  0.77882
       3     C     3.20733  3.20733  0.00000 -0.41465
       4     O     4.31724  4.31724  0.00000 -0.63449
       5     C     3.23987  3.23987  0.00000 -0.47975
       6     H     0.39906  0.39906  0.00000  0.20188
       7     H     0.40702  0.40702  0.00000  0.18596
       8     H     0.40895  0.40895  0.00000  0.18210
       9     H     0.41886  0.41886  0.00000  0.16227
      10     H     0.41131  0.41131  0.00000  0.17739
      11     C     3.00414  3.00414  0.00000 -0.00828
      12     C     3.24772  3.24772  0.00000 -0.49543
      13     H     0.40599  0.40599  0.00000  0.18803
      14     H     0.42186  0.42186  0.00000  0.15628
      15     H     0.40657  0.40657  0.00000  0.18686
      16     H     0.41688  0.41688  0.00000  0.16624
      17     H     0.41121  0.41121  0.00000  0.17757

   Total alpha = 28.00000, Total beta = 28.00000, Total charge = -0.00000
