  ==> Input File <==

--------------------------------------------------------------------------
set {
	reference rhf
	basis 6-31G*
}

set_num_threads( 1 )
memory 2 gb

molecule MOL {
0 1

H	 2.708159	 -0.565702	 0.582050
O	 2.016064	 -0.864478	 0.000222
C	 1.050492	 0.053836	 0.000068
C	 -0.318135	 -0.576402	 0.000164
O	 1.285279	 1.218255	 -0.000078
C	 -1.454360	 0.441875	 -0.000474
H	 -0.374042	 -1.230163	 -0.866135
H	 -0.374274	 -1.229227	 0.867154
C	 -2.826123	 -0.230780	 0.000056
H	 -1.357605	 1.085198	 -0.868380
H	 -1.357504	 1.086451	 0.866496
H	 -2.959731	 -0.858053	 -0.876869
H	 -3.619374	 0.509403	 -0.000080
H	 -2.959371	 -0.857318	 0.877556

	symmetry c1
}
set optking {
	frozen_dihedral = ("
		7 4 6 10,
		2 3 4 7
	")
}

ee = energy('scf')
oeprop('DIPOLE', 'QUADRUPOLE', 'MULLIKEN_CHARGES')
f=open( 'psi4out.xyz', 'w' )
f.write( "14  " )
f.write( str(ee) + "\n" )
f.write( MOL.save_string_xyz() )
f.close()
--------------------------------------------------------------------------

    Molecular point group: c1

    Geometry (in Angstrom), charge = 0, multiplicity = 1:

       Center              X                  Y                   Z               Mass
    ------------   -----------------  -----------------  -----------------  -----------------
           H          2.709829634726    -0.563946851975     0.575390151860     1.007825032070
           O          2.017734634726    -0.862722851975    -0.006437848140    15.994914619560
           C          1.052162634726     0.055591148025    -0.006591848140    12.000000000000
           C         -0.316464365274    -0.574646851975    -0.006495848140    12.000000000000
           O          1.286949634726     1.220010148025    -0.006737848140    15.994914619560
           C         -1.452689365274     0.443630148025    -0.007133848140    12.000000000000
           H         -0.372371365274    -1.228407851975    -0.872794848140     1.007825032070
           H         -0.372603365274    -1.227471851975     0.860494151860     1.007825032070
           C         -2.824452365274    -0.229024851975    -0.006603848140    12.000000000000
           H         -1.355934365274     1.086953148025    -0.875039848140     1.007825032070
           H         -1.355833365274     1.088206148025     0.859836151860     1.007825032070
           H         -2.958060365274    -0.856297851975    -0.883528848140     1.007825032070
           H         -3.617703365274     0.511158148025    -0.006739848140     1.007825032070
           H         -2.957700365274    -0.855562851975     0.870896151860     1.007825032070

  Charge       = 0
  Multiplicity = 1
  Basis Set: 6-31G*
  Basis Set:

    Orbital Energies (a.u.)
    -----------------------

    Doubly Occupied:

       1A    -20.607177     2A    -20.554836     3A    -11.381191
       4A    -11.240944     5A    -11.225229     6A    -11.217069
       7A     -1.473056     8A     -1.366814     9A     -1.082669
      10A     -0.978389    11A     -0.855788    12A     -0.792853
      13A     -0.703610    14A     -0.686787    15A     -0.666183
      16A     -0.625549    17A     -0.581670    18A     -0.568939
      19A     -0.544619    20A     -0.504648    21A     -0.493061
      22A     -0.482418    23A     -0.478300    24A     -0.444470

  @DF-RHF Final Energy:  -305.87186450940601

   => Energetics <=

    Nuclear Repulsion Energy =            239.9657364868910747
    One-Electron Energy =                -892.5626825987692428
    Two-Electron Energy =                 346.7250816024714482
    DFT Exchange-Correlation Energy =       0.0000000000000000
    Empirical Dispersion Energy =           0.0000000000000000
    PCM Polarization Energy =               0.0000000000000000
    EFP Energy =                            0.0000000000000000
    Total Energy =                       -305.8718645094067483

  Mulliken Charges: (a.u.)
   Center  Symbol    Alpha    Beta     Spin     Total
       1     H     0.26616  0.26616  0.00000  0.46767
       2     O     4.35381  4.35381  0.00000 -0.70762
       3     C     2.62870  2.62870  0.00000  0.74260
       4     C     3.20865  3.20865  0.00000 -0.41729
       5     O     4.26945  4.26945  0.00000 -0.53891
       6     C     3.15277  3.15277  0.00000 -0.30555
       7     H     0.39839  0.39839  0.00000  0.20322
       8     H     0.40183  0.40183  0.00000  0.19635
       9     C     3.24278  3.24278  0.00000 -0.48557
      10     H     0.40962  0.40962  0.00000  0.18076
      11     H     0.41125  0.41125  0.00000  0.17751
      12     H     0.42061  0.42061  0.00000  0.15877
      13     H     0.41455  0.41455  0.00000  0.17089
      14     H     0.42142  0.42142  0.00000  0.15716

   Total alpha = 24.00000, Total beta = 24.00000, Total charge = -0.00000
