  ==> Input File <==

--------------------------------------------------------------------------
set {
	reference rhf
	basis cc-pvtz
}

set_num_threads( 4 )
memory 2 gb

molecule MOL {
0 1

O	 0.395927	 1.296676	 -0.000076
C	 0.503051	 0.114301	 -0.000074
C	 -0.701422	 -0.805636	 -0.000109
C	 1.858118	 -0.556123	 0.000212
C	 -0.374392	 -2.255158	 -0.322630
H	 -1.177013	 -0.722838	 0.973746
H	 -1.420900	 -0.403503	 -0.708685
H	 0.323332	 -2.664458	 0.395620
H	 -1.275398	 -2.856634	 -0.306174
H	 0.077280	 -2.342309	 -1.301725
H	 1.961106	 -1.191101	 -0.872843
H	 2.636688	 0.191085	 -0.000109
H	 1.961070	 -1.190284	 0.873873

	symmetry c1
}
set optking {
	frozen_dihedral = ("
		6 3 2 1
	")
}

ee = optimize('scf')
oeprop('DIPOLE', 'QUADRUPOLE', 'MULLIKEN_CHARGES')
f=open( 'psi4out.xyz', 'w' )
f.write( "13  " )
f.write( str(ee) + "\n" )
f.write( MOL.save_string_xyz() )
f.close()
--------------------------------------------------------------------------

    Molecular point group: c1
  Charge       = 0
  Multiplicity = 1
  Basis Set: CC-PVTZ
  Basis Set:
  @DF-RHF Final Energy:  -231.07697271835457
    Total Energy =                       -231.0769727183547957
    Molecular point group: c1
  Basis Set: CC-PVTZ
  Basis Set:
  Basis Set: CC-PVTZ
  Basis Set:
  @DF-RHF Final Energy:  -231.07834032459181
    Total Energy =                       -231.0783403245916361
  Basis Set: CC-PVTZ
  Basis Set:
  Basis Set: CC-PVTZ
  Basis Set:
  @DF-RHF Final Energy:  -231.07921741913341
    Total Energy =                       -231.0792174191335562
  Basis Set: CC-PVTZ
  Basis Set:
  Basis Set: CC-PVTZ
  Basis Set:
  @DF-RHF Final Energy:  -231.07931444729451
    Total Energy =                       -231.0793144472943936
  Basis Set: CC-PVTZ
  Basis Set:
  Basis Set: CC-PVTZ
  Basis Set:
  @DF-RHF Final Energy:  -231.07930630461993
    Total Energy =                       -231.0793063046199336
  Basis Set: CC-PVTZ
  Basis Set:
  Basis Set: CC-PVTZ
  Basis Set:
  @DF-RHF Final Energy:  -231.07931209373376
    Total Energy =                       -231.0793120937335630
  Basis Set: CC-PVTZ
  Basis Set:
  Charge       = 0
  Multiplicity = 1
  Basis Set: CC-PVTZ
  Basis Set:

    Orbital Energies (a.u.)
    -----------------------

    Doubly Occupied:

       1A    -20.535857     2A    -11.321746     3A    -11.232919
       4A    -11.227551     5A    -11.226618     6A     -1.397432
       7A     -1.067647     8A     -0.995143     9A     -0.891849
      10A     -0.732611    11A     -0.654876    12A     -0.644477
      13A     -0.628392    14A     -0.584882    15A     -0.557551
      16A     -0.546559    17A     -0.531831    18A     -0.514833
      19A     -0.476570    20A     -0.401772

  @DF-RHF Final Energy:  -231.07932128915215

   => Energetics <=

    Nuclear Repulsion Energy =            177.0369854473957218
    One-Electron Energy =                -663.8903808525805061
    Two-Electron Energy =                 255.7740741160325513
    DFT Exchange-Correlation Energy =       0.0000000000000000
    Empirical Dispersion Energy =           0.0000000000000000
    PCM Polarization Energy =               0.0000000000000000
    EFP Energy =                            0.0000000000000000
    Total Energy =                       -231.0793212891522046
    Molecular point group: c1
  Basis Set: CC-PVTZ
  Basis Set:

  -Total Gradient:
     Atom            X                  Y                   Z
    ------   -----------------  -----------------  -----------------
       1       -0.000004744311     0.000014660210     0.001315070632
       2       -0.000184082769     0.000168310418    -0.001911479606
       3        0.000907610694    -0.001118572306     0.001024813727
       4        0.000016136658    -0.000016735682    -0.000022622404
       5        0.000007736105     0.000003174848    -0.000012592060
       6       -0.000744385230     0.000966769312    -0.000419627357
       7       -0.000002494595     0.000000715777     0.000001741703
       8        0.000001806881     0.000003087036    -0.000002273350
       9        0.000004281121     0.000003608141     0.000001342971
      10        0.000003735258    -0.000013531018    -0.000003046582
      11        0.000000809075    -0.000003292175     0.000011465559
      12       -0.000007166841    -0.000003868090     0.000004767039
      13        0.000000757954    -0.000004326469     0.000012439728

  **** Optimization is complete! (in 7 steps) ****
    Final optimized geometry and variables:
    Molecular point group: c1

    Geometry (in Angstrom), charge = 0, multiplicity = 1:

    O            0.021206788840     1.733093626785     0.057541543290
    C            0.186218364211     0.556677090662     0.054656304934
    C           -1.021964385295    -0.369718411216     0.064286102613
    C            1.576368571568    -0.032712629518     0.091748789106
    C           -0.794256826005    -1.841467921079    -0.262098551349
    H           -1.462455474617    -0.264451172473     1.051516483975
    H           -1.738629590873     0.065424213980    -0.621132224366
    H           -0.121048487761    -2.317177918998     0.440331093064
    H           -1.735195699576    -2.375892265399    -0.223828123445
    H           -0.386076248862    -1.972544281399    -1.257539394052
    H            1.750578695109    -0.658347588776    -0.775673449898
    H            2.300531195716     0.766509640462     0.116260732657
    H            1.694342612789    -0.659512388363     0.968937398634

  Mulliken Charges: (a.u.)
   Center  Symbol    Alpha    Beta     Spin     Total
       1     O     4.17579  4.17579  0.00000 -0.35158
       2     C     2.85941  2.85941  0.00000  0.28117
       3     C     3.09656  3.09656  0.00000 -0.19313
       4     C     3.15978  3.15978  0.00000 -0.31956
       5     C     3.15750  3.15750  0.00000 -0.31499
       6     H     0.44121  0.44121  0.00000  0.11757
       7     H     0.43717  0.43717  0.00000  0.12566
       8     H     0.45236  0.45236  0.00000  0.09528
       9     H     0.44118  0.44118  0.00000  0.11764
      10     H     0.45006  0.45006  0.00000  0.09989
      11     H     0.44877  0.44877  0.00000  0.10247
      12     H     0.43201  0.43201  0.00000  0.13597
      13     H     0.44820  0.44820  0.00000  0.10359

   Total alpha = 20.00000, Total beta = 20.00000, Total charge =  0.00000
