                              Psi4 1.0.54 Driver

  ==> Input File <==

--------------------------------------------------------------------------
set {
	reference rhf
	basis cc-pvtz
}

set_num_threads( 4 )
memory 2 gb

molecule MOL {
0 1

H	 1.320232	 -1.395897	 -0.299844
C	 0.741342	 -0.473358	 -0.372347
N	 -0.537714	 -0.645117	 0.000000
O	 1.230403	 0.545972	 -0.744508
C	 -1.522613	 0.412524	 0.000000
H	 -0.809618	 -1.552085	 0.288896
H	 -2.150256	 0.356137	 -0.880771
H	 -1.005621	 1.357208	 0.000000
H	 -2.150256	 0.356137	 0.880771

	symmetry c1
}
set optking {
	frozen_dihedral = ("
		6 3 5 7
	")
}

ee,wfn = optimize('scf', return_wfn=True)
oeprop( wfn, 'DIPOLE', 'QUADRUPOLE', 'MULLIKEN_CHARGES')
f=open( 'psi4out.xyz', 'w' )
f.write( "9  " )
f.write( str(ee) + "\n" )
f.write( MOL.save_string_xyz() )
f.close()
--------------------------------------------------------------------------

    Molecular point group: c1
  Charge       = 0
  Multiplicity = 1
  Basis Set: CC-PVTZ
  Basis Set:
  @DF-RHF Final Energy:  -208.04349207456565
    Total Energy =                       -208.0434920745657621
    Molecular point group: c1
  Basis Set: CC-PVTZ
  Basis Set:
  Basis Set: CC-PVTZ
  Basis Set:
  @DF-RHF Final Energy:  -208.04357021971492
    Total Energy =                       -208.0435702197149794
  Basis Set: CC-PVTZ
  Basis Set:
  Basis Set: CC-PVTZ
  Basis Set:
  @DF-RHF Final Energy:  -208.04357636098626
    Total Energy =                       -208.0435763609861795
  Basis Set: CC-PVTZ
  Basis Set:
  Basis Set: CC-PVTZ
  Basis Set:
  @DF-RHF Final Energy:  -208.04361547004120
    Total Energy =                       -208.0436154700412033
  Basis Set: CC-PVTZ
  Basis Set:
  Basis Set: CC-PVTZ
  Basis Set:
  @DF-RHF Final Energy:  -208.04363553908121
    Total Energy =                       -208.0436355390812366
  Basis Set: CC-PVTZ
  Basis Set:
  Basis Set: CC-PVTZ
  Basis Set:
  @DF-RHF Final Energy:  -208.04363923157194
    Total Energy =                       -208.0436392315719445
  Basis Set: CC-PVTZ
  Basis Set:
  Charge       = 0
  Multiplicity = 1
  Basis Set: CC-PVTZ
  Basis Set:

    Orbital Energies (a.u.)
    -----------------------

    Doubly Occupied:

       1A    -20.516621     2A    -15.584810     3A    -11.337130
       4A    -11.259613     5A     -1.394003     6A     -1.239723
       7A     -0.970080     8A     -0.808396     9A     -0.748782
      10A     -0.646330    11A     -0.629635    12A     -0.596523
      13A     -0.556680    14A     -0.540473    15A     -0.428592
      16A     -0.396392

  @DF-RHF Final Energy:  -208.04363944563534

   => Energetics <=

    Nuclear Repulsion Energy =            122.7784494103039066
    One-Electron Energy =                -526.3366116721558683
    Two-Electron Energy =                 195.5145228162164415
    DFT Exchange-Correlation Energy =       0.0000000000000000
    Empirical Dispersion Energy =           0.0000000000000000
    PCM Polarization Energy =               0.0000000000000000
    EFP Energy =                            0.0000000000000000
    Total Energy =                       -208.0436394456355345
    Molecular point group: c1
  Basis Set: CC-PVTZ
  Basis Set:

  -Total Gradient:
     Atom            X                  Y                   Z
    ------   -----------------  -----------------  -----------------
       1        0.000012108195    -0.000003818967    -0.000005475518
       2       -0.000007863811    -0.000033768498     0.000019212183
       3        0.000040686133     0.000040054439     0.000220519889
       4       -0.000016215209     0.000005677420     0.000000936979
       5        0.000089154131     0.000116150525    -0.000135246866
       6       -0.000022822663    -0.000032796050    -0.000165016648
       7       -0.000094807238    -0.000086552795     0.000074334739
       8       -0.000004098560    -0.000012356482     0.000001942499
       9        0.000003859026     0.000007410409    -0.000011207258

  **** Optimization is complete! (in 7 steps) ****
    Final optimized geometry and variables:
    Molecular point group: c1

    Geometry (in Angstrom), charge = 0, multiplicity = 1:

    H            1.368166603471    -1.354627789743    -0.035477727691
    C            0.776223236724    -0.440106644632    -0.106745170710
    N           -0.480093955574    -0.605190281530     0.339578685876
    O            1.233729865451     0.574888190077    -0.527201288601
    C           -1.476060329203     0.441519342580     0.294129882401
    H           -0.760457030329    -1.522342835086     0.585001551458
    H           -2.047947822770     0.416153592066    -0.626441752468
    H           -0.982760731444     1.397074100368     0.365008828911
    H           -2.153755332246     0.331755167917     1.129593265160

  Mulliken Charges: (a.u.)
   Center  Symbol    Alpha    Beta     Spin     Total
       1     H     0.46340  0.46340  0.00000  0.07321
       2     C     2.88082  2.88082  0.00000  0.23836
       3     N     3.60695  3.60695  0.00000 -0.21390
       4     O     4.21422  4.21422  0.00000 -0.42843
       5     C     3.07923  3.07923  0.00000 -0.15846
       6     H     0.41032  0.41032  0.00000  0.17937
       7     H     0.45543  0.45543  0.00000  0.08914
       8     H     0.43585  0.43585  0.00000  0.12829
       9     H     0.45378  0.45378  0.00000  0.09243

   Total alpha = 16.00000, Total beta = 16.00000, Total charge = -0.00000

*** Psi4 exiting successfully. Buy a developer a beer!
