  ==> Input File <==

--------------------------------------------------------------------------
set {
	reference rhf
	basis 6-31G*
}

set_num_threads( 1 )
memory 2 gb

molecule MOL {
0 1

O	 2.114709	 2.532004	 -1.780383
C	 1.691832	 1.974161	 -2.746170
C	 0.407973	 1.164381	 -2.716174
C	 2.415937	 2.039272	 -4.075301
C	 -0.275965	 1.133511	 -1.352535
H	 -0.260796	 1.572000	 -3.473131
H	 0.642575	 0.155182	 -3.052151
C	 -1.564612	 0.309454	 -1.361482
H	 -0.490078	 2.150316	 -1.038860
H	 0.414172	 0.731700	 -0.617411
C	 -2.259874	 0.272531	 0.000494
H	 -2.250745	 0.715715	 -2.103251
H	 -1.342937	 -0.708602	 -1.678484
C	 -3.549786	 -0.549746	 -0.000374
H	 -2.482584	 1.289672	 0.318054
H	 -1.575201	 -0.134227	 0.742631
C	 -4.809590	 0.315458	 -0.000369
H	 -3.560515	 -1.202009	 -0.871156
H	 -3.561123	 -1.202955	 0.869711
H	 -4.844746	 0.956611	 -0.876632
H	 -5.706986	 -0.295590	 -0.001609
H	 -4.845960	 0.954827	 0.877144
H	 1.772243	 2.469679	 -4.836896
H	 3.308757	 2.640686	 -3.975260
H	 2.686463	 1.041528	 -4.408402

	symmetry c1
}
set optking {
	frozen_dihedral = ("
		9 5 8 12,
		15 11 8 12,
		1 2 3 6,
		9 5 3 6
	")
}

ee = energy('scf')
oeprop('DIPOLE', 'QUADRUPOLE', 'MULLIKEN_CHARGES')
f=open( 'psi4out.xyz', 'w' )
f.write( "25  " )
f.write( str(ee) + "\n" )
f.write( MOL.save_string_xyz() )
f.close()
--------------------------------------------------------------------------

    Molecular point group: c1

    Geometry (in Angstrom), charge = 0, multiplicity = 1:

       Center              X                  Y                   Z               Mass
    ------------   -----------------  -----------------  -----------------  -----------------
           O          2.768586061803     1.504615656352    -0.220795785550    15.994914619560
           C          2.345709061803     0.946772656352    -1.186582785550    12.000000000000
           C          1.061850061803     0.136992656352    -1.156586785550    12.000000000000
           C          3.069814061803     1.011883656352    -2.515713785550    12.000000000000
           C          0.377912061803     0.106122656352     0.207052214450    12.000000000000
           H          0.393081061803     0.544611656352    -1.913543785550     1.007825032070
           H          1.296452061803    -0.872206343648    -1.492563785550     1.007825032070
           C         -0.910734938197    -0.717934343648     0.198105214450    12.000000000000
           H          0.163799061803     1.122927656352     0.520727214450     1.007825032070
           H          1.068049061803    -0.295688343648     0.942176214450     1.007825032070
           C         -1.605996938197    -0.754857343648     1.560081214450    12.000000000000
           H         -1.596867938197    -0.311673343648    -0.543663785550     1.007825032070
           H         -0.689059938197    -1.735990343648    -0.118896785550     1.007825032070
           C         -2.895908938197    -1.577134343648     1.559213214450    12.000000000000
           H         -1.828706938197     0.262283656352     1.877641214450     1.007825032070
           H         -0.921323938197    -1.161615343648     2.302218214450     1.007825032070
           C         -4.155712938197    -0.711930343648     1.559218214450    12.000000000000
           H         -2.906637938197    -2.229397343648     0.688431214450     1.007825032070
           H         -2.907245938197    -2.230343343648     2.429298214450     1.007825032070
           H         -4.190868938197    -0.070777343648     0.682955214450     1.007825032070
           H         -5.053108938197    -1.322978343648     1.557978214450     1.007825032070
           H         -4.192082938197    -0.072561343648     2.436731214450     1.007825032070
           H          2.426120061803     1.442290656352    -3.277308785550     1.007825032070
           H          3.962634061803     1.613297656352    -2.415672785550     1.007825032070
           H          3.340340061803     0.014139656352    -2.848814785550     1.007825032070

  Charge       = 0
  Multiplicity = 1
  Basis Set: 6-31G*
  Basis Set:

    Orbital Energies (a.u.)
    -----------------------

    Doubly Occupied:

       1A    -20.550433     2A    -11.326256     3A    -11.231859
       4A    -11.228328     5A    -11.217274     6A    -11.216332
       7A    -11.213937     8A    -11.212094     9A    -11.208809
      10A     -1.395727    11A     -1.093907    12A     -1.056360
      13A     -1.014003    14A     -0.968106    15A     -0.892335
      16A     -0.818015    17A     -0.787204    18A     -0.729761
      19A     -0.658032    20A     -0.653109    21A     -0.625200
      22A     -0.621043    23A     -0.607245    24A     -0.588424
      25A     -0.569183    26A     -0.557345    27A     -0.533393
      28A     -0.527777    29A     -0.516499    30A     -0.490860
      31A     -0.485434    32A     -0.478139    33A     -0.465075
      34A     -0.453399    35A     -0.449382    36A     -0.399309

  @DF-RHF Final Energy:  -387.13145590551773

   => Energetics <=

    Nuclear Repulsion Energy =            440.7812659214998234
    One-Electron Energy =               -1398.1460299554494213
    Two-Electron Energy =                 570.2333081284305081
    DFT Exchange-Correlation Energy =       0.0000000000000000
    Empirical Dispersion Energy =           0.0000000000000000
    PCM Polarization Energy =               0.0000000000000000
    EFP Energy =                            0.0000000000000000
    Total Energy =                       -387.1314559055190330

  Mulliken Charges: (a.u.)
   Center  Symbol    Alpha    Beta     Spin     Total
       1     O     4.26114  4.26114  0.00000 -0.52228
       2     C     2.73570  2.73570  0.00000  0.52860
       3     C     3.21084  3.21084  0.00000 -0.42168
       4     C     3.28663  3.28663  0.00000 -0.57327
       5     C     3.14839  3.14839  0.00000 -0.29679
       6     H     0.41007  0.41007  0.00000  0.17986
       7     H     0.41008  0.41008  0.00000  0.17985
       8     C     3.15573  3.15573  0.00000 -0.31147
       9     H     0.41209  0.41209  0.00000  0.17581
      10     H     0.41211  0.41211  0.00000  0.17578
      11     C     3.15441  3.15441  0.00000 -0.30882
      12     H     0.42477  0.42477  0.00000  0.15046
      13     H     0.42422  0.42422  0.00000  0.15155
      14     C     3.15470  3.15470  0.00000 -0.30940
      15     H     0.42000  0.42000  0.00000  0.15999
      16     H     0.41992  0.41992  0.00000  0.16016
      17     C     3.24004  3.24004  0.00000 -0.48008
      18     H     0.42156  0.42156  0.00000  0.15689
      19     H     0.42005  0.42005  0.00000  0.15990
      20     H     0.42257  0.42257  0.00000  0.15486
      21     H     0.42035  0.42035  0.00000  0.15931
      22     H     0.42070  0.42070  0.00000  0.15861
      23     H     0.40875  0.40875  0.00000  0.18250
      24     H     0.39646  0.39646  0.00000  0.20707
      25     H     0.40871  0.40871  0.00000  0.18258

   Total alpha = 36.00000, Total beta = 36.00000, Total charge = -0.00000
