  ==> Input File <==

--------------------------------------------------------------------------
set {
	reference rhf
	basis cc-pvtz
}

set_num_threads( 4 )
memory 2 gb

molecule MOL {
0 1

H	 1.991773	 0.212700	 0.461915
C	 1.153276	 0.234259	 -0.218650
O	 -0.000000	 0.000000	 0.518769
H	 1.123561	 1.206122	 -0.706967
H	 1.300979	 -0.528381	 -0.980503
C	 -1.165153	 0.000000	 -0.236961
H	 -1.229451	 0.882440	 -0.870223
H	 -2.002557	 0.000000	 0.445289
H	 -1.229451	 -0.882440	 -0.870223

	symmetry c1
}
set optking {
	frozen_dihedral = ("
		2 3 6 7
	")
}

ee = optimize('scf')
oeprop('DIPOLE', 'QUADRUPOLE', 'MULLIKEN_CHARGES')
f=open( 'psi4out.xyz', 'w' )
f.write( "9  " )
f.write( str(ee) + "\n" )
f.write( MOL.save_string_xyz() )
f.close()
--------------------------------------------------------------------------

    Molecular point group: c1
  Charge       = 0
  Multiplicity = 1
  Basis Set: CC-PVTZ
  Basis Set:
  @DF-RHF Final Energy:  -154.12690721042742
    Total Energy =                       -154.1269072104273619
    Molecular point group: c1
  Basis Set: CC-PVTZ
  Basis Set:
  Basis Set: CC-PVTZ
  Basis Set:
  @DF-RHF Final Energy:  -154.12691921678908
    Total Energy =                       -154.1269192167891333
  Basis Set: CC-PVTZ
  Basis Set:
  Charge       = 0
  Multiplicity = 1
  Basis Set: CC-PVTZ
  Basis Set:

    Orbital Energies (a.u.)
    -----------------------

    Doubly Occupied:

       1A    -20.550179     2A    -11.263322     3A    -11.263242
       4A     -1.382560     5A     -0.975850     6A     -0.872839
       7A     -0.663668     8A     -0.655973     9A     -0.647070
      10A     -0.551625    11A     -0.530094    12A     -0.477189
      13A     -0.419850

  @DF-RHF Final Energy:  -154.12692150836551

   => Energetics <=

    Nuclear Repulsion Energy =             84.8454858688272537
    One-Electron Energy =                -377.4378919067026459
    Two-Electron Energy =                 138.4654845295098653
    DFT Exchange-Correlation Energy =       0.0000000000000000
    Empirical Dispersion Energy =           0.0000000000000000
    PCM Polarization Energy =               0.0000000000000000
    EFP Energy =                            0.0000000000000000
    Total Energy =                       -154.1269215083655126
    Molecular point group: c1
  Basis Set: CC-PVTZ
  Basis Set:

  -Total Gradient:
     Atom            X                  Y                   Z
    ------   -----------------  -----------------  -----------------
       1       -0.000025356605    -0.000009001681     0.000024305054
       2       -0.000128913739     0.001192568981     0.000116471785
       3        0.000401981766    -0.001896372950    -0.000497642677
       4        0.000000226006     0.000003354959     0.000004258794
       5        0.000005796043    -0.000001382245     0.000001840707
       6       -0.000936386409     0.001456376785     0.001427662312
       7        0.000702225121    -0.000771493472    -0.001116510932
       8       -0.000013331445    -0.000007392203     0.000034140885
       9       -0.000006240738     0.000033341826     0.000005474070

  **** Optimization is complete! (in 3 steps) ****
    Final optimized geometry and variables:
    Molecular point group: c1

    Geometry (in Angstrom), charge = 0, multiplicity = 1:

    H            1.997028867175     0.125685923734     0.454532018362
    C            1.158209344636     0.151523296287    -0.225799271171
    O            0.004322896632    -0.077233706200     0.512301996445
    H            1.131645429978     1.123730207641    -0.713290488478
    H            1.303856545620    -0.611082576888    -0.988554648623
    C           -1.162521731514    -0.080975414257    -0.241609339294
    H           -1.228342392278     0.797150127058    -0.880378342087
    H           -2.001082816869    -0.086948775496     0.439357452314
    H           -1.220366288436    -0.962781486869    -0.876916193373

  Mulliken Charges: (a.u.)
   Center  Symbol    Alpha    Beta     Spin     Total
       1     H     0.44840  0.44840  0.00000  0.10320
       2     C     3.02205  3.02205  0.00000 -0.04410
       3     O     4.16758  4.16758  0.00000 -0.33516
       4     H     0.47236  0.47236  0.00000  0.05529
       5     H     0.47364  0.47364  0.00000  0.05272
       6     C     3.02151  3.02151  0.00000 -0.04303
       7     H     0.47480  0.47480  0.00000  0.05039
       8     H     0.44860  0.44860  0.00000  0.10280
       9     H     0.47105  0.47105  0.00000  0.05790

   Total alpha = 13.00000, Total beta = 13.00000, Total charge = -0.00000
