  ==> Input File <==

--------------------------------------------------------------------------
set {
	reference rhf
	basis cc-pvtz
}

set_num_threads( 4 )
memory 2 gb

molecule MOL {
0 1

H	 -3.144994	 -1.202467	 -0.018751
O	 -2.321472	 -0.864941	 -0.318626
C	 -2.021813	 0.336996	 0.342658
C	 -0.669613	 0.837286	 -0.127252
H	 -2.780861	 1.084746	 0.127159
H	 -2.006390	 0.184138	 1.420053
C	 0.490865	 -0.082543	 0.241244
H	 -0.708709	 0.967192	 -1.204587
H	 -0.507562	 1.822272	 0.303070
C	 1.839800	 0.429565	 -0.255472
H	 0.305636	 -1.070211	 -0.165276
H	 0.527397	 -0.195943	 1.322876
C	 2.858901	 -0.684084	 -0.472273
H	 1.696077	 0.971145	 -1.186459
H	 2.238525	 1.148350	 0.455905
H	 2.503916	 -1.400577	 -1.205445
H	 3.804341	 -0.289035	 -0.826370
H	 3.050686	 -1.224071	 0.449181

	symmetry c1
}
set optking {
	frozen_dihedral = ("
		14 10 7 11
	")
}

ee = optimize('scf')
oeprop('DIPOLE', 'QUADRUPOLE', 'MULLIKEN_CHARGES')
f=open( 'psi4out.xyz', 'w' )
f.write( "18  " )
f.write( str(ee) + "\n" )
f.write( MOL.save_string_xyz() )
f.close()
--------------------------------------------------------------------------

    Molecular point group: c1
  Charge       = 0
  Multiplicity = 1
  Basis Set: CC-PVTZ
  Basis Set:
  @DF-RHF Final Energy:  -271.28458119287444
    Total Energy =                       -271.2845811928744979
    Molecular point group: c1
  Basis Set: CC-PVTZ
  Basis Set:
  Basis Set: CC-PVTZ
  Basis Set:
  @DF-RHF Final Energy:  -271.28484962735814
    Total Energy =                       -271.2848496273583123
  Basis Set: CC-PVTZ
  Basis Set:
  Basis Set: CC-PVTZ
  Basis Set:
  @DF-RHF Final Energy:  -271.28488796685861
    Total Energy =                       -271.2848879668583777
  Basis Set: CC-PVTZ
  Basis Set:
  Charge       = 0
  Multiplicity = 1
  Basis Set: CC-PVTZ
  Basis Set:

    Orbital Energies (a.u.)
    -----------------------

    Doubly Occupied:

       1A    -20.546215     2A    -11.265982     3A    -11.210963
       4A    -11.209024     5A    -11.204867     6A    -11.202889
       7A     -1.364142     8A     -1.075770     9A     -1.010269
      10A     -0.914465    11A     -0.819389    12A     -0.785272
      13A     -0.707778    14A     -0.643604    15A     -0.624157
      16A     -0.580883    17A     -0.572632    18A     -0.563412
      19A     -0.521043    20A     -0.502855    21A     -0.492265
      22A     -0.468632    23A     -0.454416    24A     -0.449418
      25A     -0.431978

  @DF-RHF Final Energy:  -271.28488877612449

   => Energetics <=

    Nuclear Repulsion Energy =            249.3203454451982282
    One-Electron Energy =                -861.9658291697958248
    Two-Electron Energy =                 341.3605949484730218
    DFT Exchange-Correlation Energy =       0.0000000000000000
    Empirical Dispersion Energy =           0.0000000000000000
    PCM Polarization Energy =               0.0000000000000000
    EFP Energy =                            0.0000000000000000
    Total Energy =                       -271.2848887761246033
    Molecular point group: c1
  Basis Set: CC-PVTZ
  Basis Set:

  -Total Gradient:
     Atom            X                  Y                   Z
    ------   -----------------  -----------------  -----------------
       1        0.000002574470     0.000004724716     0.000004301381
       2       -0.000031265343     0.000035870313    -0.000018911923
       3        0.000031320867    -0.000035757429     0.000078841244
       4        0.000010302035     0.000010424031    -0.000063578870
       5       -0.000020807513    -0.000027688107    -0.000011544499
       6       -0.000018496592     0.000003416392     0.000001217704
       7       -0.002338386506     0.002983506219    -0.003564742236
       8        0.000016767573     0.000002840150    -0.000006930742
       9        0.000014217137    -0.000028983202    -0.000006032253
      10        0.001162760853    -0.004689674777    -0.001866386988
      11        0.001774163607    -0.001710114385     0.003277144320
      12        0.000005932094     0.000004384904     0.000013765587
      13        0.000009336266    -0.000025471133    -0.000005551176
      14       -0.000600415779     0.003425117330     0.002153294743
      15        0.000010557069     0.000000355887     0.000008179774
      16       -0.000008246483     0.000017141180     0.000008503593
      17       -0.000002385650     0.000016254980     0.000000942079
      18       -0.000017928109     0.000013652931    -0.000002511736

  **** Optimization is complete! (in 4 steps) ****
    Final optimized geometry and variables:
    Molecular point group: c1

    Geometry (in Angstrom), charge = 0, multiplicity = 1:

    H           -3.148212806501    -1.141563667716     0.145580863860
    O           -2.328570466584    -0.817875853441    -0.178935457062
    C           -1.993789086112     0.383471101710     0.466099412575
    C           -0.649502902142     0.862552846331    -0.046116997212
    H           -2.748736170856     1.140245217156     0.268266408119
    H           -1.948782098413     0.236589122730     1.543410181363
    C            0.507069045546    -0.074757004133     0.282675894329
    H           -0.719195943461     0.996218728569    -1.121266165843
    H           -0.457147352101     1.843622233774     0.381315299219
    C            1.868994061861     0.453500781341    -0.177393487675
    H            0.326751849321    -1.055891982898    -0.140693829708
    H            0.539878102451    -0.232074164330     1.359116219585
    C            2.918828806551    -0.637437521567    -0.346751826030
    H            1.752566731914     1.012721908925    -1.101655493064
    H            2.226018198030     1.182020139767     0.546395240858
    H            2.625186254713    -1.345052421830    -1.114462526455
    H            3.879365726370    -0.220566493030    -0.627672322639
    H            3.056264562129    -1.191956898599     0.575978017515

  Mulliken Charges: (a.u.)
   Center  Symbol    Alpha    Beta     Spin     Total
       1     H     0.39579  0.39579  0.00000  0.20841
       2     O     4.19845  4.19845  0.00000 -0.39690
       3     C     2.97391  2.97391  0.00000  0.05217
       4     C     3.09143  3.09143  0.00000 -0.18286
       5     H     0.46560  0.46560  0.00000  0.06880
       6     H     0.47376  0.47376  0.00000  0.05248
       7     C     3.08735  3.08735  0.00000 -0.17469
       8     H     0.45180  0.45180  0.00000  0.09641
       9     H     0.45382  0.45382  0.00000  0.09237
      10     C     3.08424  3.08424  0.00000 -0.16847
      11     H     0.44535  0.44535  0.00000  0.10929
      12     H     0.45885  0.45885  0.00000  0.08231
      13     C     3.14836  3.14836  0.00000 -0.29673
      14     H     0.45612  0.45612  0.00000  0.08776
      15     H     0.45567  0.45567  0.00000  0.08866
      16     H     0.45416  0.45416  0.00000  0.09168
      17     H     0.45008  0.45008  0.00000  0.09983
      18     H     0.45527  0.45527  0.00000  0.08947

   Total alpha = 25.00000, Total beta = 25.00000, Total charge = -0.00000
