  ==> Input File <==

--------------------------------------------------------------------------
set {
	reference rhf
	basis 6-31G*
}

set_num_threads( 4 )
memory 2 gb

molecule MOL {
0 1

H	 3.224588	 -0.616105	 -1.188539
C	 2.510811	 -0.837369	 -0.403369
C	 1.322923	 0.120767	 -0.479465
H	 2.195696	 -1.869235	 -0.523067
H	 3.027309	 -0.751517	 0.547658
C	 0.306652	 -0.176050	 0.621399
H	 0.832494	 0.031032	 -1.443235
H	 1.659098	 1.145938	 -0.378102
N	 -1.068537	 -0.011044	 0.085269
H	 0.372515	 -1.192590	 0.973735
H	 0.391664	 0.520566	 1.441230
O	 -1.656956	 -0.997225	 -0.235017
O	 -1.478635	 1.104830	 -0.018026

	symmetry c1
}
set optking {
	frozen_dihedral = ("
		7 3 6 9
	")
}

ee = optimize('scf')
oeprop('DIPOLE', 'QUADRUPOLE', 'MULLIKEN_CHARGES')
f=open( 'psi4out.xyz', 'w' )
f.write( "13  " )
f.write( str(ee) + "\n" )
f.write( MOL.save_string_xyz() )
f.close()
--------------------------------------------------------------------------

    Molecular point group: c1
  Charge       = 0
  Multiplicity = 1
  Basis Set: 6-31G*
  Basis Set:
  @DF-RHF Final Energy:  -321.73124619905747
    Total Energy =                       -321.7312461990574093
    Molecular point group: c1
  Basis Set: 6-31G*
  Basis Set:
  Basis Set: 6-31G*
  Basis Set:
  @DF-RHF Final Energy:  -321.72219073758458
    Total Energy =                       -321.7221907375845262
  Basis Set: 6-31G*
  Basis Set:
  Basis Set: 6-31G*
  Basis Set:
  @DF-RHF Final Energy:  -321.72984960346383
    Total Energy =                       -321.7298496034638902
  Basis Set: 6-31G*
  Basis Set:
  Basis Set: 6-31G*
  Basis Set:
  @DF-RHF Final Energy:  -321.73159558179270
    Total Energy =                       -321.7315955817924760
  Basis Set: 6-31G*
  Basis Set:
  @DF-RHF Final Energy:  -321.73159334859298
    Total Energy =                       -321.7315933485927530
  @DF-RHF Final Energy:  -321.73163186092052
    Total Energy =                       -321.7316318609205723
  @DF-RHF Final Energy:  -321.73163401198485
    Total Energy =                       -321.7316340119848519
  @DF-RHF Final Energy:  -321.73163640022085
    Total Energy =                       -321.7316364002209639
  @DF-RHF Final Energy:  -321.73163740243842
    Total Energy =                       -321.7316374024385368
  @DF-RHF Final Energy:  -321.73163682796218
    Total Energy =                       -321.7316368279622338
  @DF-RHF Final Energy:  -321.73163700173927
    Total Energy =                       -321.7316370017393865
  @DF-RHF Final Energy:  -321.73163571979319
    Total Energy =                       -321.7316357197932462
  @DF-RHF Final Energy:  -321.72201749673411
    Total Energy =                       -321.7220174967342814
  @DF-RHF Final Energy:  -321.70767435903963
    Total Energy =                       -321.7076743590397427
  @DF-RHF Final Energy:  -321.71509079032182
    Total Energy =                       -321.7150907903217103
  @DF-RHF Final Energy:  -321.71499112578829
    Total Energy =                       -321.7149911257882877
  @DF-RHF Final Energy:  -321.71580527593102
    Total Energy =                       -321.7158052759310181
  @DF-RHF Final Energy:  -321.72287125484030
    Total Energy =                       -321.7228712548401859
  @DF-RHF Final Energy:  -321.72703805406860
    Total Energy =                       -321.7270380540684300
  @DF-RHF Final Energy:  -321.72925293325477
    Total Energy =                       -321.7292529332547701
  @DF-RHF Final Energy:  -321.73161138759588
    Total Energy =                       -321.7316113875958763
  @DF-RHF Final Energy:  -321.73161167811799
    Total Energy =                       -321.7316116781179289
  @DF-RHF Final Energy:  -321.73161136489477
    Total Energy =                       -321.7316113648948317
  @DF-RHF Final Energy:  -321.73161149950158
    Total Energy =                       -321.7316114995014686
  @DF-RHF Final Energy:  -321.73161155273914
    Total Energy =                       -321.7316115527393094
  @DF-RHF Final Energy:  -321.73156484526885
    Total Energy =                       -321.7315648452689061
  @DF-RHF Final Energy:  -321.73161110147180
    Total Energy =                       -321.7316111014718558
  @DF-RHF Final Energy:  -321.73161100078255
    Total Energy =                       -321.7316110007827774
  @DF-RHF Final Energy:  -321.73161087502751
    Total Energy =                       -321.7316108750275134
  @DF-RHF Final Energy:  -321.73161051328884
    Total Energy =                       -321.7316105132888993
  @DF-RHF Final Energy:  -321.73160437901765
    Total Energy =                       -321.7316043790175399
  @DF-RHF Final Energy:  -321.73161070729952
    Total Energy =                       -321.7316107072994100
  @DF-RHF Final Energy:  -321.73161007403723
    Total Energy =                       -321.7316100740372349
  @DF-RHF Final Energy:  -321.73153649492508
    Total Energy =                       -321.7315364949251375
  @DF-RHF Final Energy:  -321.73161070975192
    Total Energy =                       -321.7316107097518625
  @DF-RHF Final Energy:  -321.73161032147527
    Total Energy =                       -321.7316103214752161
  Basis Set: 6-31G*
  Basis Set:
  @DF-RHF Final Energy:  -321.73094761571542
    Total Energy =                       -321.7309476157153085
  Basis Set: 6-31G*
  Basis Set:
  Basis Set: 6-31G*
  Basis Set:
  @DF-RHF Final Energy:  -321.73159255152683
    Total Energy =                       -321.7315925515267736
  Basis Set: 6-31G*
  Basis Set:
  Basis Set: 6-31G*
  Basis Set:
  @DF-RHF Final Energy:  -321.73161111465851
    Total Energy =                       -321.7316111146585627
  Basis Set: 6-31G*
  Basis Set:
  Charge       = 0
  Multiplicity = 1
  Basis Set: 6-31G*
  Basis Set:

    Orbital Energies (a.u.)
    -----------------------

    Doubly Occupied:

       1A    -20.603276     2A    -20.598435     3A    -15.847307
       4A    -11.299476     5A    -11.255522     6A    -11.238008
       7A     -1.631165     8A     -1.416599     9A     -1.132742
      10A     -1.028420    11A     -0.884589    12A     -0.831465
      13A     -0.760363    14A     -0.738035    15A     -0.724045
      16A     -0.657211    17A     -0.608558    18A     -0.596318
      19A     -0.541535    20A     -0.524115    21A     -0.510917
      22A     -0.482822    23A     -0.473551    24A     -0.448802

  @DF-RHF Final Energy:  -321.73161120623672

   => Energetics <=

    Nuclear Repulsion Energy =            247.5708100242515002
    One-Electron Energy =                -928.9382954230843552
    Two-Electron Energy =                 359.6358741925959066
    DFT Exchange-Correlation Energy =       0.0000000000000000
    Empirical Dispersion Energy =           0.0000000000000000
    PCM Polarization Energy =               0.0000000000000000
    EFP Energy =                            0.0000000000000000
    Total Energy =                       -321.7316112062369484
    Molecular point group: c1
  Basis Set: 6-31G*
  Basis Set:

  -Total Gradient:
     Atom            X                  Y                   Z
    ------   -----------------  -----------------  -----------------
       1        0.000078165407     0.000084492483     0.000079196531
       2       -0.000023229862     0.000372353212    -0.000048091241
       3        0.001389627290    -0.008153028396    -0.001396869471
       4       -0.000066590565     0.000142534205    -0.000079757909
       5       -0.000348276899     0.000080573053    -0.000252906728
       6       -0.000582283555     0.007041874398     0.002879825479
       7       -0.000804022758     0.004113272890     0.000257738712
       8       -0.000127678647     0.000216584819     0.000262827246
       9       -0.000475874192    -0.002490586550    -0.000953154082
      10        0.000199136738     0.000150610052    -0.000591375165
      11       -0.000045930014    -0.000857364881     0.000006179764
      12        0.000368841257    -0.000096168448    -0.000078085479
      13        0.000438115808    -0.000605146841    -0.000085527657

    Molecular point group: c1

    Geometry (in Angstrom), charge = 0, multiplicity = 1:

    H            3.331008168144    -0.391891389234    -1.076212449849
    C            2.585187628557    -0.686934677250    -0.346740880757
    C            1.378585038622     0.244671339630    -0.410427338519
    H            2.300433278071    -1.713344188270    -0.553734366858
    H            3.052744829673    -0.659713704418     0.632761592407
    C            0.340448723563    -0.082930676444     0.674820691935
    H            0.907936239536     0.208756661488    -1.385795676325
    H            1.696270053180     1.273553356324    -0.285986098922
    N           -1.037506962325     0.121982398449     0.160043337520
    H            0.379385217030    -1.117267837707     0.973462842623
    H            0.430922628691     0.552516264277     1.542377817730
    O           -1.765524253101    -0.820550404547     0.133519476790
    O           -1.317689644632     1.224181589812    -0.202204045579

  Mulliken Charges: (a.u.)
   Center  Symbol    Alpha    Beta     Spin     Total
       1     H     0.40873  0.40873  0.00000  0.18255
       2     C     3.24855  3.24855  0.00000 -0.49710
       3     C     3.17044  3.17044  0.00000 -0.34088
       4     H     0.41265  0.41265  0.00000  0.17469
       5     H     0.41643  0.41643  0.00000  0.16714
       6     C     3.08801  3.08801  0.00000 -0.17603
       7     H     0.39792  0.39792  0.00000  0.20415
       8     H     0.40223  0.40223  0.00000  0.19555
       9     N     3.22411  3.22411  0.00000  0.55179
      10     H     0.38624  0.38624  0.00000  0.22751
      11     H     0.38585  0.38585  0.00000  0.22830
      12     O     4.22726  4.22726  0.00000 -0.45453
      13     O     4.23157  4.23157  0.00000 -0.46314

   Total alpha = 24.00000, Total beta = 24.00000, Total charge = -0.00000
