                              Psi4 1.0.54 Driver

  ==> Input File <==

--------------------------------------------------------------------------
set {
	reference rhf
	basis cc-pvtz
}

set_num_threads( 4 )
memory 2 gb

molecule MOL {
0 1

O	 -2.081319	 -0.951530	 -0.502732
N	 -1.613558	 0.006676	 0.014756
C	 -0.329345	 -0.171618	 0.743966
O	 -2.068523	 1.100482	 -0.024385
C	 -0.015135	 1.088409	 1.540641
H	 0.416625	 -0.366318	 -0.008390
H	 -0.465604	 -1.027156	 1.384060
C	 1.297046	 0.948518	 2.307960
H	 0.041236	 1.930070	 0.860210
H	 -0.828942	 1.280749	 2.230178
C	 1.631744	 2.194521	 3.120324
H	 2.103536	 0.744734	 1.609760
H	 1.237945	 0.090128	 2.970592
H	 1.730340	 3.063797	 2.479750
H	 0.857157	 2.405575	 3.849150
H	 2.565211	 2.068770	 3.655102

	symmetry c1
}
set optking {
	frozen_dihedral = ("
		5 3 2 1
	")
}

ee,wfn = optimize('scf', return_wfn=True)
oeprop( wfn, 'DIPOLE', 'QUADRUPOLE', 'MULLIKEN_CHARGES')
f=open( 'psi4out.xyz', 'w' )
f.write( "16  " )
f.write( str(ee) + "\n" )
f.write( MOL.save_string_xyz() )
f.close()
--------------------------------------------------------------------------

    Molecular point group: c1
  Charge       = 0
  Multiplicity = 1
  Basis Set: CC-PVTZ
  Basis Set:
  @DF-RHF Final Energy:  -360.90649744759628
    Total Energy =                       -360.9064974475966210
    Molecular point group: c1
  Basis Set: CC-PVTZ
  Basis Set:
  Basis Set: CC-PVTZ
  Basis Set:
  @DF-RHF Final Energy:  -360.90761585905972
    Total Energy =                       -360.9076158590598311
  Basis Set: CC-PVTZ
  Basis Set:
  Basis Set: CC-PVTZ
  Basis Set:
  @DF-RHF Final Energy:  -360.90830282859935
    Total Energy =                       -360.9083028285992896
  Basis Set: CC-PVTZ
  Basis Set:
  Basis Set: CC-PVTZ
  Basis Set:
  @DF-RHF Final Energy:  -360.90824106012161
    Total Energy =                       -360.9082410601216111
  Basis Set: CC-PVTZ
  Basis Set:
  Basis Set: CC-PVTZ
  Basis Set:
  @DF-RHF Final Energy:  -360.90835913160538
    Total Energy =                       -360.9083591316052662
  Basis Set: CC-PVTZ
  Basis Set:
  Basis Set: CC-PVTZ
  Basis Set:
  @DF-RHF Final Energy:  -360.90845574835026
    Total Energy =                       -360.9084557483505478
  Basis Set: CC-PVTZ
  Basis Set:
  Basis Set: CC-PVTZ
  Basis Set:
  @DF-RHF Final Energy:  -360.90845994545265
    Total Energy =                       -360.9084599454524778
  Basis Set: CC-PVTZ
  Basis Set:
  Charge       = 0
  Multiplicity = 1
  Basis Set: CC-PVTZ
  Basis Set:

    Orbital Energies (a.u.)
    -----------------------

    Doubly Occupied:

       1A    -20.592970     2A    -20.586965     3A    -15.837867
       4A    -11.298195     5A    -11.243522     6A    -11.239717
       7A    -11.224207     8A     -1.636544     9A     -1.420630
      10A     -1.133968    11A     -1.058552    12A     -0.948838
      13A     -0.843455    14A     -0.821170    15A     -0.759012
      16A     -0.752394    17A     -0.730572    18A     -0.666828
      19A     -0.615327    20A     -0.602576    21A     -0.565582
      22A     -0.534473    23A     -0.523955    24A     -0.501922
      25A     -0.494376    26A     -0.486684    27A     -0.469095
      28A     -0.452838

  @DF-RHF Final Energy:  -360.90846038845245

   => Energetics <=

    Nuclear Repulsion Energy =            312.4875569139833260
    One-Electron Energy =               -1110.7075741699054561
    Two-Electron Energy =                 437.3115568674694487
    DFT Exchange-Correlation Energy =       0.0000000000000000
    Empirical Dispersion Energy =           0.0000000000000000
    PCM Polarization Energy =               0.0000000000000000
    EFP Energy =                            0.0000000000000000
    Total Energy =                       -360.9084603884526814
    Molecular point group: c1
  Basis Set: CC-PVTZ
  Basis Set:

  -Total Gradient:
     Atom            X                  Y                   Z
    ------   -----------------  -----------------  -----------------
       1        0.000084996151     0.000043154536    -0.000140826710
       2       -0.000081490294    -0.000061263122     0.000140917945
       3       -0.000060952342    -0.000046566941     0.000103330233
       4       -0.000003901630     0.000014053689     0.000008012959
       5        0.000032192589     0.000034226214    -0.000084570371
       6       -0.000005042493    -0.000004297024    -0.000004796075
       7        0.000006490259    -0.000000350036    -0.000008883789
       8        0.000001275763     0.000000550010     0.000010005324
       9        0.000010375473    -0.000001437173    -0.000009197661
      10        0.000004534331     0.000015532012    -0.000008520617
      11        0.000007028807    -0.000000095484    -0.000000225285
      12        0.000005612797     0.000007854785     0.000002338760
      13       -0.000003381774    -0.000002222558    -0.000008119740
      14        0.000001428575     0.000001468247     0.000001042961
      15       -0.000000186754    -0.000002994697    -0.000003039755
      16        0.000001020544     0.000002387548     0.000002531816

  **** Optimization is complete! (in 8 steps) ****
    Final optimized geometry and variables:
    Molecular point group: c1

    Geometry (in Angstrom), charge = 0, multiplicity = 1:

    O           -1.463002779368    -1.729705418773    -1.419732498895
    N           -1.122966642593    -0.688042921046    -0.966747094385
    C            0.177273827269    -0.690030845952    -0.229625433545
    O           -1.717596521033     0.329629081104    -1.070413780934
    C            0.457270090424     0.589045936855     0.531099433730
    H            0.915528207970    -0.884625671237    -0.994673146416
    H            0.126435672135    -1.557221408203     0.409717545229
    C            1.790024398877     0.498036137373     1.272938004118
    H            0.470303958379     1.424865923356    -0.155531755508
    H           -0.345623807169     0.774781045138     1.234154883216
    C            2.109240274619     1.768735335912     2.052579924522
    H            2.588451194590     0.301312911846     0.562910987818
    H            1.771044491110    -0.347559361864     1.954572816525
    H            2.168996053844     2.627098853375     1.392769868725
    H            1.345380992085     1.974036552514     2.794308488682
    H            3.057511930356     1.679798403686     2.568550043872

  Mulliken Charges: (a.u.)
   Center  Symbol    Alpha    Beta     Spin     Total
       1     O     4.17480  4.17480  0.00000 -0.34959
       2     N     3.27192  3.27192  0.00000  0.45617
       3     C     3.05187  3.05187  0.00000 -0.10373
       4     O     4.16888  4.16888  0.00000 -0.33776
       5     C     3.09324  3.09324  0.00000 -0.18648
       6     H     0.43338  0.43338  0.00000  0.13325
       7     H     0.43170  0.43170  0.00000  0.13661
       8     C     3.09430  3.09430  0.00000 -0.18859
       9     H     0.43773  0.43773  0.00000  0.12454
      10     H     0.44102  0.44102  0.00000  0.11796
      11     C     3.14808  3.14808  0.00000 -0.29615
      12     H     0.45189  0.45189  0.00000  0.09623
      13     H     0.45166  0.45166  0.00000  0.09668
      14     H     0.45189  0.45189  0.00000  0.09621
      15     H     0.45206  0.45206  0.00000  0.09588
      16     H     0.44561  0.44561  0.00000  0.10879

   Total alpha = 28.00000, Total beta = 28.00000, Total charge = -0.00000

*** Psi4 exiting successfully. Buy a developer a beer!
