                              Psi4 1.0.54 Driver

  ==> Input File <==

--------------------------------------------------------------------------
set {
	reference rhf
	basis cc-pvtz
}

set_num_threads( 4 )
memory 2 gb

molecule MOL {
0 1

H	 -2.149496	 -2.244167	 0.000000
O	 -2.454378	 -1.354528	 0.000000
C	 -1.430628	 -0.482077	 0.000000
C	 -1.635558	 0.744185	 -0.615594
C	 -0.212794	 -0.766126	 0.580877
H	 -2.589326	 0.945798	 -1.061359
C	 -0.622989	 1.675640	 -0.645709
H	 -0.040643	 -1.710758	 1.060441
C	 0.798329	 0.184522	 0.541788
H	 -0.789618	 2.621241	 -1.123631
C	 0.605899	 1.407930	 -0.067872
C	 2.069356	 -0.121062	 1.152048
H	 1.395665	 2.130953	 -0.089833
N	 3.062003	 -0.363304	 1.630226

	symmetry c1
}
set optking {
	frozen_dihedral = ("
		5 3 2 1
	")
}

ee,wfn = optimize('scf', return_wfn=True)
oeprop( wfn, 'DIPOLE', 'QUADRUPOLE', 'MULLIKEN_CHARGES')
f=open( 'psi4out.xyz', 'w' )
f.write( "14  " )
f.write( str(ee) + "\n" )
f.write( MOL.save_string_xyz() )
f.close()
--------------------------------------------------------------------------

    Molecular point group: c1
  Charge       = 0
  Multiplicity = 1
  Basis Set: CC-PVTZ
  Basis Set:
  @DF-RHF Final Energy:  -397.43172562099238
    Total Energy =                       -397.4317256209922107
    Molecular point group: c1
  Basis Set: CC-PVTZ
  Basis Set:
  Basis Set: CC-PVTZ
  Basis Set:
  @DF-RHF Final Energy:  -397.43180004234978
    Total Energy =                       -397.4318000423495505
  Basis Set: CC-PVTZ
  Basis Set:
  Basis Set: CC-PVTZ
  Basis Set:
  @DF-RHF Final Energy:  -397.43189027654103
    Total Energy =                       -397.4318902765410257
  Basis Set: CC-PVTZ
  Basis Set:
  Charge       = 0
  Multiplicity = 1
  Basis Set: CC-PVTZ
  Basis Set:

    Orbital Energies (a.u.)
    -----------------------

    Doubly Occupied:

       1A    -20.603761     2A    -15.565670     3A    -11.323019
       4A    -11.292742     5A    -11.269156     6A    -11.261359
       7A    -11.260257     8A    -11.257217     9A    -11.252526
      10A     -1.435265    11A     -1.238660    12A     -1.187142
      13A     -1.066954    14A     -1.042660    15A     -0.898605
      16A     -0.870965    17A     -0.783087    18A     -0.728611
      19A     -0.702667    20A     -0.671193    21A     -0.631693
      22A     -0.626031    23A     -0.585241    24A     -0.565797
      25A     -0.554116    26A     -0.546736    27A     -0.525315
      28A     -0.480654    29A     -0.479397    30A     -0.367871
      31A     -0.344796

  @DF-RHF Final Energy:  -397.43189155972408

   => Energetics <=

    Nuclear Repulsion Energy =            380.4093582776484368
    One-Electron Energy =               -1292.8441712153271510
    Two-Electron Energy =                 515.0029213779548627
    DFT Exchange-Correlation Energy =       0.0000000000000000
    Empirical Dispersion Energy =           0.0000000000000000
    PCM Polarization Energy =               0.0000000000000000
    EFP Energy =                            0.0000000000000000
    Total Energy =                       -397.4318915597239084
    Molecular point group: c1
  Basis Set: CC-PVTZ
  Basis Set:

  -Total Gradient:
     Atom            X                  Y                   Z
    ------   -----------------  -----------------  -----------------
       1        0.000017343140    -0.000045025981    -0.002272599721
       2       -0.000314047465     0.000530007299     0.003650665173
       3        0.001019941741    -0.001352128851    -0.002735856801
       4        0.000109799213     0.000253253588    -0.000041596854
       5       -0.000794262128     0.000618688995     0.001370803801
       6       -0.000011384492    -0.000021775560    -0.000010954544
       7       -0.000286313144    -0.000056453667    -0.000024387370
       8        0.000017660166     0.000006164644     0.000001687953
       9        0.000038991840     0.000306543437     0.000009464189
      10        0.000007088894    -0.000002059443     0.000007787701
      11        0.000198658187    -0.000223657098     0.000056753632
      12        0.000005743906    -0.000022974135    -0.000027250612
      13       -0.000009573608     0.000010228069    -0.000001447158
      14        0.000000353747    -0.000000811300     0.000016930611

  **** Optimization is complete! (in 4 steps) ****
    Final optimized geometry and variables:
    Molecular point group: c1

    Geometry (in Angstrom), charge = 0, multiplicity = 1:

    H           -2.105635374741    -2.302932763304    -0.241760774104
    O           -2.407798651637    -1.412600388059    -0.269648672637
    C           -1.376616860196    -0.542865559444    -0.295762766990
    C           -1.584890882778     0.687576711190    -0.898054542453
    C           -0.163855316362    -0.823580602090     0.297929684069
    H           -2.537751425983     0.889171582552    -1.345873599022
    C           -0.576442674156     1.625899121774    -0.913626838217
    H            0.000206146245    -1.765183385556     0.785499659420
    C            0.846739108606     0.126516142356     0.263330593430
    H           -0.744875584725     2.575608484710    -1.382592346819
    C            0.651457209613     1.354726660317    -0.338295407429
    C            2.116660060296    -0.178460861368     0.875893736436
    H            1.439772758418     2.079698721976    -0.353284915228
    N            3.108967718412    -0.420709908241     1.354981483660

  Mulliken Charges: (a.u.)
   Center  Symbol    Alpha    Beta     Spin     Total
       1     H     0.38363  0.38363  0.00000  0.23275
       2     O     4.17349  4.17349  0.00000 -0.34698
       3     C     2.84934  2.84934  0.00000  0.30132
       4     C     3.10580  3.10580  0.00000 -0.21161
       5     C     3.14028  3.14028  0.00000 -0.28056
       6     H     0.41298  0.41298  0.00000  0.17405
       7     C     3.05189  3.05189  0.00000 -0.10378
       8     H     0.41916  0.41916  0.00000  0.16168
       9     C     2.92925  2.92925  0.00000  0.14150
      10     H     0.41665  0.41665  0.00000  0.16670
      11     C     3.10288  3.10288  0.00000 -0.20576
      12     C     3.02569  3.02569  0.00000 -0.05138
      13     H     0.41424  0.41424  0.00000  0.17153
      14     N     3.57473  3.57473  0.00000 -0.14946

   Total alpha = 31.00000, Total beta = 31.00000, Total charge =  0.00000

*** Psi4 exiting successfully. Buy a developer a beer!
