  ==> Input File <==

--------------------------------------------------------------------------
set {
	reference rhf
	basis 6-31G*
}

set_num_threads( 4 )
memory 2 gb

molecule MOL {
0 1

O	 0.625848	 1.349995	 -0.000749
C	 0.486307	 0.169203	 0.000779
C	 1.608116	 -0.841643	 0.000302
O	 -0.698257	 -0.426125	 0.001050
C	 2.990107	 -0.200498	 -0.000684
H	 1.468623	 -1.481519	 -0.865924
H	 1.469683	 -1.481289	 0.866878
H	 3.129736	 0.423364	 -0.875135
H	 3.757882	 -0.966877	 -0.001197
H	 3.130964	 0.423383	 0.873533
C	 -0.851413	 -1.585981	 0.812639
C	 -2.275069	 -2.072959	 0.644212
H	 -0.636223	 -1.327864	 1.840576
H	 -0.133902	 -2.332341	 0.500044
H	 -2.981403	 -1.312178	 0.956404
H	 -2.436068	 -2.959840	 1.248505
H	 -2.476424	 -2.322243	 -0.391437

	symmetry c1
}
set optking {
	frozen_dihedral = ("
		11 4 2 3
	")
}

ee = optimize('scf')
oeprop('DIPOLE', 'QUADRUPOLE', 'MULLIKEN_CHARGES')
f=open( 'psi4out.xyz', 'w' )
f.write( "17  " )
f.write( str(ee) + "\n" )
f.write( MOL.save_string_xyz() )
f.close()
--------------------------------------------------------------------------

    Molecular point group: c1
  Charge       = 0
  Multiplicity = 1
  Basis Set: 6-31G*
  Basis Set:
  @DF-RHF Final Energy:  -344.88653454661045
    Total Energy =                       -344.8865345466103349
    Molecular point group: c1
  Basis Set: 6-31G*
  Basis Set:
  Basis Set: 6-31G*
  Basis Set:
  @DF-RHF Final Energy:  -344.88795976023744
    Total Energy =                       -344.8879597602376634
  Basis Set: 6-31G*
  Basis Set:
  Basis Set: 6-31G*
  Basis Set:
  @DF-RHF Final Energy:  -344.89334775930581
    Total Energy =                       -344.8933477593055841
  Basis Set: 6-31G*
  Basis Set:
  Basis Set: 6-31G*
  Basis Set:
  @DF-RHF Final Energy:  -344.89459217370558
    Total Energy =                       -344.8945921737056892
  Basis Set: 6-31G*
  Basis Set:
  @DF-RHF Final Energy:  -344.89425800107063
    Total Energy =                       -344.8942580010707388
  Basis Set: 6-31G*
  Basis Set:
  @DF-RHF Final Energy:  -344.89479778282606
    Total Energy =                       -344.8947977828262310
  Basis Set: 6-31G*
  Basis Set:
  Basis Set: 6-31G*
  Basis Set:
  @DF-RHF Final Energy:  -344.89492345163075
    Total Energy =                       -344.8949234516305182
  Basis Set: 6-31G*
  Basis Set:
  Basis Set: 6-31G*
  Basis Set:
  @DF-RHF Final Energy:  -344.89492548774388
    Total Energy =                       -344.8949254877434214
  Basis Set: 6-31G*
  Basis Set:
  Charge       = 0
  Multiplicity = 1
  Basis Set: 6-31G*
  Basis Set:

    Orbital Energies (a.u.)
    -----------------------

    Doubly Occupied:

       1A    -20.593722     2A    -20.544675     3A    -11.372930
       4A    -11.299531     5A    -11.245900     6A    -11.226911
       7A    -11.219717     8A     -1.459717     9A     -1.365536
      10A     -1.063546    11A     -1.044734    12A     -0.901106
      13A     -0.878172    14A     -0.770756    15A     -0.703872
      16A     -0.691987    17A     -0.654993    18A     -0.636601
      19A     -0.596936    20A     -0.567067    21A     -0.560352
      22A     -0.538093    23A     -0.526533    24A     -0.518633
      25A     -0.509557    26A     -0.490743    27A     -0.447850
      28A     -0.431825

  @DF-RHF Final Energy:  -344.89492564875121

   => Energetics <=

    Nuclear Repulsion Energy =            315.0452985559437025
    One-Electron Energy =               -1094.1564610104587700
    Two-Electron Energy =                 434.2162368057638560
    DFT Exchange-Correlation Energy =       0.0000000000000000
    Empirical Dispersion Energy =           0.0000000000000000
    PCM Polarization Energy =               0.0000000000000000
    EFP Energy =                            0.0000000000000000
    Total Energy =                       -344.8949256487512685
    Molecular point group: c1
  Basis Set: 6-31G*
  Basis Set:

  -Total Gradient:
     Atom            X                  Y                   Z
    ------   -----------------  -----------------  -----------------
       1        0.000023579046     0.000011507388     0.000001248295
       2       -0.000669477905     0.000893069663     0.005147169491
       3        0.000072960943    -0.000004842015    -0.002625139850
       4        0.001492271485    -0.002564710092    -0.004741465416
       5        0.000000182516     0.000006747961     0.000013045865
       6        0.000003225619     0.000000618605     0.000008927602
       7       -0.000015980239     0.000009660831     0.000009526098
       8       -0.000001962105    -0.000001566250    -0.000004251364
       9       -0.000001694782    -0.000000397826    -0.000001827052
      10        0.000001531679     0.000001632218    -0.000001148305
      11       -0.000902862399     0.001653674067     0.002163176656
      12        0.000001719795    -0.000005800644     0.000013438987
      13        0.000000056036     0.000002634214     0.000002363136
      14        0.000000393796    -0.000003608827     0.000009675540
      15       -0.000006630421     0.000000562044     0.000000080497
      16       -0.000006237765     0.000000111135     0.000001999949
      17        0.000008924705     0.000000707523     0.000003179870

  **** Optimization is complete! (in 9 steps) ****
    Final optimized geometry and variables:
    Molecular point group: c1

    Geometry (in Angstrom), charge = 0, multiplicity = 1:

    O            0.328878578500     1.791935325235    -0.243246680856
    C            0.267064218281     0.613215712206    -0.163189402291
    C            1.487405663752    -0.285932362599    -0.125023552616
    O           -0.926981609582     0.006153795130    -0.205851968202
    C            2.791627991075     0.489574660857    -0.270118846248
    H            1.378072986691    -1.018106712505    -0.920455854240
    H            1.486731003201    -0.849319447713     0.804112544619
    H            2.818698020894     1.032301315855    -1.206603291184
    H            3.634971695223    -0.192236169870    -0.242951988219
    H            2.905855175483     1.209541296626     0.530354477224
    C           -1.197508408444    -1.157221051398     0.556545309738
    C           -2.680390116857    -1.440356259001     0.435893849803
    H           -0.924108946599    -0.985928847883     1.592145768103
    H           -0.618507226169    -1.995179508258     0.185278825332
    H           -3.256905890953    -0.604078162702     0.812039877475
    H           -2.938289783225    -2.327375472732     1.005528617200
    H           -2.950323059498    -1.603877834043    -0.600769459548

  Mulliken Charges: (a.u.)
   Center  Symbol    Alpha    Beta     Spin     Total
       1     O     4.26137  4.26137  0.00000 -0.52273
       2     C     2.60495  2.60495  0.00000  0.79010
       3     C     3.22614  3.22614  0.00000 -0.45228
       4     O     4.31093  4.31093  0.00000 -0.62187
       5     C     3.23545  3.23545  0.00000 -0.47090
       6     H     0.40132  0.40132  0.00000  0.19736
       7     H     0.40550  0.40550  0.00000  0.18901
       8     H     0.40766  0.40766  0.00000  0.18469
       9     H     0.41901  0.41901  0.00000  0.16198
      10     H     0.40789  0.40789  0.00000  0.18422
      11     C     3.00475  3.00475  0.00000 -0.00950
      12     C     3.24521  3.24521  0.00000 -0.49042
      13     H     0.41771  0.41771  0.00000  0.16458
      14     H     0.41971  0.41971  0.00000  0.16058
      15     H     0.40589  0.40589  0.00000  0.18822
      16     H     0.41799  0.41799  0.00000  0.16402
      17     H     0.40852  0.40852  0.00000  0.18295

   Total alpha = 28.00000, Total beta = 28.00000, Total charge =  0.00000
