  ==> Input File <==

--------------------------------------------------------------------------
set {
	reference rhf
	basis 6-31G*
}

set_num_threads( 4 )
memory 2 gb

molecule MOL {
0 1

O	 1.660559	 1.621666	 -0.470427
C	 1.159295	 1.069610	 -1.396217
C	 -0.152489	 0.323721	 -1.369036
O	 1.703004	 1.041836	 -2.606484
C	 -0.823008	 0.326187	 0.001381
H	 -0.795427	 0.770056	 -2.122781
H	 0.042954	 -0.689345	 -1.709944
C	 -2.149452	 -0.435131	 -0.000098
H	 -0.986465	 1.351593	 0.317631
H	 -0.147786	 -0.110284	 0.730680
C	 -3.368779	 0.488503	 -0.000883
H	 -2.193746	 -1.087250	 -0.871175
H	 -2.195311	 -1.087803	 0.870418
C	 -4.693822	 -0.272754	 -0.001129
H	 -3.325798	 1.139422	 -0.871284
H	 -3.326423	 1.139959	 0.869145
H	 -4.781274	 -0.907928	 -0.878124
H	 -5.538651	 0.408946	 -0.001420
H	 -4.781694	 -0.907783	 0.875984
C	 2.940993	 1.709292	 -2.770312
H	 2.838835	 2.760720	 -2.543177
H	 3.213925	 1.575071	 -3.805381
H	 3.693426	 1.278232	 -2.125689

	symmetry c1
}
set optking {
	frozen_dihedral = ("
		9 5 8 12
	")
}

ee = optimize('scf')
oeprop('DIPOLE', 'QUADRUPOLE', 'MULLIKEN_CHARGES')
f=open( 'psi4out.xyz', 'w' )
f.write( "23  " )
f.write( str(ee) + "\n" )
f.write( MOL.save_string_xyz() )
f.close()
--------------------------------------------------------------------------

    Molecular point group: c1
  Charge       = 0
  Multiplicity = 1
  Basis Set: 6-31G*
  Basis Set:
  @DF-RHF Final Energy:  -422.97136945365435
    Total Energy =                       -422.9713694536537787
    Molecular point group: c1
  Basis Set: 6-31G*
  Basis Set:
  Basis Set: 6-31G*
  Basis Set:
  @DF-RHF Final Energy:  -422.97156582915187
    Total Energy =                       -422.9715658291524960
  Basis Set: 6-31G*
  Basis Set:
  Basis Set: 6-31G*
  Basis Set:
  @DF-RHF Final Energy:  -422.97150938316702
    Total Energy =                       -422.9715093831665627
  Basis Set: 6-31G*
  Basis Set:
  Basis Set: 6-31G*
  Basis Set:
  @DF-RHF Final Energy:  -422.97172342722297
    Total Energy =                       -422.9717234272227415
  Basis Set: 6-31G*
  Basis Set:
  Basis Set: 6-31G*
  Basis Set:
  @DF-RHF Final Energy:  -422.97171911835596
    Total Energy =                       -422.9717191183560772
  Basis Set: 6-31G*
  Basis Set:
  Basis Set: 6-31G*
  Basis Set:
  @DF-RHF Final Energy:  -422.97172766206359
    Total Energy =                       -422.9717276620636994
  Basis Set: 6-31G*
  Basis Set:
  Charge       = 0
  Multiplicity = 1
  Basis Set: 6-31G*
  Basis Set:

    Orbital Energies (a.u.)
    -----------------------

    Doubly Occupied:

       1A    -20.603591     2A    -20.545495     3A    -11.372040
       4A    -11.280832     5A    -11.235681     6A    -11.219143
       7A    -11.218082     8A    -11.217453     9A    -11.210211
      10A     -1.469265    11A     -1.362726    12A     -1.092243
      13A     -1.042826    14A     -0.986377    15A     -0.931637
      16A     -0.846366    17A     -0.794469    18A     -0.767022
      19A     -0.700625    20A     -0.682359    21A     -0.672362
      22A     -0.634936    23A     -0.623261    24A     -0.598479
      25A     -0.573531    26A     -0.558836    27A     -0.555136
      28A     -0.528332    29A     -0.520750    30A     -0.497990
      31A     -0.496416    32A     -0.470168    33A     -0.464522
      34A     -0.458556    35A     -0.452192    36A     -0.435808

  @DF-RHF Final Energy:  -422.97172781035823

   => Energetics <=

    Nuclear Repulsion Energy =            455.2488645023025242
    One-Electron Energy =               -1478.2017479028795606
    Two-Electron Energy =                 599.9811555902193732
    DFT Exchange-Correlation Energy =       0.0000000000000000
    Empirical Dispersion Energy =           0.0000000000000000
    PCM Polarization Energy =               0.0000000000000000
    EFP Energy =                            0.0000000000000000
    Total Energy =                       -422.9717278103577200
    Molecular point group: c1
  Basis Set: 6-31G*
  Basis Set:

  -Total Gradient:
     Atom            X                  Y                   Z
    ------   -----------------  -----------------  -----------------
       1        0.000000862582     0.000000668454    -0.000004637037
       2        0.000003363776    -0.000014903540     0.000009035830
       3       -0.000019210788     0.000004832488    -0.000014537166
       4       -0.000003306658     0.000017678615    -0.000003127769
       5        0.000242895105    -0.000454541259     0.003105044481
       6        0.000003060658    -0.000013465023     0.000003239558
       7        0.000012196922    -0.000006111427    -0.000001387468
       8        0.001383663305    -0.002501681017     0.001263833951
       9       -0.000447824941     0.000780250437    -0.002794265758
      10       -0.000016372333    -0.000008093749    -0.000007597305
      11        0.000007955151     0.000013351621     0.000005368510
      12       -0.001174047334     0.002176855362    -0.001567773194
      13        0.000012586522     0.000010355860     0.000006122579
      14       -0.000002198082    -0.000000816842     0.000001795042
      15        0.000004720801    -0.000002395016     0.000001022146
      16       -0.000010030832     0.000003427079     0.000001097243
      17       -0.000002212307     0.000002270988    -0.000001470167
      18       -0.000002424961    -0.000000793776     0.000002421106
      19        0.000001221163    -0.000002384957    -0.000003303755
      20        0.000005761460    -0.000008710427     0.000000381108
      21       -0.000002391729     0.000000299729     0.000000330766
      22        0.000000487370     0.000001938603    -0.000000448784
      23        0.000001245138     0.000001967796    -0.000001143916

  **** Optimization is complete! (in 7 steps) ****
    Final optimized geometry and variables:
    Molecular point group: c1

    Geometry (in Angstrom), charge = 0, multiplicity = 1:

    O            2.030751802086     0.979445287756     0.494539045533
    C            1.534704770215     0.402997573860    -0.419220303209
    C            0.243020856528    -0.376089740074    -0.368985413551
    O            2.069278391614     0.370354604207    -1.633481840284
    C           -0.410832279665    -0.381030097732     1.012118628544
    H           -0.420984347119     0.048462143109    -1.117416431634
    H            0.459523138204    -1.386176718280    -0.705176154493
    C           -1.764304192067    -1.120235279378     1.015576237803
    H           -0.551073418397     0.649433046725     1.320185432274
    H            0.274766048688    -0.825352899086     1.724000004725
    C           -2.967661221964    -0.172571793160     0.978207055501
    H           -1.828204728609    -1.779298402800     0.151998438127
    H           -1.841817496038    -1.753309620837     1.894849214004
    C           -4.305543714859    -0.908076932078     0.921917053681
    H           -2.882146317365     0.487069407082     0.116509990016
    H           -2.943909103658     0.469581139982     1.855532795754
    H           -4.376214275340    -1.527967975009     0.032435527351
    H           -5.137605521480    -0.211022055716     0.905898659369
    H           -4.433005358200    -1.555256399454     1.785202329450
    C            3.289306018461     1.065126579341    -1.817469227776
    H            3.163410476418     2.117067000674    -1.605111352729
    H            3.557166885275     0.922113757410    -2.852731707644
    H            4.057144287424     0.662095983957    -1.172870553662

  Mulliken Charges: (a.u.)
   Center  Symbol    Alpha    Beta     Spin     Total
       1     O     4.28599  4.28599  0.00000 -0.57197
       2     C     2.60584  2.60584  0.00000  0.78832
       3     C     3.20963  3.20963  0.00000 -0.41925
       4     O     4.30722  4.30722  0.00000 -0.61444
       5     C     3.15561  3.15561  0.00000 -0.31122
       6     H     0.40083  0.40083  0.00000  0.19833
       7     H     0.40027  0.40027  0.00000  0.19945
       8     C     3.15717  3.15717  0.00000 -0.31434
       9     H     0.40886  0.40886  0.00000  0.18227
      10     H     0.40944  0.40944  0.00000  0.18113
      11     C     3.15318  3.15318  0.00000 -0.30635
      12     H     0.42304  0.42304  0.00000  0.15392
      13     H     0.41780  0.41780  0.00000  0.16439
      14     C     3.24001  3.24001  0.00000 -0.48002
      15     H     0.42429  0.42429  0.00000  0.15141
      16     H     0.42010  0.42010  0.00000  0.15979
      17     H     0.42198  0.42198  0.00000  0.15605
      18     H     0.41854  0.41854  0.00000  0.16291
      19     H     0.42113  0.42113  0.00000  0.15775
      20     C     3.09245  3.09245  0.00000 -0.18489
      21     H     0.40910  0.40910  0.00000  0.18181
      22     H     0.40846  0.40846  0.00000  0.18308
      23     H     0.40907  0.40907  0.00000  0.18187

   Total alpha = 36.00000, Total beta = 36.00000, Total charge = -0.00000
