  ==> Input File <==

--------------------------------------------------------------------------
set {
	reference rhf
	basis cc-pvtz
}

set_num_threads( 4 )
memory 2 gb

molecule MOL {
0 1

O	 1.233127	 -2.494476	 1.121202
C	 0.364889	 -1.885004	 0.597193
C	 -1.069986	 -2.322101	 0.521446
O	 0.550743	 -0.719877	 0.000412
H	 -1.701309	 -1.577808	 0.989276
H	 -1.184914	 -3.272093	 1.017267
H	 -1.370283	 -2.403215	 -0.515221
C	 1.863204	 -0.194033	 0.000410
H	 2.031502	 0.409177	 -0.879273
H	 2.524488	 -1.045142	 0.000793
H	 2.031291	 0.409823	 0.879686

	symmetry c1
}
set optking {
	frozen_dihedral = ("
		2 4 8 9
	")
}

ee = optimize('scf')
oeprop('DIPOLE', 'QUADRUPOLE', 'MULLIKEN_CHARGES')
f=open( 'psi4out.xyz', 'w' )
f.write( "11  " )
f.write( str(ee) + "\n" )
f.write( MOL.save_string_xyz() )
f.close()
--------------------------------------------------------------------------

    Molecular point group: c1
  Charge       = 0
  Multiplicity = 1
  Basis Set: CC-PVTZ
  Basis Set:
  @DF-RHF Final Energy:  -266.93644275628554
    Total Energy =                       -266.9364427562853734
    Molecular point group: c1
  Basis Set: CC-PVTZ
  Basis Set:
  Basis Set: CC-PVTZ
  Basis Set:
  @DF-RHF Final Energy:  -266.93768225734198
    Total Energy =                       -266.9376822573419759
  Basis Set: CC-PVTZ
  Basis Set:
  Basis Set: CC-PVTZ
  Basis Set:
  @DF-RHF Final Energy:  -266.93802612363004
    Total Energy =                       -266.9380261236301521
  Basis Set: CC-PVTZ
  Basis Set:
  Basis Set: CC-PVTZ
  Basis Set:
  @DF-RHF Final Energy:  -266.93810054646974
    Total Energy =                       -266.9381005464696841
  Basis Set: CC-PVTZ
  Basis Set:
  Basis Set: CC-PVTZ
  Basis Set:
  @DF-RHF Final Energy:  -266.93811532300151
    Total Energy =                       -266.9381153230016253
  Basis Set: CC-PVTZ
  Basis Set:
  Charge       = 0
  Multiplicity = 1
  Basis Set: CC-PVTZ
  Basis Set:

    Orbital Energies (a.u.)
    -----------------------

    Doubly Occupied:

       1A    -20.598177     2A    -20.534857     3A    -11.369507
       4A    -11.279213     5A    -11.232897     6A     -1.472863
       7A     -1.367977     8A     -1.036990     9A     -0.953968
      10A     -0.779678    11A     -0.698704    12A     -0.683510
      13A     -0.681016    14A     -0.597699    15A     -0.592483
      16A     -0.561596    17A     -0.529548    18A     -0.521963
      19A     -0.460779    20A     -0.445780

  @DF-RHF Final Energy:  -266.93811546215471

   => Energetics <=

    Nuclear Repulsion Energy =            183.4506732204227433
    One-Electron Energy =                -727.9791646512267107
    Two-Electron Energy =                 277.5903759686491412
    DFT Exchange-Correlation Energy =       0.0000000000000000
    Empirical Dispersion Energy =           0.0000000000000000
    PCM Polarization Energy =               0.0000000000000000
    EFP Energy =                            0.0000000000000000
    Total Energy =                       -266.9381154621548831
    Molecular point group: c1
  Basis Set: CC-PVTZ
  Basis Set:

  -Total Gradient:
     Atom            X                  Y                   Z
    ------   -----------------  -----------------  -----------------
       1        0.000022300311     0.000109192383    -0.000043245004
       2        0.000259332854    -0.000691014717    -0.001245913508
       3       -0.000030333211     0.000006090622     0.000000006585
       4       -0.000187748226     0.000703957858     0.001609110811
       5        0.000008265487    -0.000003106415    -0.000003572429
       6        0.000000952977     0.000003852508    -0.000001383147
       7       -0.000022003130    -0.000003372198    -0.000006464464
       8       -0.000525065375     0.001191189710     0.000498559239
       9        0.000441585064    -0.001309206920    -0.000822656995
      10        0.000034431430    -0.000008781397     0.000005505795
      11       -0.000001718181     0.000001198566     0.000010053117

  **** Optimization is complete! (in 6 steps) ****
    Final optimized geometry and variables:
    Molecular point group: c1

    Geometry (in Angstrom), charge = 0, multiplicity = 1:

    O            0.609487548035    -1.004700972491     0.689741423354
    C           -0.241263583181    -0.378524829524     0.157405078555
    C           -1.680439367419    -0.797541329435     0.058409994945
    O           -0.040166031663     0.790731201489    -0.427723513035
    H           -2.308576377428    -0.048086726594     0.522214123496
    H           -1.814094847785    -1.748913909806     0.546828527845
    H           -1.967296045024    -0.868254863876    -0.982791895676
    C            1.272335876003     1.317735207956    -0.453988669608
    H            1.346033200399     1.911464380934    -1.351280552446
    H            2.002961517247     0.526212373478    -0.474301029225
    H            1.437329451386     1.936605189507     0.416808653357

  Mulliken Charges: (a.u.)
   Center  Symbol    Alpha    Beta     Spin     Total
       1     O     4.19697  4.19697  0.00000 -0.39395
       2     C     2.79967  2.79967  0.00000  0.40066
       3     C     3.13910  3.13910  0.00000 -0.27821
       4     O     4.14897  4.14897  0.00000 -0.29795
       5     H     0.44524  0.44524  0.00000  0.10952
       6     H     0.43792  0.43792  0.00000  0.12415
       7     H     0.44579  0.44579  0.00000  0.10843
       8     C     3.03433  3.03433  0.00000 -0.06865
       9     H     0.44814  0.44814  0.00000  0.10371
      10     H     0.44766  0.44766  0.00000  0.10469
      11     H     0.45621  0.45621  0.00000  0.08759

   Total alpha = 20.00000, Total beta = 20.00000, Total charge = -0.00000
