  ==> Input File <==

--------------------------------------------------------------------------
set {
	reference rhf
	basis 6-31G*
}

set_num_threads( 1 )
memory 2 gb

molecule MOL {
0 1

H	 -3.135461	 -1.215070	 0.001379
O	 -2.310168	 -0.871793	 -0.309793
C	 -2.026376	 0.340750	 0.341611
C	 -0.673256	 0.843270	 -0.132153
H	 -2.792215	 1.080697	 0.115987
H	 -2.013526	 0.200402	 1.421792
C	 0.486613	 -0.083066	 0.235839
H	 -0.715586	 0.970948	 -1.210718
H	 -0.508072	 1.829858	 0.297090
C	 0.359256	 -1.474052	 -0.387662
H	 0.542422	 -0.171196	 1.315946
H	 1.423344	 0.369936	 -0.086907
C	 1.521324	 -2.397910	 -0.024681
H	 -0.575548	 -1.927985	 -0.065478
H	 0.296342	 -1.382594	 -1.470307
H	 1.589012	 -2.537091	 1.050464
H	 1.403162	 -3.377197	 -0.478532
H	 2.468696	 -1.988273	 -0.364084

	symmetry c1
}
set optking {
	frozen_dihedral = ("
		14 10 7 11,
		2 3 4 8,
		1 2 3 4
	")
}

ee = energy('scf')
oeprop('DIPOLE', 'QUADRUPOLE', 'MULLIKEN_CHARGES')
f=open( 'psi4out.xyz', 'w' )
f.write( "18  " )
f.write( str(ee) + "\n" )
f.write( MOL.save_string_xyz() )
f.close()
--------------------------------------------------------------------------

    Molecular point group: c1

    Geometry (in Angstrom), charge = 0, multiplicity = 1:

       Center              X                  Y                   Z               Mass
    ------------   -----------------  -----------------  -----------------  -----------------
           H         -2.647618992259    -0.586072203224     0.047115926672     1.007825032070
           O         -1.822325992259    -0.242795203224    -0.264056073328    15.994914619560
           C         -1.538533992259     0.969747796776     0.387347926672    12.000000000000
           C         -0.185413992259     1.472267796776    -0.086416073328    12.000000000000
           H         -2.304372992259     1.709694796776     0.161723926672     1.007825032070
           H         -1.525683992259     0.829399796776     1.467528926672     1.007825032070
           C          0.974455007741     0.545931796776     0.281575926672    12.000000000000
           H         -0.227743992259     1.599945796776    -1.164981073328     1.007825032070
           H         -0.020229992259     2.458855796776     0.342826926672     1.007825032070
           C          0.847098007741    -0.845054203224    -0.341925073328    12.000000000000
           H          1.030264007741     0.457801796776     1.361682926672     1.007825032070
           H          1.911186007741     0.998933796776    -0.041170073328     1.007825032070
           C          2.009166007741    -1.768912203224     0.021055926672    12.000000000000
           H         -0.087705992259    -1.298987203224    -0.019741073328     1.007825032070
           H          0.784184007741    -0.753596203224    -1.424570073328     1.007825032070
           H          2.076854007741    -1.908093203224     1.096200926672     1.007825032070
           H          1.891004007741    -2.748199203224    -0.432795073328     1.007825032070
           H          2.956538007741    -1.359275203224    -0.318347073328     1.007825032070

  Charge       = 0
  Multiplicity = 1
  Basis Set: 6-31G*
  Basis Set:

    Orbital Energies (a.u.)
    -----------------------

    Doubly Occupied:

       1A    -20.555657     2A    -11.270377     3A    -11.212893
       4A    -11.206447     5A    -11.194795     6A    -11.191274
       7A     -1.365400     8A     -1.070915     9A     -1.002913
      10A     -0.910786    11A     -0.820564    12A     -0.773350
      13A     -0.705213    14A     -0.656738    15A     -0.610991
      16A     -0.570603    17A     -0.566361    18A     -0.554487
      19A     -0.533109    20A     -0.502157    21A     -0.489298
      22A     -0.457367    23A     -0.452081    24A     -0.442333
      25A     -0.416188

  @DF-RHF Final Energy:  -271.17117490601061

   => Energetics <=

    Nuclear Repulsion Energy =            258.6424585255791726
    One-Electron Energy =                -880.5625163817736620
    Two-Electron Energy =                 350.7488829501833720
    DFT Exchange-Correlation Energy =       0.0000000000000000
    Empirical Dispersion Energy =           0.0000000000000000
    PCM Polarization Energy =               0.0000000000000000
    EFP Energy =                            0.0000000000000000
    Total Energy =                       -271.1711749060111174

  Mulliken Charges: (a.u.)
   Center  Symbol    Alpha    Beta     Spin     Total
       1     H     0.28063  0.28063  0.00000  0.43874
       2     O     4.36760  4.36760  0.00000 -0.73520
       3     C     2.99813  2.99813  0.00000  0.00374
       4     C     3.16329  3.16329  0.00000 -0.32658
       5     H     0.42762  0.42762  0.00000  0.14476
       6     H     0.43202  0.43202  0.00000  0.13596
       7     C     3.15413  3.15413  0.00000 -0.30826
       8     H     0.41494  0.41494  0.00000  0.17011
       9     H     0.42151  0.42151  0.00000  0.15699
      10     C     3.15169  3.15169  0.00000 -0.30337
      11     H     0.42695  0.42695  0.00000  0.14609
      12     H     0.42291  0.42291  0.00000  0.15417
      13     C     3.23867  3.23867  0.00000 -0.47735
      14     H     0.39838  0.39838  0.00000  0.20324
      15     H     0.42605  0.42605  0.00000  0.14789
      16     H     0.42648  0.42648  0.00000  0.14705
      17     H     0.42198  0.42198  0.00000  0.15604
      18     H     0.42701  0.42701  0.00000  0.14598

   Total alpha = 25.00000, Total beta = 25.00000, Total charge =  0.00000
