  ==> Input File <==

--------------------------------------------------------------------------
set {
	reference rhf
	basis 6-31G*
}

set_num_threads( 4 )
memory 2 gb

molecule MOL {
0 1

H	 -2.503507	 -1.779076	 -2.741588
O	 -2.480513	 -1.411482	 -1.869665
C	 -1.177237	 -0.979964	 -1.573265
C	 -1.177863	 -0.397191	 -0.171080
H	 -0.475935	 -1.811298	 -1.631292
H	 -0.850634	 -0.227306	 -2.289628
C	 0.198102	 0.111031	 0.262842
H	 -1.528637	 -1.161767	 0.516749
H	 -1.903953	 0.410333	 -0.136790
C	 1.331804	 -0.827780	 -0.158768
H	 0.361943	 1.100838	 -0.156218
H	 0.217265	 0.229072	 1.345532
C	 2.723619	 -0.410569	 0.329459
H	 1.342964	 -0.912588	 -1.244120
H	 1.116806	 -1.824343	 0.220779
C	 3.243875	 0.895854	 -0.272975
H	 3.424222	 -1.207124	 0.091250
H	 2.714788	 -0.329854	 1.414619
H	 3.251977	 0.848779	 -1.358681
H	 2.637085	 1.747371	 0.016682
H	 4.259473	 1.094070	 0.055697

	symmetry c1
}
set optking {
	frozen_dihedral = ("
		8 4 7 10
	")
}

ee = optimize('scf')
oeprop('DIPOLE', 'QUADRUPOLE', 'MULLIKEN_CHARGES')
f=open( 'psi4out.xyz', 'w' )
f.write( "21  " )
f.write( str(ee) + "\n" )
f.write( MOL.save_string_xyz() )
f.close()
--------------------------------------------------------------------------

    Molecular point group: c1
  Charge       = 0
  Multiplicity = 1
  Basis Set: 6-31G*
  Basis Set:
  @DF-RHF Final Energy:  -310.20701860799346
    Total Energy =                       -310.2070186079935752
    Molecular point group: c1
  Basis Set: 6-31G*
  Basis Set:
  Basis Set: 6-31G*
  Basis Set:
  @DF-RHF Final Energy:  -310.20799860851673
    Total Energy =                       -310.2079986085168457
  Basis Set: 6-31G*
  Basis Set:
  Basis Set: 6-31G*
  Basis Set:
  @DF-RHF Final Energy:  -310.20920337020158
    Total Energy =                       -310.2092033702018625
  Basis Set: 6-31G*
  Basis Set:
  Basis Set: 6-31G*
  Basis Set:
  @DF-RHF Final Energy:  -310.20930345297387
    Total Energy =                       -310.2093034529740407
  Basis Set: 6-31G*
  Basis Set:
  Basis Set: 6-31G*
  Basis Set:
  @DF-RHF Final Energy:  -310.20931332456252
    Total Energy =                       -310.2093133245625154
  Basis Set: 6-31G*
  Basis Set:
  Basis Set: 6-31G*
  Basis Set:
  @DF-RHF Final Energy:  -310.20932354321371
    Total Energy =                       -310.2093235432134293
  Basis Set: 6-31G*
  Basis Set:
  Basis Set: 6-31G*
  Basis Set:
  @DF-RHF Final Energy:  -310.20932474320512
    Total Energy =                       -310.2093247432053431
  Basis Set: 6-31G*
  Basis Set:
  Charge       = 0
  Multiplicity = 1
  Basis Set: 6-31G*
  Basis Set:

    Orbital Energies (a.u.)
    -----------------------

    Doubly Occupied:

       1A    -20.551622     2A    -11.266869     3A    -11.216645
       4A    -11.215999     5A    -11.215447     6A    -11.210628
       7A    -11.209173     8A     -1.358410     9A     -1.086500
      10A     -1.031535    11A     -0.951005    12A     -0.885500
      13A     -0.815138    14A     -0.765945    15A     -0.695370
      16A     -0.656798    17A     -0.621430    18A     -0.607612
      19A     -0.593893    20A     -0.559177    21A     -0.546642
      22A     -0.516494    23A     -0.516011    24A     -0.494977
      25A     -0.478687    26A     -0.457018    27A     -0.451264
      28A     -0.445678    29A     -0.431152

  @DF-RHF Final Energy:  -310.20932497277130

   => Energetics <=

    Nuclear Repulsion Energy =            317.0513317818671908
    One-Electron Energy =               -1048.8160724181684600
    Two-Electron Energy =                 421.5554156635301979
    DFT Exchange-Correlation Energy =       0.0000000000000000
    Empirical Dispersion Energy =           0.0000000000000000
    PCM Polarization Energy =               0.0000000000000000
    EFP Energy =                            0.0000000000000000
    Total Energy =                       -310.2093249727710145
    Molecular point group: c1
  Basis Set: 6-31G*
  Basis Set:

  -Total Gradient:
     Atom            X                  Y                   Z
    ------   -----------------  -----------------  -----------------
       1       -0.000017642476    -0.000003632584    -0.000006468113
       2       -0.000001763760    -0.000018043096    -0.000026199090
       3       -0.000015473411    -0.000004653569     0.000031278335
       4        0.002627702049    -0.003692332546    -0.004453186381
       5       -0.000009672425    -0.000001204634    -0.000003134677
       6        0.000003192492     0.000001159265     0.000006017941
       7       -0.000854693959    -0.001346244186     0.005037051545
       8       -0.002000186328     0.003494078362     0.002494145887
       9        0.000002156407     0.000006240108    -0.000001758342
      10        0.000248119756     0.001559477230    -0.003094512735
      11        0.000002468525     0.000004615151     0.000005578540
      12        0.000015508215    -0.000009043516     0.000006580920
      13        0.000007374391     0.000002540219    -0.000018930713
      14        0.000006756039     0.000005390643     0.000016628818
      15       -0.000012280973     0.000000223656     0.000002867420
      16       -0.000004172155     0.000005612125     0.000010380232
      17        0.000001855887    -0.000005374305    -0.000003187930
      18        0.000001399834     0.000000482405    -0.000007623488
      19        0.000001856250    -0.000007222626     0.000005307781
      20       -0.000001143417     0.000005875085    -0.000004416816
      21       -0.000001360932     0.000002056815     0.000003580869

  **** Optimization is complete! (in 8 steps) ****
    Final optimized geometry and variables:
    Molecular point group: c1

    Geometry (in Angstrom), charge = 0, multiplicity = 1:

    H           -3.061594931730    -1.268632713895    -2.139920996252
    O           -2.957414932447    -0.868314463033    -1.288565154873
    C           -1.598347478381    -0.594091142370    -1.059778713086
    C           -1.478145568773    -0.001819568645     0.333594816455
    H           -1.010040134983    -1.503896499166    -1.147319591938
    H           -1.221019878943     0.112964558524    -1.798297589828
    C           -0.084708120877     0.525109368241     0.709713470258
    H           -1.822183541724    -0.724898352550     1.068215902911
    H           -2.185879814806     0.820531492406     0.392829200092
    C            1.083825522897    -0.398083332140     0.343873654200
    H            0.063065339771     1.487251799704     0.225574986563
    H           -0.069130016776     0.719904390320     1.779135784553
    C            2.437870434938     0.051284549388     0.905726432476
    H            1.163778415274    -0.482099605061    -0.737690164072
    H            0.875160609770    -1.400661409016     0.713488063611
    C            2.948776431617     1.380384444799     0.346303654817
    H            3.172290566275    -0.721796402486     0.693180284437
    H            2.372088360018     0.117215050313     1.989749056885
    H            3.010179501101     1.349669793103    -0.738411853564
    H            2.305047828341     2.210236297726     0.618009444760
    H            3.941633318146     1.601284299756     0.725879667919

  Mulliken Charges: (a.u.)
   Center  Symbol    Alpha    Beta     Spin     Total
       1     H     0.28129  0.28129  0.00000  0.43741
       2     O     4.37230  4.37230  0.00000 -0.74460
       3     C     2.99285  2.99285  0.00000  0.01429
       4     C     3.16071  3.16071  0.00000 -0.32141
       5     H     0.42983  0.42983  0.00000  0.14035
       6     H     0.43297  0.43297  0.00000  0.13406
       7     C     3.16088  3.16088  0.00000 -0.32177
       8     H     0.41561  0.41561  0.00000  0.16879
       9     H     0.41230  0.41230  0.00000  0.17540
      10     C     3.15789  3.15789  0.00000 -0.31578
      11     H     0.42068  0.42068  0.00000  0.15864
      12     H     0.41924  0.41924  0.00000  0.16152
      13     C     3.15185  3.15185  0.00000 -0.30370
      14     H     0.42413  0.42413  0.00000  0.15175
      15     H     0.42128  0.42128  0.00000  0.15744
      16     C     3.24157  3.24157  0.00000 -0.48314
      17     H     0.42101  0.42101  0.00000  0.15798
      18     H     0.42265  0.42265  0.00000  0.15469
      19     H     0.42287  0.42287  0.00000  0.15426
      20     H     0.41917  0.41917  0.00000  0.16166
      21     H     0.41892  0.41892  0.00000  0.16216

   Total alpha = 29.00000, Total beta = 29.00000, Total charge = -0.00000
