                              Psi4 1.0.54 Driver

  ==> Input File <==

--------------------------------------------------------------------------
set {
	reference rhf
	basis cc-pvtz
}

set_num_threads( 4 )
memory 2 gb

molecule MOL {
0 1

O	 -0.294688	 1.318815	 -0.000872
C	 -0.448732	 0.145721	 -0.000187
C	 -1.780748	 -0.548101	 0.000195
O	 0.550743	 -0.719877	 0.000412
H	 -1.859389	 -1.183260	 -0.872613
H	 -2.570236	 0.185547	 -0.001342
H	 -1.860233	 -1.180337	 0.875064
C	 0.267324	 -2.036440	 0.430995
H	 -0.086914	 -2.035269	 1.451065
H	 1.195886	 -2.578983	 0.359554
H	 -0.480421	 -2.491108	 -0.201600

	symmetry c1
}
set optking {
	frozen_dihedral = ("
		8 4 2 1
	")
}

ee,wfn = optimize('scf', return_wfn=True)
oeprop( wfn, 'DIPOLE', 'QUADRUPOLE', 'MULLIKEN_CHARGES')
f=open( 'psi4out.xyz', 'w' )
f.write( "11  " )
f.write( str(ee) + "\n" )
f.write( MOL.save_string_xyz() )
f.close()
--------------------------------------------------------------------------

    Molecular point group: c1
  Charge       = 0
  Multiplicity = 1
  Basis Set: CC-PVTZ
  Basis Set:
  @DF-RHF Final Energy:  -266.91597015795469
    Total Energy =                       -266.9159701579546891
    Molecular point group: c1
  Basis Set: CC-PVTZ
  Basis Set:
  Basis Set: CC-PVTZ
  Basis Set:
  @DF-RHF Final Energy:  -266.90977571713415
    Total Energy =                       -266.9097757171340390
  Basis Set: CC-PVTZ
  Basis Set:
  Basis Set: CC-PVTZ
  Basis Set:
  @DF-RHF Final Energy:  -266.92135073028794
    Total Energy =                       -266.9213507302879975
  Basis Set: CC-PVTZ
  Basis Set:
  Basis Set: CC-PVTZ
  Basis Set:
  @DF-RHF Final Energy:  -266.92398709778769
    Total Energy =                       -266.9239870977878581
  Basis Set: CC-PVTZ
  Basis Set:
  @DF-RHF Final Energy:  -266.92309659034561
    Total Energy =                       -266.9230965903455512
  @DF-RHF Final Energy:  -266.92391476187680
    Total Energy =                       -266.9239147618766879
  @DF-RHF Final Energy:  -266.92338780818523
    Total Energy =                       -266.9233878081850548
  Basis Set: CC-PVTZ
  Basis Set:
  @DF-RHF Final Energy:  -266.92448738746089
    Total Energy =                       -266.9244873874610562
  Basis Set: CC-PVTZ
  Basis Set:
  Basis Set: CC-PVTZ
  Basis Set:
  @DF-RHF Final Energy:  -266.92452091849367
    Total Energy =                       -266.9245209184934993
  Basis Set: CC-PVTZ
  Basis Set:
  Basis Set: CC-PVTZ
  Basis Set:
  @DF-RHF Final Energy:  -266.92452332970618
    Total Energy =                       -266.9245233297063464
  Basis Set: CC-PVTZ
  Basis Set:
  Charge       = 0
  Multiplicity = 1
  Basis Set: CC-PVTZ
  Basis Set:

    Orbital Energies (a.u.)
    -----------------------

    Doubly Occupied:

       1A    -20.596262     2A    -20.531263     3A    -11.370825
       4A    -11.295515     5A    -11.242642     6A     -1.468191
       7A     -1.370465     8A     -1.023446     9A     -0.985078
      10A     -0.785391    11A     -0.700660    12A     -0.689093
      13A     -0.681647    14A     -0.605907    15A     -0.595292
      16A     -0.578124    17A     -0.548503    18A     -0.516515
      19A     -0.454524    20A     -0.439925

  @DF-RHF Final Energy:  -266.92452369351616

   => Energetics <=

    Nuclear Repulsion Energy =            183.2790150963109568
    One-Electron Energy =                -727.4485445353889190
    Two-Electron Energy =                 277.2450057455617412
    DFT Exchange-Correlation Energy =       0.0000000000000000
    Empirical Dispersion Energy =           0.0000000000000000
    PCM Polarization Energy =               0.0000000000000000
    EFP Energy =                            0.0000000000000000
    Total Energy =                       -266.9245236935161643
    Molecular point group: c1
  Basis Set: CC-PVTZ
  Basis Set:

  -Total Gradient:
     Atom            X                  Y                   Z
    ------   -----------------  -----------------  -----------------
       1        0.000007458004    -0.000010181292     0.002268393688
       2        0.000267267356     0.000244654394    -0.002242431296
       3        0.000014950147     0.000001449721     0.000061194322
       4       -0.000712232672    -0.000761911900    -0.001915419030
       5        0.000020289201    -0.000002666189    -0.000017425401
       6       -0.000014278519     0.000007429748    -0.000006527919
       7       -0.000002872604    -0.000018511916    -0.000013746152
       8        0.000434449135     0.000552489513     0.001889614800
       9        0.000005477601    -0.000024751656    -0.000020687635
      10       -0.000016556318    -0.000000723990    -0.000002667606
      11       -0.000003951331     0.000012723566    -0.000000297772

  **** Optimization is complete! (in 10 steps) ****
    Final optimized geometry and variables:
    Molecular point group: c1

    Geometry (in Angstrom), charge = 0, multiplicity = 1:

    O            0.132495923415     1.669810211680    -0.087477641633
    C           -0.127699885013     0.520950659693    -0.083521892364
    C           -1.544482647910     0.002913685356    -0.108480005183
    O            0.859340503570    -0.373713173492    -0.078733885514
    H           -1.695732815849    -0.648682083130    -0.960039458419
    H           -2.209825793612     0.847191918963    -0.174613943397
    H           -1.769322626710    -0.561620868564     0.787426405187
    C            0.665354683692    -1.703541247268     0.332313088886
    H            0.318966045365    -1.751807176625     1.356751357686
    H            1.630498839814    -2.178572408284     0.267917618912
    H           -0.027620788455    -2.230299156013    -0.310205745093

  Mulliken Charges: (a.u.)
   Center  Symbol    Alpha    Beta     Spin     Total
       1     O     4.17814  4.17814  0.00000 -0.35628
       2     C     2.81147  2.81147  0.00000  0.37705
       3     C     3.16568  3.16568  0.00000 -0.33136
       4     O     4.12946  4.12946  0.00000 -0.25892
       5     H     0.44459  0.44459  0.00000  0.11081
       6     H     0.42635  0.42635  0.00000  0.14731
       7     H     0.44811  0.44811  0.00000  0.10378
       8     C     3.04243  3.04243  0.00000 -0.08485
       9     H     0.45863  0.45863  0.00000  0.08275
      10     H     0.43340  0.43340  0.00000  0.13319
      11     H     0.46174  0.46174  0.00000  0.07653

   Total alpha = 20.00000, Total beta = 20.00000, Total charge =  0.00000

*** Psi4 exiting successfully. Buy a developer a beer!
