                              Psi4 1.0.54 Driver

  ==> Input File <==

--------------------------------------------------------------------------
set {
	reference rhf
	basis cc-pvtz
}

set_num_threads( 4 )
memory 2 gb

molecule MOL {
0 1

H	 2.614283	 2.028610	 0.296620
O	 3.358864	 1.662087	 -0.142800
C	 3.565468	 0.338079	 0.273842
C	 2.533667	 -0.637565	 -0.272227
H	 4.548038	 0.064914	 -0.086598
H	 3.593945	 0.282242	 1.360360
C	 1.114816	 -0.402372	 0.240993
H	 2.544552	 -0.580764	 -1.356576
H	 2.850574	 -1.642962	 -0.005497
C	 0.044687	 -0.868037	 -0.745322
H	 0.979251	 0.653688	 0.449229
H	 0.981849	 -0.927250	 1.185509
C	 -1.396001	 -0.724239	 -0.251365
H	 0.159588	 -0.324063	 -1.679730
H	 0.224009	 -1.913445	 -0.980768
C	 -1.878357	 0.714446	 -0.074559
H	 -2.050825	 -1.223298	 -0.960360
H	 -1.507531	 -1.259021	 0.689232
C	 -3.349345	 0.806652	 0.323063
H	 -1.724298	 1.260153	 -1.002966
H	 -1.280169	 1.219325	 0.677950
C	 -3.833233	 2.241565	 0.504082
H	 -3.956508	 0.314793	 -0.431925
H	 -3.506601	 0.254822	 1.246002
H	 -3.719074	 2.811578	 -0.412046
H	 -4.880336	 2.271057	 0.783031
H	 -3.270315	 2.749932	 1.279993

	symmetry c1
}
set optking {
	frozen_dihedral = ("
		10 7 4 8
	")
}

ee,wfn = optimize('scf', return_wfn=True)
oeprop( wfn, 'DIPOLE', 'QUADRUPOLE', 'MULLIKEN_CHARGES')
f=open( 'psi4out.xyz', 'w' )
f.write( "27  " )
f.write( str(ee) + "\n" )
f.write( MOL.save_string_xyz() )
f.close()
--------------------------------------------------------------------------

    Molecular point group: c1
  Charge       = 0
  Multiplicity = 1
  Basis Set: CC-PVTZ
  Basis Set:
  @DF-RHF Final Energy:  -388.42511997112445
    Total Energy =                       -388.4251199711249001
    Molecular point group: c1
  Basis Set: CC-PVTZ
  Basis Set:
  Basis Set: CC-PVTZ
  Basis Set:
  @DF-RHF Final Energy:  -388.42472181830550
    Total Energy =                       -388.4247218183058976
  Basis Set: CC-PVTZ
  Basis Set:
  Basis Set: CC-PVTZ
  Basis Set:
  @DF-RHF Final Energy:  -388.42539758490676
    Total Energy =                       -388.4253975849068183
  Basis Set: CC-PVTZ
  Basis Set:
  Basis Set: CC-PVTZ
  Basis Set:
  @DF-RHF Final Energy:  -388.42543327373841
    Total Energy =                       -388.4254332737389177
  Basis Set: CC-PVTZ
  Basis Set:
  Basis Set: CC-PVTZ
  Basis Set:
  @DF-RHF Final Energy:  -388.42543227390280
    Total Energy =                       -388.4254322739028567
  Basis Set: CC-PVTZ
  Basis Set:
  Basis Set: CC-PVTZ
  Basis Set:
  @DF-RHF Final Energy:  -388.42544717566381
    Total Energy =                       -388.4254471756632938
  Basis Set: CC-PVTZ
  Basis Set:
  Charge       = 0
  Multiplicity = 1
  Basis Set: CC-PVTZ
  Basis Set:

    Orbital Energies (a.u.)
    -----------------------

    Doubly Occupied:

       1A    -20.545162     2A    -11.265271     3A    -11.217428
       4A    -11.214599     5A    -11.214107     6A    -11.213214
       7A    -11.213143     8A    -11.212211     9A    -11.207565
      10A     -1.363194    11A     -1.096011    12A     -1.062084
      13A     -1.012466    14A     -0.949711    15A     -0.888707
      16A     -0.821039    17A     -0.803142    18A     -0.778286
      19A     -0.694947    20A     -0.654425    21A     -0.641393
      22A     -0.614102    23A     -0.597816    24A     -0.584094
      25A     -0.581096    26A     -0.554394    27A     -0.540462
      28A     -0.536010    29A     -0.508842    30A     -0.492434
      31A     -0.486491    32A     -0.469792    33A     -0.469446
      34A     -0.461012    35A     -0.454678    36A     -0.441835
      37A     -0.426468

  @DF-RHF Final Energy:  -388.42544745025634

   => Energetics <=

    Nuclear Repulsion Energy =            461.2878509561310238
    One-Electron Energy =               -1440.8524398538370406
    Two-Electron Energy =                 591.1391414474494468
    DFT Exchange-Correlation Energy =       0.0000000000000000
    Empirical Dispersion Energy =           0.0000000000000000
    PCM Polarization Energy =               0.0000000000000000
    EFP Energy =                            0.0000000000000000
    Total Energy =                       -388.4254474502565699
    Molecular point group: c1
  Basis Set: CC-PVTZ
  Basis Set:

  -Total Gradient:
     Atom            X                  Y                   Z
    ------   -----------------  -----------------  -----------------
       1        0.000017935249    -0.000003116800     0.000006415956
       2       -0.000054599745    -0.000033500602     0.000029482265
       3        0.000070447762    -0.000057204217    -0.000015318914
       4        0.000816176492     0.005798898560    -0.000740052634
       5        0.000001880385     0.000009926746     0.000020162065
       6       -0.000015709884     0.000034944824    -0.000041608365
       7       -0.000151115433    -0.004340339432     0.002012912243
       8       -0.000669492291    -0.003877250306     0.000140115474
       9        0.000022513003     0.000006944402     0.000010915016
      10       -0.000011018432     0.002482920734    -0.001439515728
      11        0.000011184133    -0.000007524044    -0.000017656401
      12       -0.000019996257    -0.000014044979     0.000006801012
      13       -0.000009499224    -0.000009338996    -0.000000288675
      14       -0.000002708462     0.000004933794     0.000007438666
      15        0.000013864212     0.000007797623     0.000004202763
      16        0.000004658144     0.000002636222     0.000009748559
      17       -0.000007632885     0.000001165728     0.000001342999
      18       -0.000009418327     0.000003878108     0.000001241135
      19       -0.000000930654     0.000000368091     0.000005793112
      20        0.000003489755    -0.000006917107     0.000003671290
      21       -0.000004382988     0.000000132001    -0.000001147670
      22       -0.000000949348    -0.000006275268    -0.000006401482
      23       -0.000003170799    -0.000000293314     0.000001345842
      24       -0.000002007530     0.000003362123     0.000001788840
      25        0.000000974214     0.000000793398    -0.000000867764
      26       -0.000000750678     0.000000142377    -0.000000966815
      27        0.000000259591    -0.000003039663     0.000000447211

  **** Optimization is complete! (in 7 steps) ****
    Final optimized geometry and variables:
    Molecular point group: c1

    Geometry (in Angstrom), charge = 0, multiplicity = 1:

    H            2.625564534155     1.745198486499     0.062501413448
    O            3.379726609505     1.313853114896    -0.293091671998
    C            3.525050408752     0.037775030384     0.271634391603
    C            2.488521153240    -0.961459407535    -0.216258108937
    H            4.513094334764    -0.298476376994    -0.011994625390
    H            3.504999855180     0.098300683644     1.358090824255
    C            1.057121381323    -0.691639137336     0.262661295332
    H            2.516198072700    -1.007128792125    -1.300120110955
    H            2.792574912251    -1.948592236681     0.124228511532
    C           -0.001221502694    -1.256616543810    -0.683874684498
    H            0.898680637674     0.378347085113     0.356205709134
    H            0.922035981523    -1.103532902862     1.258952471855
    C           -1.442510531073    -1.149564393611    -0.183402301683
    H            0.086004381695    -0.756889924874    -1.645030968771
    H            0.220422904614    -2.304750780656    -0.867930297502
    C           -1.973319998700     0.275836846642    -0.041064664414
    H           -2.084165067946    -1.690078265460    -0.873753170265
    H           -1.529229186554    -1.661760329357     0.772130070034
    C           -3.446871147233     0.327979652978     0.354093641901
    H           -1.836998672947     0.804466157385    -0.982108914306
    H           -1.393315186466     0.817625287964     0.700060502676
    C           -3.978485836323     1.749545032010     0.503104404418
    H           -4.036514217895    -0.200455656812    -0.389906182617
    H           -3.586433351415    -0.208124204069     1.288990580405
    H           -3.882676923984     2.302549209703    -0.425453538299
    H           -5.026185568692     1.750335410415     0.781164958351
    H           -3.433594217407     2.293456747740     1.267689470594

  Mulliken Charges: (a.u.)
   Center  Symbol    Alpha    Beta     Spin     Total
       1     H     0.39202  0.39202  0.00000  0.21596
       2     O     4.20497  4.20497  0.00000 -0.40993
       3     C     2.98001  2.98001  0.00000  0.03998
       4     C     3.09108  3.09108  0.00000 -0.18216
       5     H     0.44762  0.44762  0.00000  0.10476
       6     H     0.47040  0.47040  0.00000  0.05920
       7     C     3.09616  3.09616  0.00000 -0.19233
       8     H     0.45197  0.45197  0.00000  0.09606
       9     H     0.45411  0.45411  0.00000  0.09177
      10     C     3.09802  3.09802  0.00000 -0.19605
      11     H     0.46581  0.46581  0.00000  0.06839
      12     H     0.45130  0.45130  0.00000  0.09740
      13     C     3.09795  3.09795  0.00000 -0.19589
      14     H     0.45074  0.45074  0.00000  0.09853
      15     H     0.44733  0.44733  0.00000  0.10534
      16     C     3.08889  3.08889  0.00000 -0.17777
      17     H     0.44802  0.44802  0.00000  0.10395
      18     H     0.45356  0.45356  0.00000  0.09288
      19     C     3.08395  3.08395  0.00000 -0.16791
      20     H     0.45389  0.45389  0.00000  0.09222
      21     H     0.45536  0.45536  0.00000  0.08929
      22     C     3.14972  3.14972  0.00000 -0.29943
      23     H     0.45361  0.45361  0.00000  0.09278
      24     H     0.45458  0.45458  0.00000  0.09084
      25     H     0.45489  0.45489  0.00000  0.09022
      26     H     0.44816  0.44816  0.00000  0.10368
      27     H     0.45589  0.45589  0.00000  0.08823

   Total alpha = 37.00000, Total beta = 37.00000, Total charge =  0.00000

*** Psi4 exiting successfully. Buy a developer a beer!
