  ==> Input File <==

--------------------------------------------------------------------------
set {
	reference rhf
	basis 6-31G*
}

set_num_threads( 4 )
memory 2 gb

molecule MOL {
0 1

H	 -3.261111	 -0.295142	 1.469456
C	 -3.306842	 -0.277400	 0.373456
C	 -2.660244	 0.921717	 -0.272021
O	 -3.838538	 -1.161155	 -0.216482
C	 -1.805637	 0.545106	 -1.490243
H	 -3.437703	 1.629928	 -0.534136
H	 -2.025105	 1.386681	 0.481014
C	 -2.623679	 0.006552	 -2.666706
H	 -1.252955	 1.424354	 -1.807656
H	 -1.059478	 -0.190788	 -1.194498
C	 -1.760479	 -0.353778	 -3.877435
H	 -3.363018	 0.750462	 -2.956228
H	 -3.186534	 -0.870876	 -2.353889
C	 -2.583386	 -0.876870	 -5.057753
H	 -1.193111	 0.523149	 -4.178806
H	 -1.029302	 -1.107228	 -3.587473
C	 -1.754024	 -1.328670	 -6.265274
H	 -3.288286	 -0.109374	 -5.373601
H	 -3.183853	 -1.717960	 -4.717577
C	 -0.994494	 -0.204270	 -6.971291
H	 -2.421055	 -1.801297	 -6.981962
H	 -1.051641	 -2.098428	 -5.952144
H	 -1.670414	 0.588280	 -7.281558
H	 -0.236982	 0.237927	 -6.332846
H	 -0.493459	 -0.576848	 -7.859629

	symmetry c1
}
set optking {
	frozen_dihedral = ("
		6 3 2 4
	")
}

ee = optimize('scf')
oeprop('DIPOLE', 'QUADRUPOLE', 'MULLIKEN_CHARGES')
f=open( 'psi4out.xyz', 'w' )
f.write( "25  " )
f.write( str(ee) + "\n" )
f.write( MOL.save_string_xyz() )
f.close()
--------------------------------------------------------------------------

    Molecular point group: c1
  Charge       = 0
  Multiplicity = 1
  Basis Set: 6-31G*
  Basis Set:
  @DF-RHF Final Energy:  -387.11784616670758
    Total Energy =                       -387.1178461667076363
    Molecular point group: c1
  Basis Set: 6-31G*
  Basis Set:
  Basis Set: 6-31G*
  Basis Set:
  @DF-RHF Final Energy:  -387.11964718950850
    Total Energy =                       -387.1196471895082141
  Basis Set: 6-31G*
  Basis Set:
  Basis Set: 6-31G*
  Basis Set:
  @DF-RHF Final Energy:  -387.11978466486750
    Total Energy =                       -387.1197846648667564
  Basis Set: 6-31G*
  Basis Set:
  Basis Set: 6-31G*
  Basis Set:
  @DF-RHF Final Energy:  -387.11984606928661
    Total Energy =                       -387.1198460692861545
  Basis Set: 6-31G*
  Basis Set:
  @DF-RHF Final Energy:  -387.11987680399511
    Total Energy =                       -387.1198768039948845
  @DF-RHF Final Energy:  -387.11989754951418
    Total Energy =                       -387.1198975495140076
  @DF-RHF Final Energy:  -387.11991479599902
    Total Energy =                       -387.1199147959989659
  @DF-RHF Final Energy:  -387.11995272218775
    Total Energy =                       -387.1199527221880317
  Basis Set: 6-31G*
  Basis Set:
  @DF-RHF Final Energy:  -387.11997397001039
    Total Energy =                       -387.1199739700101645
  Basis Set: 6-31G*
  Basis Set:
  Basis Set: 6-31G*
  Basis Set:
  @DF-RHF Final Energy:  -387.11997209741600
    Total Energy =                       -387.1199720974151433
  Basis Set: 6-31G*
  Basis Set:
  Basis Set: 6-31G*
  Basis Set:
  @DF-RHF Final Energy:  -387.11997417976374
    Total Energy =                       -387.1199741797632896
  Basis Set: 6-31G*
  Basis Set:
  Charge       = 0
  Multiplicity = 1
  Basis Set: 6-31G*
  Basis Set:

    Orbital Energies (a.u.)
    -----------------------

    Doubly Occupied:

       1A    -20.564322     2A    -11.329337     3A    -11.237020
       4A    -11.227014     5A    -11.212651     6A    -11.211059
       7A    -11.210194     8A    -11.209897     9A    -11.206373
      10A     -1.404554    11A     -1.094133    12A     -1.062854
      13A     -1.008478    14A     -0.940428    15A     -0.874127
      16A     -0.812709    17A     -0.778231    18A     -0.770093
      19A     -0.683496    20A     -0.654370    21A     -0.628465
      22A     -0.611747    23A     -0.601776    24A     -0.588453
      25A     -0.559824    26A     -0.553530    27A     -0.536302
      28A     -0.512891    29A     -0.504118    30A     -0.497249
      31A     -0.479217    32A     -0.472782    33A     -0.457496
      34A     -0.452286    35A     -0.436323    36A     -0.406273

  @DF-RHF Final Energy:  -387.11997499664835

   => Energetics <=

    Nuclear Repulsion Energy =            443.0714911605649604
    One-Electron Energy =               -1402.8027904886716897
    Two-Electron Energy =                 572.6113243314583769
    DFT Exchange-Correlation Energy =       0.0000000000000000
    Empirical Dispersion Energy =           0.0000000000000000
    PCM Polarization Energy =               0.0000000000000000
    EFP Energy =                            0.0000000000000000
    Total Energy =                       -387.1199749966483523
    Molecular point group: c1
  Basis Set: 6-31G*
  Basis Set:

  -Total Gradient:
     Atom            X                  Y                   Z
    ------   -----------------  -----------------  -----------------
       1        0.000000200333     0.000002105563    -0.000001020241
       2        0.002960552805    -0.001595475890    -0.000334100266
       3       -0.000787086958     0.001843559184     0.002113933905
       4       -0.002060860047     0.000929217377    -0.000021581842
       5        0.000009281120     0.000006501321     0.000003119797
       6       -0.000110672205    -0.001177637151    -0.001757955269
       7        0.000001404700    -0.000000045022     0.000001595440
       8       -0.000004267287     0.000022464716    -0.000012621232
       9        0.000003886397    -0.000002018968     0.000005431971
      10       -0.000002211513     0.000001653275     0.000006181152
      11        0.000000805400    -0.000022349233     0.000003477733
      12       -0.000009486780    -0.000002358068     0.000002864318
      13        0.000001885599    -0.000008261495    -0.000008805554
      14       -0.000001260236     0.000002988117    -0.000005859381
      15       -0.000000051380    -0.000001852081    -0.000005181198
      16        0.000002321118    -0.000001456104     0.000007684612
      17       -0.000001842750     0.000007153468    -0.000002460252
      18       -0.000003840144    -0.000001197374     0.000003753378
      19        0.000004084821    -0.000004398905    -0.000004245590
      20       -0.000000817196    -0.000001670867    -0.000001266462
      21       -0.000000817263    -0.000001113626    -0.000000143182
      22       -0.000000785966     0.000003345794     0.000002729248
      23       -0.000000174737     0.000001065675     0.000000886891
      24       -0.000000089790    -0.000000773945     0.000004913146
      25       -0.000000158041     0.000000554238    -0.000001331126

  **** Optimization is complete! (in 12 steps) ****
    Final optimized geometry and variables:
    Molecular point group: c1

    Geometry (in Angstrom), charge = 0, multiplicity = 1:

    H           -0.854329082193     0.194146582597     4.532547317611
    C           -0.867755249297     0.057871670887     3.445378127000
    C           -0.334266745851     1.219854931920     2.636136285764
    O           -1.316171841041    -0.942072141965     2.984167357746
    C            0.506723243151     0.819564711347     1.412824409806
    H           -1.198065411399     1.795900223643     2.306480530251
    H            0.238557101209     1.862121308918     3.298008628581
    C           -0.309214313885     0.319617580025     0.217993599080
    H            1.083326207307     1.689344169974     1.108124563713
    H            1.229102627741     0.061865915570     1.706141082378
    C            0.568127164046    -0.039917776578    -0.983018832845
    H           -1.016640633842     1.094775403287    -0.074641555738
    H           -0.896259912960    -0.541003622361     0.514871666229
    C           -0.246558611373    -0.520210777987    -2.187121086109
    H            1.167149098239     0.824549742665    -1.259663823867
    H            1.270685679792    -0.820002801132    -0.693243974798
    C            0.591214910814    -0.984007593910    -3.384188429533
    H           -0.918653273284     0.274634042595    -2.507396213146
    H           -0.881579426919    -1.344429595280    -1.869880835193
    C            1.405368845810     0.122343757210    -4.057632798520
    H           -0.076168556913    -1.423219047829    -4.121682559413
    H            1.259336870062    -1.782258363612    -3.067292601676
    H            0.764278815830     0.940962351004    -4.374039791806
    H            2.161321813300     0.531176753813    -3.395400135322
    H            1.915262900196    -0.255876246472    -4.938451342979

  Mulliken Charges: (a.u.)
   Center  Symbol    Alpha    Beta     Spin     Total
       1     H     0.42706  0.42706  0.00000  0.14589
       2     C     2.84140  2.84140  0.00000  0.31720
       3     C     3.20918  3.20918  0.00000 -0.41836
       4     O     4.23600  4.23600  0.00000 -0.47201
       5     C     3.15373  3.15373  0.00000 -0.30745
       6     H     0.40122  0.40122  0.00000  0.19756
       7     H     0.41217  0.41217  0.00000  0.17565
       8     C     3.15748  3.15748  0.00000 -0.31497
       9     H     0.41818  0.41818  0.00000  0.16363
      10     H     0.41658  0.41658  0.00000  0.16683
      11     C     3.15521  3.15521  0.00000 -0.31041
      12     H     0.42714  0.42714  0.00000  0.14571
      13     H     0.39925  0.39925  0.00000  0.20150
      14     C     3.15269  3.15269  0.00000 -0.30538
      15     H     0.42396  0.42396  0.00000  0.15208
      16     H     0.42329  0.42329  0.00000  0.15342
      17     C     3.15236  3.15236  0.00000 -0.30472
      18     H     0.42507  0.42507  0.00000  0.14985
      19     H     0.41974  0.41974  0.00000  0.16052
      20     C     3.24097  3.24097  0.00000 -0.48195
      21     H     0.42112  0.42112  0.00000  0.15777
      22     H     0.42318  0.42318  0.00000  0.15365
      23     H     0.42279  0.42279  0.00000  0.15442
      24     H     0.42060  0.42060  0.00000  0.15880
      25     H     0.41962  0.41962  0.00000  0.16076

   Total alpha = 36.00000, Total beta = 36.00000, Total charge =  0.00000
