                              Psi4 1.0.54 Driver

  ==> Input File <==

--------------------------------------------------------------------------
set {
	reference rhf
	basis cc-pvtz
}

set_num_threads( 4 )
memory 2 gb

molecule MOL {
0 1

H	 3.721907	 -0.933076	 -0.066039
O	 2.824271	 -1.154299	 0.131461
C	 2.076458	 -0.067370	 -0.038225
C	 0.626018	 -0.337582	 0.258241
O	 2.538288	 0.965419	 -0.381593
C	 -0.267326	 0.883135	 0.076490
H	 0.325620	 -1.161483	 -0.378003
H	 0.574537	 -0.713685	 1.275261
C	 -1.726822	 0.642622	 0.463839
H	 -0.210803	 1.217591	 -0.953497
H	 0.129920	 1.693110	 0.675679
C	 -2.107075	 1.097779	 1.871774
H	 -1.925992	 -0.421568	 0.379662
H	 -2.378549	 1.128511	 -0.259078
C	 -3.542988	 0.737870	 2.239329
H	 -1.427585	 0.644366	 2.588534
H	 -1.979082	 2.171419	 1.965957
H	 -3.786372	 1.069371	 3.242103
H	 -3.700203	 -0.334627	 2.197707
H	 -4.248819	 1.200823	 1.557691

	symmetry c1
}
set optking {
	frozen_dihedral = ("
		12 9 6 10
	")
}

ee,wfn = optimize('scf', return_wfn=True)
oeprop( wfn, 'DIPOLE', 'QUADRUPOLE', 'MULLIKEN_CHARGES')
f=open( 'psi4out.xyz', 'w' )
f.write( "20  " )
f.write( str(ee) + "\n" )
f.write( MOL.save_string_xyz() )
f.close()
--------------------------------------------------------------------------

    Molecular point group: c1
  Charge       = 0
  Multiplicity = 1
  Basis Set: CC-PVTZ
  Basis Set:
  @DF-RHF Final Energy:  -384.09212037155623
    Total Energy =                       -384.0921203715557795
    Molecular point group: c1
  Basis Set: CC-PVTZ
  Basis Set:
  Basis Set: CC-PVTZ
  Basis Set:
  @DF-RHF Final Energy:  -384.09260875073608
    Total Energy =                       -384.0926087507361899
  Basis Set: CC-PVTZ
  Basis Set:
  Basis Set: CC-PVTZ
  Basis Set:
  @DF-RHF Final Energy:  -384.09240469950345
    Total Energy =                       -384.0924046995039021
  Basis Set: CC-PVTZ
  Basis Set:
  Basis Set: CC-PVTZ
  Basis Set:
  @DF-RHF Final Energy:  -384.09268324802201
    Total Energy =                       -384.0926832480220128
  Basis Set: CC-PVTZ
  Basis Set:
  Basis Set: CC-PVTZ
  Basis Set:
  @DF-RHF Final Energy:  -384.09268344231032
    Total Energy =                       -384.0926834423097489
  Basis Set: CC-PVTZ
  Basis Set:
  Basis Set: CC-PVTZ
  Basis Set:
  @DF-RHF Final Energy:  -384.09268687536127
    Total Energy =                       -384.0926868753614372
  Basis Set: CC-PVTZ
  Basis Set:
  Charge       = 0
  Multiplicity = 1
  Basis Set: CC-PVTZ
  Basis Set:

    Orbital Energies (a.u.)
    -----------------------

    Doubly Occupied:

       1A    -20.603999     2A    -20.540655     3A    -11.373450
       4A    -11.239556     5A    -11.220486     6A    -11.218369
       7A    -11.217758     8A    -11.209890     9A     -1.477555
      10A     -1.369097    11A     -1.096380    12A     -1.043088
      13A     -0.960693    14A     -0.870371    15A     -0.811679
      16A     -0.786306    17A     -0.703784    18A     -0.692714
      19A     -0.665802    20A     -0.635505    21A     -0.605921
      22A     -0.595546    23A     -0.573960    24A     -0.558858
      25A     -0.542808    26A     -0.504810    27A     -0.500330
      28A     -0.484527    29A     -0.473519    30A     -0.468926
      31A     -0.456322    32A     -0.445182

  @DF-RHF Final Energy:  -384.09268695659034

   => Energetics <=

    Nuclear Repulsion Energy =            375.0217559912787237
    One-Electron Energy =               -1266.3331895327751226
    Two-Electron Energy =                 507.2187465849056025
    DFT Exchange-Correlation Energy =       0.0000000000000000
    Empirical Dispersion Energy =           0.0000000000000000
    PCM Polarization Energy =               0.0000000000000000
    EFP Energy =                            0.0000000000000000
    Total Energy =                       -384.0926869565907964
    Molecular point group: c1
  Basis Set: CC-PVTZ
  Basis Set:

  -Total Gradient:
     Atom            X                  Y                   Z
    ------   -----------------  -----------------  -----------------
       1       -0.000000555091    -0.000000079115    -0.000000171460
       2        0.000013901434    -0.000014457040     0.000002455819
       3       -0.000016860377     0.000032431881    -0.000006802775
       4        0.000004269198     0.000000468881     0.000005295568
       5       -0.000002851705    -0.000018771381     0.000004904417
       6        0.000197720806    -0.003128221945    -0.001629681082
       7       -0.000000450403     0.000001442523    -0.000001074452
       8        0.000000901521    -0.000000593040    -0.000001498888
       9        0.000840723257    -0.002271154818     0.001489830057
      10       -0.000375230287     0.003210650627     0.001021892806
      11       -0.000000191724     0.000001152692     0.000000662269
      12       -0.000657232948     0.002180380104    -0.000883853582
      13       -0.000000005280     0.000000955151     0.000000437771
      14        0.000001078965     0.000000814149    -0.000001797893
      15       -0.000009466579     0.000004886351    -0.000000895909
      16        0.000001698485     0.000002351431     0.000003820874
      17       -0.000003208594    -0.000004216503    -0.000001407968
      18        0.000001424975    -0.000000226192    -0.000001643110
      19        0.000005266061     0.000003416705    -0.000000411996
      20       -0.000000931713    -0.000001230458    -0.000000060467

  **** Optimization is complete! (in 7 steps) ****
    Final optimized geometry and variables:
    Molecular point group: c1

    Geometry (in Angstrom), charge = 0, multiplicity = 1:

    H            3.644552544079    -1.201591071307    -0.612273295174
    O            2.749906390834    -1.433245820730    -0.413070906017
    C            1.986165079163    -0.360275922471    -0.599548824688
    C            0.539334955656    -0.647330137675    -0.302123465778
    O            2.432260766434     0.674659900732    -0.957175383795
    C           -0.379818974143     0.547392937068    -0.513594124236
    H            0.245488074760    -1.485116243316    -0.925640926887
    H            0.490486027846    -1.008608690216     0.720069650373
    C           -1.840298568665     0.255704020066    -0.133032508082
    H           -0.315330576022     0.882369458778    -1.540894665756
    H           -0.012011670056     1.379997966765     0.074799746789
    C           -2.209346210706     0.713055100854     1.277140740929
    H           -2.050237422679    -0.805337556670    -0.239308920417
    H           -2.497963292849     0.759331145049    -0.834352102821
    C           -3.648061868456     0.380671365033     1.656680993144
    H           -1.534198021919     0.259910731616     1.998927433519
    H           -2.054360550507     1.785297815499     1.349399851710
    H           -3.882007355744     0.732105382219     2.654913204331
    H           -3.822406214840    -0.689930099102     1.633582906188
    H           -4.349747420264     0.843121400962     0.970397349323

  Mulliken Charges: (a.u.)
   Center  Symbol    Alpha    Beta     Spin     Total
       1     H     0.38237  0.38237  0.00000  0.23526
       2     O     4.16024  4.16024  0.00000 -0.32049
       3     C     2.80521  2.80521  0.00000  0.38958
       4     C     3.10834  3.10834  0.00000 -0.21669
       5     O     4.19122  4.19122  0.00000 -0.38244
       6     C     3.09471  3.09471  0.00000 -0.18942
       7     H     0.43709  0.43709  0.00000  0.12583
       8     H     0.43799  0.43799  0.00000  0.12403
       9     C     3.09912  3.09912  0.00000 -0.19824
      10     H     0.43933  0.43933  0.00000  0.12135
      11     H     0.44646  0.44646  0.00000  0.10709
      12     C     3.08145  3.08145  0.00000 -0.16290
      13     H     0.45610  0.45610  0.00000  0.08781
      14     H     0.44520  0.44520  0.00000  0.10959
      15     C     3.15059  3.15059  0.00000 -0.30118
      16     H     0.45583  0.45583  0.00000  0.08835
      17     H     0.45174  0.45174  0.00000  0.09653
      18     H     0.44769  0.44769  0.00000  0.10462
      19     H     0.45500  0.45500  0.00000  0.09000
      20     H     0.45433  0.45433  0.00000  0.09134

   Total alpha = 32.00000, Total beta = 32.00000, Total charge = -0.00000

*** Psi4 exiting successfully. Buy a developer a beer!
