  ==> Input File <==

--------------------------------------------------------------------------
set {
	reference rhf
	basis cc-pvtz
}

set_num_threads( 4 )
memory 2 gb

molecule MOL {
0 1

H	 3.459101	 0.139266	 -0.762951
C	 2.749156	 -0.051729	 0.031265
C	 1.322304	 0.099773	 -0.484271
H	 2.929445	 -1.053887	 0.403481
H	 2.954281	 0.646699	 0.834672
C	 0.308557	 -0.162619	 0.622645
H	 1.143368	 -0.594400	 -1.295960
H	 1.169532	 1.100095	 -0.870217
N	 -1.069352	 -0.004081	 0.085342
H	 0.371632	 -1.172932	 0.991288
H	 0.400391	 0.548875	 1.426218
O	 -1.519754	 -0.911931	 -0.529088
O	 -1.613243	 1.030384	 0.282842

	symmetry c1
}
set optking {
	frozen_dihedral = ("
		12 9 6 3
	")
}

ee = optimize('scf')
oeprop('DIPOLE', 'QUADRUPOLE', 'MULLIKEN_CHARGES')
f=open( 'psi4out.xyz', 'w' )
f.write( "13  " )
f.write( str(ee) + "\n" )
f.write( MOL.save_string_xyz() )
f.close()
--------------------------------------------------------------------------

    Molecular point group: c1
  Charge       = 0
  Multiplicity = 1
  Basis Set: CC-PVTZ
  Basis Set:
  @DF-RHF Final Energy:  -321.86150060419993
    Total Energy =                       -321.8615006042001596
    Molecular point group: c1
  Basis Set: CC-PVTZ
  Basis Set:
  Basis Set: CC-PVTZ
  Basis Set:
  @DF-RHF Final Energy:  -321.86142676662388
    Total Energy =                       -321.8614267666241631
  Basis Set: CC-PVTZ
  Basis Set:
  Basis Set: CC-PVTZ
  Basis Set:
  @DF-RHF Final Energy:  -321.86146122750341
    Total Energy =                       -321.8614612275032982
  Basis Set: CC-PVTZ
  Basis Set:
  Basis Set: CC-PVTZ
  Basis Set:
  @DF-RHF Final Energy:  -321.86151110001526
    Total Energy =                       -321.8615111000150932
  Basis Set: CC-PVTZ
  Basis Set:
  Charge       = 0
  Multiplicity = 1
  Basis Set: CC-PVTZ
  Basis Set:

    Orbital Energies (a.u.)
    -----------------------

    Doubly Occupied:

       1A    -20.591252     2A    -20.589561     3A    -15.836968
       4A    -11.297307     5A    -11.254066     6A    -11.237194
       7A     -1.636013     8A     -1.420324     9A     -1.134264
      10A     -1.027894    11A     -0.884085    12A     -0.834284
      13A     -0.761662    14A     -0.738816    15A     -0.727675
      16A     -0.673210    17A     -0.604206    18A     -0.588270
      19A     -0.551445    20A     -0.520753    21A     -0.514606
      22A     -0.486996    23A     -0.475130    24A     -0.452979

  @DF-RHF Final Energy:  -321.86151136584203

   => Energetics <=

    Nuclear Repulsion Energy =            248.0070139653695378
    One-Electron Energy =                -930.0591322002103425
    Two-Electron Energy =                 360.1906068689985432
    DFT Exchange-Correlation Energy =       0.0000000000000000
    Empirical Dispersion Energy =           0.0000000000000000
    PCM Polarization Energy =               0.0000000000000000
    EFP Energy =                            0.0000000000000000
    Total Energy =                       -321.8615113658422615
    Molecular point group: c1
  Basis Set: CC-PVTZ
  Basis Set:

  -Total Gradient:
     Atom            X                  Y                   Z
    ------   -----------------  -----------------  -----------------
       1        0.000000921505     0.000000947134    -0.000000652625
       2       -0.000003551398     0.000008509188     0.000001424109
       3        0.000004355325    -0.000137152205    -0.000037286547
       4        0.000000768738    -0.000001282549    -0.000002162529
       5       -0.000000882606    -0.000003568479     0.000000870053
       6        0.000020988526     0.000200087379    -0.000004699599
       7       -0.000002519507    -0.000001622868    -0.000001377713
       8       -0.000000405023    -0.000002140435     0.000003518745
       9       -0.000078762031    -0.000249718205     0.000158449868
      10        0.000008162294     0.000000988526     0.000000213261
      11       -0.000003256448     0.000002540938    -0.000002130419
      12        0.000085889610     0.000132346130    -0.000121193060
      13       -0.000031708990     0.000050065441     0.000005026455

  **** Optimization is complete! (in 5 steps) ****
    Final optimized geometry and variables:
    Molecular point group: c1

    Geometry (in Angstrom), charge = 0, multiplicity = 1:

    H            3.461022552655     0.135997411703    -0.763104330347
    C            2.750230925002    -0.052060535699     0.031056567894
    C            1.323906667975     0.096003963966    -0.487078181029
    H            2.930476765678    -1.052772474217     0.407326712615
    H            2.954441558938     0.649393161603     0.832041788669
    C            0.309487366400    -0.164365903919     0.619377835597
    H            1.145774060960    -0.599108895484    -1.297227875406
    H            1.171641789392     1.096103049314    -0.875476274984
    N           -1.069713071988    -0.002777011131     0.085647714342
    H            0.370495573011    -1.177465076208     0.982803695931
    H            0.402873023132     0.540955025854     1.427522361664
    O           -1.520527217207    -0.911527189452    -0.527921934440
    O           -1.615361438211     1.029942212665     0.285402464741

  Mulliken Charges: (a.u.)
   Center  Symbol    Alpha    Beta     Spin     Total
       1     H     0.44166  0.44166  0.00000  0.11668
       2     C     3.15110  3.15110  0.00000 -0.30219
       3     C     3.09606  3.09606  0.00000 -0.19212
       4     H     0.45164  0.45164  0.00000  0.09672
       5     H     0.45161  0.45161  0.00000  0.09678
       6     C     3.03941  3.03941  0.00000 -0.07882
       7     H     0.43630  0.43630  0.00000  0.12740
       8     H     0.43972  0.43972  0.00000  0.12055
       9     N     3.27608  3.27608  0.00000  0.44783
      10     H     0.43531  0.43531  0.00000  0.12938
      11     H     0.43402  0.43402  0.00000  0.13197
      12     O     4.17495  4.17495  0.00000 -0.34990
      13     O     4.17214  4.17214  0.00000 -0.34428

   Total alpha = 24.00000, Total beta = 24.00000, Total charge =  0.00000
