                              Psi4 1.0.54 Driver

  ==> Input File <==

--------------------------------------------------------------------------
set {
	reference rhf
	basis cc-pvtz
}

set_num_threads( 4 )
memory 2 gb

molecule MOL {
0 1

O	 -2.088113	 1.800309	 -0.225453
C	 -1.986963	 0.618724	 -0.296558
C	 -0.763837	 -0.025265	 -0.918883
C	 -3.056001	 -0.301445	 0.243084
C	 0.376695	 -0.140025	 0.100361
H	 -0.450206	 0.598609	 -1.746245
H	 -1.012015	 -1.007472	 -1.306881
C	 1.630207	 -0.772146	 -0.501001
H	 0.595373	 0.850739	 0.478242
H	 0.050272	 -0.734464	 0.950296
C	 2.907848	 -0.545876	 0.309149
H	 1.772784	 -0.391628	 -1.509394
H	 1.468529	 -1.842059	 -0.599744
C	 3.373802	 0.906639	 0.372125
H	 3.699140	 -1.146831	 -0.127906
H	 2.764321	 -0.923458	 1.318191
H	 3.519798	 1.311927	 -0.623875
H	 4.316899	 0.983758	 0.900700
H	 2.661122	 1.540651	 0.885346
H	 -3.534202	 -0.816435	 -0.584024
H	 -3.793995	 0.265669	 0.789266
H	 -2.620565	 -1.060073	 0.883763

	symmetry c1
}
set optking {
	frozen_dihedral = ("
		3 5 8 12
	")
}

ee,wfn = optimize('scf', return_wfn=True)
oeprop( wfn, 'DIPOLE', 'QUADRUPOLE', 'MULLIKEN_CHARGES')
f=open( 'psi4out.xyz', 'w' )
f.write( "22  " )
f.write( str(ee) + "\n" )
f.write( MOL.save_string_xyz() )
f.close()
--------------------------------------------------------------------------

    Molecular point group: c1
  Charge       = 0
  Multiplicity = 1
  Basis Set: CC-PVTZ
  Basis Set:
  @DF-RHF Final Energy:  -348.22215850533559
    Total Energy =                       -348.2221585053355852
    Molecular point group: c1
  Basis Set: CC-PVTZ
  Basis Set:
  Basis Set: CC-PVTZ
  Basis Set:
  @DF-RHF Final Energy:  -348.22168612159555
    Total Energy =                       -348.2216861215955532
  Basis Set: CC-PVTZ
  Basis Set:
  Basis Set: CC-PVTZ
  Basis Set:
  @DF-RHF Final Energy:  -348.22227400881911
    Total Energy =                       -348.2222740088189994
  Basis Set: CC-PVTZ
  Basis Set:
  Basis Set: CC-PVTZ
  Basis Set:
  @DF-RHF Final Energy:  -348.22234681828007
    Total Energy =                       -348.2223468182800161
  Basis Set: CC-PVTZ
  Basis Set:
  @DF-RHF Final Energy:  -348.22176465150494
    Total Energy =                       -348.2217646515053957
  @DF-RHF Final Energy:  -348.22239350310218
    Total Energy =                       -348.2223935031024666
  Basis Set: CC-PVTZ
  Basis Set:
  @DF-RHF Final Energy:  -348.22240588455270
    Total Energy =                       -348.2224058845522450
  Basis Set: CC-PVTZ
  Basis Set:
  Basis Set: CC-PVTZ
  Basis Set:
  @DF-RHF Final Energy:  -348.22239600720746
    Total Energy =                       -348.2223960072072941
  Basis Set: CC-PVTZ
  Basis Set:
  Basis Set: CC-PVTZ
  Basis Set:
  @DF-RHF Final Energy:  -348.22240816064908
    Total Energy =                       -348.2224081606487971
  Basis Set: CC-PVTZ
  Basis Set:
  Charge       = 0
  Multiplicity = 1
  Basis Set: CC-PVTZ
  Basis Set:

    Orbital Energies (a.u.)
    -----------------------

    Doubly Occupied:

       1A    -20.536807     2A    -11.319216     3A    -11.228076
       4A    -11.227480     5A    -11.226847     6A    -11.220635
       7A    -11.219101     8A    -11.209121     9A     -1.396845
      10A     -1.096930    11A     -1.045669    12A     -1.000134
      13A     -0.939190    14A     -0.857561    15A     -0.788780
      16A     -0.734298    17A     -0.662483    18A     -0.648108
      19A     -0.627494    20A     -0.622670    21A     -0.599465
      22A     -0.579314    23A     -0.567186    24A     -0.544090
      25A     -0.534616    26A     -0.515900    27A     -0.502995
      28A     -0.490231    29A     -0.471356    30A     -0.464313
      31A     -0.462032    32A     -0.398455

  @DF-RHF Final Energy:  -348.22240829146591

   => Energetics <=

    Nuclear Repulsion Energy =            373.7057123863232277
    One-Electron Energy =               -1212.3814441358881595
    Two-Electron Energy =                 490.4533234580989074
    DFT Exchange-Correlation Energy =       0.0000000000000000
    Empirical Dispersion Energy =           0.0000000000000000
    PCM Polarization Energy =               0.0000000000000000
    EFP Energy =                            0.0000000000000000
    Total Energy =                       -348.2224082914659675
    Molecular point group: c1
  Basis Set: CC-PVTZ
  Basis Set:

  -Total Gradient:
     Atom            X                  Y                   Z
    ------   -----------------  -----------------  -----------------
       1        0.000007167594     0.000011853077     0.000005033897
       2       -0.000002267908    -0.000020867872     0.000021976222
       3        0.000768224289     0.002008820493    -0.000596464636
       4       -0.000022617616     0.000016168361    -0.000035254663
       5       -0.001474558658    -0.003330947109     0.000528884060
       6        0.000001779990     0.000000432685    -0.000002069716
       7        0.000002268390     0.000001741305    -0.000001962336
       8        0.002452449639     0.003620154516     0.001204324007
       9        0.000003254477     0.000001045212     0.000003538763
      10        0.000001521162    -0.000001086257    -0.000004025842
      11        0.000000879447     0.000007949277     0.000003843224
      12       -0.001748989391    -0.002299436385    -0.001142515030
      13       -0.000003457681    -0.000003975237    -0.000002809934
      14       -0.000000064936    -0.000003568028    -0.000003680534
      15       -0.000005356436     0.000003101272    -0.000001172392
      16        0.000000681598    -0.000003270414     0.000001073053
      17        0.000001586813     0.000002938540     0.000002721092
      18       -0.000000290976     0.000001997828    -0.000000093494
      19        0.000000395743    -0.000004686528    -0.000001475860
      20        0.000005277605    -0.000008827290     0.000007892985
      21        0.000001216425     0.000000777021     0.000004627526
      22        0.000010900424    -0.000000314462     0.000007609610

  **** Optimization is complete! (in 10 steps) ****
    Final optimized geometry and variables:
    Molecular point group: c1

    Geometry (in Angstrom), charge = 0, multiplicity = 1:

    O           -2.171987609901     1.614176156555    -0.092624384991
    C           -2.051724672051     0.436049191931    -0.187647478835
    C           -0.817198140900    -0.175136400609    -0.819524408593
    C           -3.108112915545    -0.511684160226     0.328639099711
    C            0.315449487123    -0.312821080401     0.205762828319
    H           -0.499249408016     0.478978209670    -1.620781117883
    H           -1.054306723999    -1.145530366615    -1.244025122798
    C            1.565922688979    -0.964753626605    -0.387417402945
    H            0.544088041690     0.678032464253     0.578103953534
    H           -0.018671287898    -0.894218492027     1.060517481534
    C            2.833937892836    -0.792417670352     0.449682440745
    H            1.729790801209    -0.588864877464    -1.394036484264
    H            1.370657905785    -2.027254843110    -0.507366612799
    C            3.410176927842     0.621395947135     0.444080558575
    H            3.589022490127    -1.475714350757     0.074223130855
    H            2.632112137902    -1.098646161714     1.472908269816
    H            3.648432533037     0.938339225998    -0.565881684486
    H            4.322775417290     0.665727563208     1.027196589625
    H            2.721944056377     1.345236745295     0.863060218170
    H           -3.581497403276    -1.008840536229    -0.512025290338
    H           -3.852117064460     0.031409099620     0.890837976665
    H           -2.663203140807    -1.282719408627     0.947505540613

  Mulliken Charges: (a.u.)
   Center  Symbol    Alpha    Beta     Spin     Total
       1     O     4.17755  4.17755  0.00000 -0.35511
       2     C     2.85841  2.85841  0.00000  0.28318
       3     C     3.09865  3.09865  0.00000 -0.19730
       4     C     3.15486  3.15486  0.00000 -0.30971
       5     C     3.10403  3.10403  0.00000 -0.20806
       6     H     0.43872  0.43872  0.00000  0.12257
       7     H     0.44878  0.44878  0.00000  0.10244
       8     C     3.09784  3.09784  0.00000 -0.19567
       9     H     0.43990  0.43990  0.00000  0.12020
      10     H     0.44962  0.44962  0.00000  0.10077
      11     C     3.09039  3.09039  0.00000 -0.18078
      12     H     0.45253  0.45253  0.00000  0.09494
      13     H     0.44843  0.44843  0.00000  0.10315
      14     C     3.14959  3.14959  0.00000 -0.29919
      15     H     0.44742  0.44742  0.00000  0.10515
      16     H     0.45459  0.45459  0.00000  0.09082
      17     H     0.45435  0.45435  0.00000  0.09131
      18     H     0.44683  0.44683  0.00000  0.10635
      19     H     0.45232  0.45232  0.00000  0.09536
      20     H     0.44830  0.44830  0.00000  0.10340
      21     H     0.43608  0.43608  0.00000  0.12785
      22     H     0.45083  0.45083  0.00000  0.09835

   Total alpha = 32.00000, Total beta = 32.00000, Total charge = -0.00000

*** Psi4 exiting successfully. Buy a developer a beer!
