                              Psi4 1.0.54 Driver

  ==> Input File <==

--------------------------------------------------------------------------
set {
	reference rhf
	basis cc-pvtz
}

set_num_threads( 4 )
memory 2 gb

molecule MOL {
0 1

O	 0.915906	 4.408838	 0.511136
C	 -0.152979	 4.851790	 0.778324
C	 -1.408142	 4.003119	 0.765894
C	 -0.332332	 6.305877	 1.152070
C	 -1.181511	 2.547653	 0.382374
H	 -1.862180	 4.075780	 1.751611
H	 -2.115551	 4.474789	 0.087584
C	 -2.471996	 1.732939	 0.383379
H	 -0.466776	 2.106591	 1.067745
H	 -0.720232	 2.505996	 -0.597739
C	 -2.258482	 0.271340	 0.000669
H	 -2.930311	 1.781258	 1.368716
H	 -3.184752	 2.182227	 -0.304647
C	 -3.544441	 -0.550271	 -0.000253
H	 -1.546337	 -0.178700	 0.688003
H	 -1.801107	 0.221975	 -0.984470
C	 -4.804551	 0.308747	 0.000556
H	 -3.553737	 -1.201524	 -0.870151
H	 -3.553831	 -1.203282	 0.868313
H	 -4.842050	 0.949078	 -0.874436
H	 -5.698404	 -0.304480	 -0.000254
H	 -4.842277	 0.947103	 0.876982
H	 -0.764534	 6.386762	 2.143386
H	 0.621396	 6.810129	 1.129202
H	 -1.016539	 6.787506	 0.462188

	symmetry c1
}
set optking {
	frozen_dihedral = ("
		15 11 14 18
	")
}

ee,wfn = optimize('scf', return_wfn=True)
oeprop( wfn, 'DIPOLE', 'QUADRUPOLE', 'MULLIKEN_CHARGES')
f=open( 'psi4out.xyz', 'w' )
f.write( "25  " )
f.write( str(ee) + "\n" )
f.write( MOL.save_string_xyz() )
f.close()
--------------------------------------------------------------------------

    Molecular point group: c1
  Charge       = 0
  Multiplicity = 1
  Basis Set: CC-PVTZ
  Basis Set:
  @DF-RHF Final Energy:  -387.26224614641774
    Total Energy =                       -387.2622461464178514
    Molecular point group: c1
  Basis Set: CC-PVTZ
  Basis Set:
  Basis Set: CC-PVTZ
  Basis Set:
  @DF-RHF Final Energy:  -387.08208224658785
    Total Energy =                       -387.0820822465873334
  Basis Set: CC-PVTZ
  Basis Set:
  Basis Set: CC-PVTZ
  Basis Set:
  @DF-RHF Final Energy:  -387.20368916959734
    Total Energy =                       -387.2036891695968279
  Basis Set: CC-PVTZ
  Basis Set:
  Basis Set: CC-PVTZ
  Basis Set:
  @DF-RHF Final Energy:  -387.26075457588098
    Total Energy =                       -387.2607545758804690
  Basis Set: CC-PVTZ
  Basis Set:
  @DF-RHF Final Energy:  -387.26535553118032
    Total Energy =                       -387.2653555311803757
  @DF-RHF Final Energy:  -387.26581898984136
    Total Energy =                       -387.2658189898410228
  @DF-RHF Final Energy:  -387.26428405620015
    Total Energy =                       -387.2642840561999265
  Basis Set: CC-PVTZ
  Basis Set:
  @DF-RHF Final Energy:  -387.26586167434795
    Total Energy =                       -387.2658616743476614
  Basis Set: CC-PVTZ
  Basis Set:
  Basis Set: CC-PVTZ
  Basis Set:
  @DF-RHF Final Energy:  -387.26589721821125
    Total Energy =                       -387.2658972182109665
  Basis Set: CC-PVTZ
  Basis Set:
  Basis Set: CC-PVTZ
  Basis Set:
  @DF-RHF Final Energy:  -387.26590831409675
    Total Energy =                       -387.2659083140968050
  Basis Set: CC-PVTZ
  Basis Set:
  Charge       = 0
  Multiplicity = 1
  Basis Set: CC-PVTZ
  Basis Set:

    Orbital Energies (a.u.)
    -----------------------

    Doubly Occupied:

       1A    -20.538739     2A    -11.320367     3A    -11.229947
       4A    -11.226482     5A    -11.214659     6A    -11.214342
       7A    -11.213973     8A    -11.212137     9A    -11.207033
      10A     -1.398771    11A     -1.093790    12A     -1.054642
      13A     -1.013991    14A     -0.967558    15A     -0.897664
      16A     -0.827438    17A     -0.772468    18A     -0.730081
      19A     -0.662288    20A     -0.653800    21A     -0.631523
      22A     -0.626619    23A     -0.600046    24A     -0.594475
      25A     -0.561096    26A     -0.557258    27A     -0.548405
      28A     -0.522984    29A     -0.512175    30A     -0.494495
      31A     -0.494097    32A     -0.479055    33A     -0.457481
      34A     -0.452366    35A     -0.450914    36A     -0.401264

  @DF-RHF Final Energy:  -387.26590875776333

   => Energetics <=

    Nuclear Repulsion Energy =            444.1964777027740183
    One-Electron Energy =               -1405.2559297338748365
    Two-Electron Energy =                 573.7935432733374910
    DFT Exchange-Correlation Energy =       0.0000000000000000
    Empirical Dispersion Energy =           0.0000000000000000
    PCM Polarization Energy =               0.0000000000000000
    EFP Energy =                            0.0000000000000000
    Total Energy =                       -387.2659087577633272
    Molecular point group: c1
  Basis Set: CC-PVTZ
  Basis Set:

  -Total Gradient:
     Atom            X                  Y                   Z
    ------   -----------------  -----------------  -----------------
       1        0.000013704627    -0.000017958342    -0.000002434941
       2       -0.000034868742     0.000051557013    -0.000049439760
       3        0.000048456381    -0.000045788163     0.000060351446
       4       -0.000013360107    -0.000043209640     0.000063189259
       5       -0.000040049615     0.000039558244    -0.000032820456
       6        0.000010273213     0.000004503093    -0.000032670269
       7       -0.000008236675     0.000025055586    -0.000021378266
       8        0.000016009603    -0.000044477775     0.000076255082
       9       -0.000003763784    -0.000011880177     0.000004370747
      10       -0.000001784702    -0.000000394111     0.000015984235
      11        0.004033459057    -0.001531644648    -0.004703016278
      12        0.000023176994     0.000006875982     0.000010755098
      13       -0.000026025034     0.000005130552    -0.000012025431
      14        0.001613449369    -0.004267515838     0.004364193402
      15       -0.003682497713     0.001937548290     0.003298228175
      16        0.000000030872    -0.000000735345     0.000018855636
      17        0.000031059172    -0.000009905066    -0.000028452418
      18       -0.001993812393     0.003891249743    -0.002998622320
      19        0.000013039923    -0.000017896972     0.000006352815
      20       -0.000009354397    -0.000013678222    -0.000002307470
      21       -0.000002917544     0.000025170375     0.000020051402
      22        0.000006593446     0.000003917654    -0.000007665791
      23        0.000010706292     0.000010943913    -0.000027573491
      24       -0.000004286462    -0.000005335660    -0.000011185623
      25        0.000000998223     0.000008909513    -0.000008994782

  **** Optimization is complete! (in 11 steps) ****
    Final optimized geometry and variables:
    Molecular point group: c1

    Geometry (in Angstrom), charge = 0, multiplicity = 1:

    O            2.189284310359     1.886958263534     1.295303345551
    C            1.044461191771     2.199341424795     1.252651978402
    C           -0.019228072682     1.301165077229     0.654471960827
    C            0.569171670399     3.527262707463     1.797747881209
    C            0.502519193920    -0.025264841590     0.120409324137
    H           -0.777166928629     1.138470554612     1.417354213052
    H           -0.517970988137     1.864013013101    -0.131418789911
    C           -0.603861255463    -0.894677678851    -0.471939502166
    H            1.003420276052    -0.558100441793     0.920642161892
    H            1.261111290374     0.167608961104    -0.629698340280
    C           -0.066200621004    -2.223607223494    -1.007884273413
    H           -1.355275299612    -1.084936235973     0.290406283518
    H           -1.103940643813    -0.344343176280    -1.262674069364
    C           -1.109129201270    -3.205843739868    -1.593981010482
    H            0.428855040155    -2.710035558475    -0.173630069396
    H            0.695406511673    -2.012285568152    -1.750538474562
    C           -2.446374716733    -2.603287057486    -2.029673040049
    H           -0.681448791253    -3.668220932953    -2.476993714668
    H           -1.303548323133    -3.999158904007    -0.881380214864
    H           -2.313305814304    -1.841871909151    -2.790338133246
    H           -3.078642052152    -3.376311766359    -2.451589304725
    H           -2.986025326093    -2.156135956575    -1.204018953216
    H           -0.171230287560     3.369690400902     2.574188846974
    H            1.405263848789     4.078816273743     2.199227316565
    H            0.094340131034     4.104993731177     1.012326080954

  Mulliken Charges: (a.u.)
   Center  Symbol    Alpha    Beta     Spin     Total
       1     O     4.17099  4.17099  0.00000 -0.34199
       2     C     2.86221  2.86221  0.00000  0.27558
       3     C     3.11308  3.11308  0.00000 -0.22616
       4     C     3.15125  3.15125  0.00000 -0.30250
       5     C     3.08359  3.08359  0.00000 -0.16717
       6     H     0.44575  0.44575  0.00000  0.10850
       7     H     0.44583  0.44583  0.00000  0.10834
       8     C     3.09250  3.09250  0.00000 -0.18500
       9     H     0.44581  0.44581  0.00000  0.10838
      10     H     0.44631  0.44631  0.00000  0.10738
      11     C     3.09826  3.09826  0.00000 -0.19653
      12     H     0.45493  0.45493  0.00000  0.09015
      13     H     0.45296  0.45296  0.00000  0.09407
      14     C     3.08785  3.08785  0.00000 -0.17570
      15     H     0.45075  0.45075  0.00000  0.09849
      16     H     0.45012  0.45012  0.00000  0.09976
      17     C     3.15808  3.15808  0.00000 -0.31617
      18     H     0.45093  0.45093  0.00000  0.09814
      19     H     0.45110  0.45110  0.00000  0.09781
      20     H     0.45376  0.45376  0.00000  0.09247
      21     H     0.44443  0.44443  0.00000  0.11115
      22     H     0.45332  0.45332  0.00000  0.09336
      23     H     0.45042  0.45042  0.00000  0.09915
      24     H     0.43537  0.43537  0.00000  0.12925
      25     H     0.45038  0.45038  0.00000  0.09924

   Total alpha = 36.00000, Total beta = 36.00000, Total charge = -0.00000

*** Psi4 exiting successfully. Buy a developer a beer!
