  ==> Input File <==

--------------------------------------------------------------------------
set {
	reference rhf
	basis cc-pvtz
}

set_num_threads( 4 )
memory 2 gb

molecule MOL {
0 1

H	 1.948074	 1.547831	 -0.650744
O	 1.070726	 1.196990	 -0.680882
C	 1.050374	 0.054877	 0.000135
C	 -0.318151	 -0.570512	 0.000144
O	 2.014897	 -0.380872	 0.527189
C	 -1.454884	 0.441630	 -0.000560
H	 -0.371613	 -1.223646	 -0.864985
H	 -0.371920	 -1.222758	 0.865929
C	 -2.822577	 -0.232186	 0.000063
H	 -1.359760	 1.084704	 -0.867077
H	 -1.359641	 1.085996	 0.864983
H	 -2.954352	 -0.858985	 -0.875745
H	 -3.615886	 0.505352	 0.000019
H	 -2.953878	 -0.858359	 0.876394

	symmetry c1
}
set optking {
	frozen_dihedral = ("
		2 3 4 7
	")
}

ee = optimize('scf')
oeprop('DIPOLE', 'QUADRUPOLE', 'MULLIKEN_CHARGES')
f=open( 'psi4out.xyz', 'w' )
f.write( "14  " )
f.write( str(ee) + "\n" )
f.write( MOL.save_string_xyz() )
f.close()
--------------------------------------------------------------------------

    Molecular point group: c1
  Charge       = 0
  Multiplicity = 1
  Basis Set: CC-PVTZ
  Basis Set:
  @DF-RHF Final Energy:  -305.99825566639691
    Total Energy =                       -305.9982556663968012
    Molecular point group: c1
  Basis Set: CC-PVTZ
  Basis Set:
  Basis Set: CC-PVTZ
  Basis Set:
  @DF-RHF Final Energy:  -305.99861196651239
    Total Energy =                       -305.9986119665123852
  Basis Set: CC-PVTZ
  Basis Set:
  Basis Set: CC-PVTZ
  Basis Set:
  @DF-RHF Final Energy:  -305.99883981552557
    Total Energy =                       -305.9988398155254572
  Basis Set: CC-PVTZ
  Basis Set:
  Basis Set: CC-PVTZ
  Basis Set:
  @DF-RHF Final Energy:  -305.99891309203906
    Total Energy =                       -305.9989130920389471
  Basis Set: CC-PVTZ
  Basis Set:
  Basis Set: CC-PVTZ
  Basis Set:
  @DF-RHF Final Energy:  -305.99891712936426
    Total Energy =                       -305.9989171293644858
  Basis Set: CC-PVTZ
  Basis Set:
  Basis Set: CC-PVTZ
  Basis Set:
  @DF-RHF Final Energy:  -305.99892035180380
    Total Energy =                       -305.9989203518039744
  Basis Set: CC-PVTZ
  Basis Set:
  Charge       = 0
  Multiplicity = 1
  Basis Set: CC-PVTZ
  Basis Set:

    Orbital Energies (a.u.)
    -----------------------

    Doubly Occupied:

       1A    -20.606224     2A    -20.538088     3A    -11.373888
       4A    -11.239674     5A    -11.229798     6A    -11.218233
       7A     -1.478681     8A     -1.368279     9A     -1.086797
      10A     -0.979895    11A     -0.848931    12A     -0.819557
      13A     -0.704103    14A     -0.685328    15A     -0.662599
      16A     -0.623166    17A     -0.594114    18A     -0.565810
      19A     -0.551380    20A     -0.525273    21A     -0.499390
      22A     -0.490709    23A     -0.474824    24A     -0.440260

  @DF-RHF Final Energy:  -305.99892037117161

   => Energetics <=

    Nuclear Repulsion Energy =            240.8576710202860340
    One-Electron Energy =                -894.5031813141374641
    Two-Electron Energy =                 347.6465899226797092
    DFT Exchange-Correlation Energy =       0.0000000000000000
    Empirical Dispersion Energy =           0.0000000000000000
    PCM Polarization Energy =               0.0000000000000000
    EFP Energy =                            0.0000000000000000
    Total Energy =                       -305.9989203711717209
    Molecular point group: c1
  Basis Set: CC-PVTZ
  Basis Set:

  -Total Gradient:
     Atom            X                  Y                   Z
    ------   -----------------  -----------------  -----------------
       1        0.000002512564     0.000005766907    -0.000002052075
       2       -0.000154571004     0.000397735129     0.000637914829
       3        0.000295975328    -0.000694743011    -0.000761174562
       4       -0.000415167933     0.000961204962    -0.000356964792
       5       -0.000016030112     0.000021146997    -0.000012974430
       6       -0.000004381121     0.000001351084     0.000016344545
       7        0.000298697021    -0.000694339784     0.000484758114
       8       -0.000004562582     0.000000954347    -0.000001354354
       9       -0.000000021373     0.000000475521    -0.000008457774
      10       -0.000002992223    -0.000003434327     0.000003626260
      11       -0.000000726897     0.000003845087     0.000001774641
      12       -0.000000875165    -0.000003584636    -0.000000118543
      13        0.000000855309    -0.000000368300    -0.000002430134
      14        0.000001288194     0.000003990021     0.000001108275

  **** Optimization is complete! (in 7 steps) ****
    Final optimized geometry and variables:
    Molecular point group: c1

    Geometry (in Angstrom), charge = 0, multiplicity = 1:

    H            2.085806598572     1.404522963063    -0.586265923730
    O            1.187793593392     1.110580867868    -0.620844292744
    C            1.102441133165    -0.041674029291     0.035047283984
    C           -0.279508628855    -0.642522769953     0.022117713254
    O            2.043112036827    -0.538787399489     0.552299122584
    C           -1.440175736599     0.349176237707     0.014619267593
    H           -0.322696152911    -1.279152676011    -0.857758049089
    H           -0.331589583252    -1.301019282966     0.878290007709
    C           -2.789831967101    -0.359203654623     0.051502775141
    H           -1.377986969402     0.975782043720    -0.865443904553
    H           -1.354075345632     1.010713160959     0.870501756038
    H           -2.916163230302    -1.006956639961    -0.809580934359
    H           -3.602217924861     0.357339760578     0.048046804570
    H           -2.890433642612    -0.969997802950     0.942114171992

  Mulliken Charges: (a.u.)
   Center  Symbol    Alpha    Beta     Spin     Total
       1     H     0.38159  0.38159  0.00000  0.23682
       2     O     4.15742  4.15742  0.00000 -0.31484
       3     C     2.81221  2.81221  0.00000  0.37557
       4     C     3.09109  3.09109  0.00000 -0.18219
       5     O     4.19480  4.19480  0.00000 -0.38959
       6     C     3.08704  3.08704  0.00000 -0.17409
       7     H     0.44372  0.44372  0.00000  0.11256
       8     H     0.43518  0.43518  0.00000  0.12963
       9     C     3.15084  3.15084  0.00000 -0.30169
      10     H     0.44357  0.44357  0.00000  0.11285
      11     H     0.44901  0.44901  0.00000  0.10197
      12     H     0.45448  0.45448  0.00000  0.09103
      13     H     0.44552  0.44552  0.00000  0.10896
      14     H     0.45350  0.45350  0.00000  0.09300

   Total alpha = 24.00000, Total beta = 24.00000, Total charge = -0.00000
