  ==> Input File <==

--------------------------------------------------------------------------
set {
	reference rhf
	basis 6-31G*
}

set_num_threads( 4 )
memory 2 gb

molecule MOL {
0 1

H	 2.460150	 -1.023336	 0.675890
N	 2.434251	 -0.367735	 -0.081097
C	 1.267428	 0.496480	 0.024474
H	 2.398626	 -0.903978	 -0.927317
C	 -0.016086	 -0.325158	 -0.029487
H	 1.288818	 1.183521	 -0.816092
H	 1.267576	 1.109062	 0.929528
C	 -1.282277	 0.529072	 0.046735
H	 -0.012495	 -0.908639	 -0.945788
H	 -0.015903	 -1.041248	 0.791956
C	 -2.563920	 -0.301775	 -0.006060
H	 -1.284084	 1.244622	 -0.773004
H	 -1.271387	 1.115393	 0.963286
H	 -2.621848	 -0.873522	 -0.927727
H	 -3.445135	 0.329952	 0.047812
H	 -2.609542	 -1.004582	 0.821105

	symmetry c1
}
set optking {
	frozen_dihedral = ("
		1 2 3 6
	")
}

ee = optimize('scf')
oeprop('DIPOLE', 'QUADRUPOLE', 'MULLIKEN_CHARGES')
f=open( 'psi4out.xyz', 'w' )
f.write( "16  " )
f.write( str(ee) + "\n" )
f.write( MOL.save_string_xyz() )
f.close()
--------------------------------------------------------------------------

    Molecular point group: c1
  Charge       = 0
  Multiplicity = 1
  Basis Set: 6-31G*
  Basis Set:
  @DF-RHF Final Energy:  -212.31473171609187
    Total Energy =                       -212.3147317160920693
    Molecular point group: c1
  Basis Set: 6-31G*
  Basis Set:
  Basis Set: 6-31G*
  Basis Set:
  @DF-RHF Final Energy:  -212.31674285547678
    Total Energy =                       -212.3167428554767184
  Basis Set: 6-31G*
  Basis Set:
  Basis Set: 6-31G*
  Basis Set:
  @DF-RHF Final Energy:  -212.31700605044506
    Total Energy =                       -212.3170060504450589
  Basis Set: 6-31G*
  Basis Set:
  Basis Set: 6-31G*
  Basis Set:
  @DF-RHF Final Energy:  -212.31700901905961
    Total Energy =                       -212.3170090190596397
  Basis Set: 6-31G*
  Basis Set:
  Basis Set: 6-31G*
  Basis Set:
  @DF-RHF Final Energy:  -212.31701018622431
    Total Energy =                       -212.3170101862242518
  Basis Set: 6-31G*
  Basis Set:
  Charge       = 0
  Multiplicity = 1
  Basis Set: 6-31G*
  Basis Set:

    Orbital Energies (a.u.)
    -----------------------

    Doubly Occupied:

       1A    -15.532983     2A    -11.239942     3A    -11.218423
       4A    -11.214202     5A    -11.211133     6A     -1.177534
       7A     -1.062326     8A     -0.959698     9A     -0.848255
      10A     -0.797375    11A     -0.678502    12A     -0.625984
      13A     -0.597743    14A     -0.587378    15A     -0.553529
      16A     -0.527117    17A     -0.498790    18A     -0.491539
      19A     -0.472144    20A     -0.466690    21A     -0.376234

  @DF-RHF Final Energy:  -212.31701080018584

   => Energetics <=

    Nuclear Repulsion Energy =            186.0345409810609283
    One-Electron Energy =                -654.4280625942906227
    Two-Electron Energy =                 256.0765108130439671
    DFT Exchange-Correlation Energy =       0.0000000000000000
    Empirical Dispersion Energy =           0.0000000000000000
    PCM Polarization Energy =               0.0000000000000000
    EFP Energy =                            0.0000000000000000
    Total Energy =                       -212.3170108001857557
    Molecular point group: c1
  Basis Set: 6-31G*
  Basis Set:

  -Total Gradient:
     Atom            X                  Y                   Z
    ------   -----------------  -----------------  -----------------
       1       -0.000144352551    -0.000224716734    -0.000191655884
       2        0.000162719668     0.000218536106     0.000195074682
       3        0.000129139182     0.000195121154     0.000162752634
       4       -0.000002329883    -0.000000417951     0.000003007419
       5        0.000009495181     0.000008503266     0.000008805740
       6       -0.000140872321    -0.000197918734    -0.000172658207
       7       -0.000007006570     0.000002097880     0.000002136701
       8        0.000005409909    -0.000001982835    -0.000014128919
       9       -0.000001602724     0.000006558548     0.000007215158
      10        0.000002373348    -0.000003085066    -0.000000319143
      11       -0.000013393675     0.000000501833     0.000004111075
      12        0.000000665350     0.000001439083    -0.000000987056
      13        0.000000809187    -0.000002725173    -0.000002941285
      14       -0.000000477370     0.000003094945    -0.000002970471
      15       -0.000002220762    -0.000003515654     0.000002618060
      16        0.000001644033    -0.000001490667    -0.000000060504

  **** Optimization is complete! (in 6 steps) ****
    Final optimized geometry and variables:
    Molecular point group: c1

    Geometry (in Angstrom), charge = 0, multiplicity = 1:

    H            2.534523888569    -0.979398465732     0.692913477285
    N            2.500427159769    -0.306983890091    -0.049797375004
    C            1.273959855586     0.472326072369     0.019928119016
    H            2.541477423354    -0.823175739857    -0.908058693383
    C           -0.026610645692    -0.334130679510    -0.023003104584
    H            1.287545684571     1.181631825492    -0.802393666426
    H            1.306818313703     1.060866326388     0.932128427372
    C           -1.280523022340     0.538855612893     0.052791115996
    H           -0.050083985936    -0.924340851099    -0.938586228882
    H           -0.031162181162    -1.047456900926     0.800692789077
    C           -2.576797564817    -0.269618399176     0.010662170329
    H           -1.273518157749     1.251191447830    -0.769572330611
    H           -1.253648747689     1.128866969820     0.966505647014
    H           -2.650774256625    -0.843934570039    -0.908466885444
    H           -3.446292337455     0.377885016476     0.066812423558
    H           -2.630214363458    -0.968023609345     0.841013127871

  Mulliken Charges: (a.u.)
   Center  Symbol    Alpha    Beta     Spin     Total
       1     H     0.33547  0.33547  0.00000  0.32906
       2     N     3.91713  3.91713  0.00000 -0.83426
       3     C     3.06162  3.06162  0.00000 -0.12324
       4     H     0.33542  0.33542  0.00000  0.32916
       5     C     3.15738  3.15738  0.00000 -0.31476
       6     H     0.41941  0.41941  0.00000  0.16118
       7     H     0.41913  0.41913  0.00000  0.16174
       8     C     3.15559  3.15559  0.00000 -0.31118
       9     H     0.42722  0.42722  0.00000  0.14555
      10     H     0.42726  0.42726  0.00000  0.14548
      11     C     3.23863  3.23863  0.00000 -0.47725
      12     H     0.42199  0.42199  0.00000  0.15602
      13     H     0.42190  0.42190  0.00000  0.15620
      14     H     0.42159  0.42159  0.00000  0.15681
      15     H     0.41868  0.41868  0.00000  0.16264
      16     H     0.42157  0.42157  0.00000  0.15685

   Total alpha = 21.00000, Total beta = 21.00000, Total charge = -0.00000
