  ==> Input File <==

--------------------------------------------------------------------------
set {
	reference rhf
	basis 6-31G*
}

set_num_threads( 4 )
memory 2 gb

molecule MOL {
0 1

O	 0.749854	 1.307668	 -0.000040
C	 0.576249	 0.131685	 -0.000108
C	 -0.766779	 -0.556801	 -0.000461
O	 1.568443	 -0.749345	 -0.000005
C	 -1.945214	 0.412366	 0.000161
H	 -0.796911	 -1.211249	 -0.867467
H	 -0.796854	 -1.212390	 0.865687
C	 -3.287791	 -0.317055	 0.000105
H	 -1.876087	 1.060580	 -0.866812
H	 -1.875822	 1.059691	 0.867761
H	 -3.394745	 -0.949193	 -0.877058
H	 -4.111778	 0.388953	 0.000015
H	 -3.394954	 -0.949187	 0.877259
C	 1.407312	 -1.898818	 -0.811150
H	 0.541671	 -2.465458	 -0.499498
H	 2.304557	 -2.482627	 -0.677044
H	 1.294069	 -1.619006	 -1.848642

	symmetry c1
}
set optking {
	frozen_dihedral = ("
		14 4 2 1
	")
}

ee = optimize('scf')
oeprop('DIPOLE', 'QUADRUPOLE', 'MULLIKEN_CHARGES')
f=open( 'psi4out.xyz', 'w' )
f.write( "17  " )
f.write( str(ee) + "\n" )
f.write( MOL.save_string_xyz() )
f.close()
--------------------------------------------------------------------------

    Molecular point group: c1
  Charge       = 0
  Multiplicity = 1
  Basis Set: 6-31G*
  Basis Set:
  @DF-RHF Final Energy:  -344.88087538348145
    Total Energy =                       -344.8808753834816230
    Molecular point group: c1
  Basis Set: 6-31G*
  Basis Set:
  Basis Set: 6-31G*
  Basis Set:
  @DF-RHF Final Energy:  -344.88112944155023
    Total Energy =                       -344.8811294415500015
  Basis Set: 6-31G*
  Basis Set:
  Basis Set: 6-31G*
  Basis Set:
  @DF-RHF Final Energy:  -344.88677707222388
    Total Energy =                       -344.8867770722241062
  Basis Set: 6-31G*
  Basis Set:
  Basis Set: 6-31G*
  Basis Set:
  @DF-RHF Final Energy:  -344.88798746889421
    Total Energy =                       -344.8879874688942095
  Basis Set: 6-31G*
  Basis Set:
  @DF-RHF Final Energy:  -344.88781589713295
    Total Energy =                       -344.8878158971333505
  Basis Set: 6-31G*
  Basis Set:
  @DF-RHF Final Energy:  -344.88883442659466
    Total Energy =                       -344.8888344265948263
  Basis Set: 6-31G*
  Basis Set:
  Basis Set: 6-31G*
  Basis Set:
  @DF-RHF Final Energy:  -344.88884674044499
    Total Energy =                       -344.8888467404446487
  Basis Set: 6-31G*
  Basis Set:
  Basis Set: 6-31G*
  Basis Set:
  @DF-RHF Final Energy:  -344.88884774270610
    Total Energy =                       -344.8888477427063890
  Basis Set: 6-31G*
  Basis Set:
  Charge       = 0
  Multiplicity = 1
  Basis Set: 6-31G*
  Basis Set:

    Orbital Energies (a.u.)
    -----------------------

    Doubly Occupied:

       1A    -20.595732     2A    -20.547184     3A    -11.374683
       4A    -11.296004     5A    -11.244676     6A    -11.226414
       7A    -11.218566     8A     -1.461283     9A     -1.367217
      10A     -1.082481    11A     -0.988903    12A     -0.966115
      13A     -0.838289    14A     -0.766362    15A     -0.702271
      16A     -0.684805    17A     -0.673909    18A     -0.641011
      19A     -0.608932    20A     -0.580775    21A     -0.568519
      22A     -0.547524    23A     -0.522688    24A     -0.495464
      25A     -0.490828    26A     -0.483606    27A     -0.451672
      28A     -0.433399

  @DF-RHF Final Energy:  -344.88884788192058

   => Energetics <=

    Nuclear Repulsion Energy =            313.6195513659666858
    One-Electron Energy =               -1091.2981759421736569
    Two-Electron Energy =                 432.7897766942861608
    DFT Exchange-Correlation Energy =       0.0000000000000000
    Empirical Dispersion Energy =           0.0000000000000000
    PCM Polarization Energy =               0.0000000000000000
    EFP Energy =                            0.0000000000000000
    Total Energy =                       -344.8888478819208103
    Molecular point group: c1
  Basis Set: 6-31G*
  Basis Set:

  -Total Gradient:
     Atom            X                  Y                   Z
    ------   -----------------  -----------------  -----------------
       1        0.000165735770    -0.000137797101    -0.003812420666
       2        0.000505905359     0.001051281751     0.004120979280
       3       -0.000024206765     0.000011104443    -0.000004951931
       4       -0.002071237196    -0.002436642652     0.002205009213
       5        0.000009980584    -0.000012208517     0.000011196275
       6       -0.000001207289     0.000003649091     0.000015879323
       7        0.000002027663    -0.000002159412     0.000006628246
       8       -0.000000589098     0.000000378068    -0.000011178036
       9       -0.000004429387     0.000010076601    -0.000003108437
      10        0.000005375932    -0.000008459497    -0.000003371729
      11        0.000001391745    -0.000003646025     0.000002283047
      12        0.000000555014     0.000001110709    -0.000003603293
      13       -0.000000765939     0.000002888242     0.000003770240
      14        0.001403173137     0.001524879639    -0.002524103221
      15        0.000017423573     0.000010985605    -0.000003970815
      16       -0.000005645906    -0.000005252516     0.000006397850
      17       -0.000003487203    -0.000010188424    -0.000005435347

  **** Optimization is complete! (in 9 steps) ****
    Final optimized geometry and variables:
    Molecular point group: c1

    Geometry (in Angstrom), charge = 0, multiplicity = 1:

    O            0.934692131408     1.513335106795     0.015650028001
    C            0.760450695937     0.344339359695     0.053657273324
    C           -0.610659954219    -0.301363019090     0.053595806630
    O            1.814079833519    -0.483900731946     0.129979990310
    C           -1.745503782139     0.709192477828     0.203458285509
    H           -0.730647001981    -0.860624753047    -0.871547865795
    H           -0.637462463436    -1.036297085923     0.854253286783
    C           -3.116650362104     0.035296879945     0.200683460138
    H           -1.684945379359     1.433763032009    -0.600268495294
    H           -1.608000598194     1.265808142991     1.124067900102
    H           -3.291672714209    -0.503889344788    -0.726388820079
    H           -3.907782378121     0.769942978049     0.308035417928
    H           -3.212263965337    -0.673750580191     1.018355660613
    C            1.842184347143    -1.688501012956    -0.600536587550
    H            1.125548274556    -2.408080249901    -0.223906739482
    H            2.837444419631    -2.086305872341    -0.478774853542
    H            1.659506292360    -1.509963709197    -1.653683874834

  Mulliken Charges: (a.u.)
   Center  Symbol    Alpha    Beta     Spin     Total
       1     O     4.25904  4.25904  0.00000 -0.51808
       2     C     2.60480  2.60480  0.00000  0.79041
       3     C     3.22698  3.22698  0.00000 -0.45397
       4     O     4.30689  4.30689  0.00000 -0.61377
       5     C     3.14966  3.14966  0.00000 -0.29931
       6     H     0.40543  0.40543  0.00000  0.18915
       7     H     0.40275  0.40275  0.00000  0.19451
       8     C     3.24327  3.24327  0.00000 -0.48655
       9     H     0.40733  0.40733  0.00000  0.18534
      10     H     0.40964  0.40964  0.00000  0.18072
      11     H     0.42221  0.42221  0.00000  0.15558
      12     H     0.41371  0.41371  0.00000  0.17259
      13     H     0.42142  0.42142  0.00000  0.15716
      14     C     3.09425  3.09425  0.00000 -0.18849
      15     H     0.41809  0.41809  0.00000  0.16383
      16     H     0.39897  0.39897  0.00000  0.20206
      17     H     0.41558  0.41558  0.00000  0.16883

   Total alpha = 28.00000, Total beta = 28.00000, Total charge = -0.00000
