                              Psi4 1.0.54 Driver

  ==> Input File <==

--------------------------------------------------------------------------
set {
	reference rhf
	basis cc-pvtz
}

set_num_threads( 4 )
memory 2 gb

molecule MOL {
0 1

H	 -3.258660	 -0.290394	 1.471450
C	 -3.307964	 -0.275695	 0.374072
C	 -2.653809	 0.914422	 -0.273689
O	 -3.855140	 -1.148880	 -0.205112
C	 -2.231392	 0.644028	 -1.720798
H	 -3.328753	 1.757745	 -0.205927
H	 -1.771176	 1.144166	 0.319170
C	 -3.406818	 0.445813	 -2.675401
H	 -1.626047	 1.476575	 -2.062502
H	 -1.585717	 -0.230304	 -1.749796
C	 -2.970521	 0.188263	 -4.115225
H	 -4.043037	 1.326287	 -2.642272
H	 -4.022643	 -0.382239	 -2.334053
C	 -4.148407	 0.002380	 -5.069835
H	 -2.349234	 1.014094	 -4.447417
H	 -2.342052	 -0.699068	 -4.146327
C	 -3.760486	 -0.339415	 -6.509486
H	 -4.757165	 0.903599	 -5.068112
H	 -4.783385	 -0.791582	 -4.686780
C	 -3.022818	 0.771455	 -7.253057
H	 -4.664642	 -0.583615	 -7.058357
H	 -3.152768	 -1.240511	 -6.512676
H	 -3.604388	 1.687818	 -7.260334
H	 -2.062299	 0.993006	 -6.803610
H	 -2.841315	 0.488801	 -8.283653

	symmetry c1
}
set optking {
	frozen_dihedral = ("
		6 3 2 4
	")
}

ee,wfn = optimize('scf', return_wfn=True)
oeprop( wfn, 'DIPOLE', 'QUADRUPOLE', 'MULLIKEN_CHARGES')
f=open( 'psi4out.xyz', 'w' )
f.write( "25  " )
f.write( str(ee) + "\n" )
f.write( MOL.save_string_xyz() )
f.close()
--------------------------------------------------------------------------

    Molecular point group: c1
  Charge       = 0
  Multiplicity = 1
  Basis Set: CC-PVTZ
  Basis Set:
  @DF-RHF Final Energy:  -387.25696428111371
    Total Energy =                       -387.2569642811134827
    Molecular point group: c1
  Basis Set: CC-PVTZ
  Basis Set:
  Basis Set: CC-PVTZ
  Basis Set:
  @DF-RHF Final Energy:  -387.25913599033981
    Total Energy =                       -387.2591359903400416
  Basis Set: CC-PVTZ
  Basis Set:
  Basis Set: CC-PVTZ
  Basis Set:
  @DF-RHF Final Energy:  -387.25796831141128
    Total Energy =                       -387.2579683114116733
  Basis Set: CC-PVTZ
  Basis Set:
  Basis Set: CC-PVTZ
  Basis Set:
  @DF-RHF Final Energy:  -387.25948624526933
    Total Energy =                       -387.2594862452696134
  Basis Set: CC-PVTZ
  Basis Set:
  Basis Set: CC-PVTZ
  Basis Set:
  @DF-RHF Final Energy:  -387.25957874329544
    Total Energy =                       -387.2595787432956058
  Basis Set: CC-PVTZ
  Basis Set:
  Basis Set: CC-PVTZ
  Basis Set:
  @DF-RHF Final Energy:  -387.25958194269555
    Total Energy =                       -387.2595819426951493
  Basis Set: CC-PVTZ
  Basis Set:
  Charge       = 0
  Multiplicity = 1
  Basis Set: CC-PVTZ
  Basis Set:

    Orbital Energies (a.u.)
    -----------------------

    Doubly Occupied:

       1A    -20.553240     2A    -11.323661     3A    -11.236474
       4A    -11.222181     5A    -11.210781     6A    -11.209359
       7A    -11.208747     8A    -11.208169     9A    -11.204401
      10A     -1.408931    11A     -1.095835    12A     -1.064483
      13A     -1.010350    14A     -0.942209    15A     -0.875839
      16A     -0.814322    17A     -0.777420    18A     -0.767670
      19A     -0.688205    20A     -0.653563    21A     -0.630876
      22A     -0.617261    23A     -0.607387    24A     -0.589521
      25A     -0.560662    26A     -0.551460    27A     -0.537068
      28A     -0.515787    29A     -0.505306    30A     -0.498244
      31A     -0.478935    32A     -0.473326    33A     -0.458108
      34A     -0.452538    35A     -0.437832    36A     -0.410643

  @DF-RHF Final Energy:  -387.25958226963542

   => Energetics <=

    Nuclear Repulsion Energy =            443.8562922988418222
    One-Electron Energy =               -1404.6301648450910307
    Two-Electron Energy =                 573.5142902766140196
    DFT Exchange-Correlation Energy =       0.0000000000000000
    Empirical Dispersion Energy =           0.0000000000000000
    PCM Polarization Energy =               0.0000000000000000
    EFP Energy =                            0.0000000000000000
    Total Energy =                       -387.2595822696351888
    Molecular point group: c1
  Basis Set: CC-PVTZ
  Basis Set:

  -Total Gradient:
     Atom            X                  Y                   Z
    ------   -----------------  -----------------  -----------------
       1       -0.000043407675    -0.000076829288    -0.000225793657
       2        0.004045972293    -0.001988137956    -0.000132895210
       3       -0.000291104846     0.001991554044     0.002853082725
       4       -0.002930858945     0.001104810872    -0.000003666955
       5        0.000064008096    -0.000054215051    -0.000017441124
       6       -0.000873593121    -0.001092739198    -0.002475060297
       7        0.000030559038     0.000054574402    -0.000000894125
       8       -0.000004321208     0.000076441709    -0.000031054334
       9       -0.000069865304    -0.000046439659    -0.000060041012
      10        0.000034507766    -0.000007270793     0.000024446299
      11       -0.000025327093    -0.000064050838     0.000056887655
      12       -0.000026488629     0.000029788019     0.000032954372
      13        0.000069306325     0.000013000904    -0.000029994474
      14        0.000020762522     0.000074765234     0.000010071127
      15       -0.000046931562     0.000000735424     0.000053046428
      16        0.000019262388     0.000006131181    -0.000020301195
      17        0.000066305677    -0.000040768544     0.000032379043
      18        0.000023046403     0.000019379820    -0.000006109376
      19       -0.000021501207     0.000006289634    -0.000006948249
      20       -0.000017008893     0.000008267708    -0.000016637278
      21        0.000000014534    -0.000020792369     0.000005898018
      22        0.000017720094     0.000006523370     0.000008344664
      23        0.000006654387     0.000016957459     0.000004634506
      24       -0.000025830880    -0.000020144523    -0.000050448685
      25       -0.000021880159     0.000002168439    -0.000004458869

  **** Optimization is complete! (in 7 steps) ****
    Final optimized geometry and variables:
    Molecular point group: c1

    Geometry (in Angstrom), charge = 0, multiplicity = 1:

    H           -0.132750266757    -0.339613853814     4.617790200712
    C           -0.104924938462    -0.450023607924     3.526839585527
    C            0.403755000442     0.759542300600     2.784166640843
    O           -0.495279937981    -1.448184097995     3.027302192572
    C            0.887867212729     0.498262393892     1.356451705266
    H           -0.421111533946     1.470805762091     2.769573789701
    H            1.185616117585     1.210475304186     3.386845013056
    C           -0.233084480621     0.343316326624     0.330339738682
    H            1.523410957549     1.327012976161     1.060219536251
    H            1.512856997261    -0.388610086168     1.349859717929
    C            0.288814867644     0.091084325018    -1.081555881290
    H           -0.839651339249     1.246948412200     0.330885652862
    H           -0.883394768163    -0.469945808508     0.626564441514
    C           -0.830211937596    -0.044061532692    -2.112424481616
    H            0.957999954890     0.898766721764    -1.362893788820
    H            0.886579132722    -0.817415337875    -1.083496764204
    C           -0.363670869767    -0.395272236903    -3.526240392450
    H           -1.402637628788     0.880467276117    -2.144984347219
    H           -1.518523078716    -0.814217236877    -1.776139279424
    C            0.457187556811     0.691362859562    -4.216616237732
    H           -1.238722769936    -0.607175953780    -4.133012797473
    H            0.212112953977    -1.316462944785    -3.494696933015
    H           -0.089951845555     1.628123500447    -4.253828004044
    H            1.395298246945     0.876583458349    -3.707486311675
    H            0.691651722005     0.406678018548    -5.236045070476

  Mulliken Charges: (a.u.)
   Center  Symbol    Alpha    Beta     Spin     Total
       1     H     0.44826  0.44826  0.00000  0.10348
       2     C     2.92103  2.92103  0.00000  0.15793
       3     C     3.10457  3.10457  0.00000 -0.20914
       4     O     4.16736  4.16736  0.00000 -0.33472
       5     C     3.09048  3.09048  0.00000 -0.18096
       6     H     0.44460  0.44460  0.00000  0.11080
       7     H     0.43806  0.43806  0.00000  0.12388
       8     C     3.09103  3.09103  0.00000 -0.18207
       9     H     0.44686  0.44686  0.00000  0.10627
      10     H     0.44861  0.44861  0.00000  0.10279
      11     C     3.09366  3.09366  0.00000 -0.18732
      12     H     0.45877  0.45877  0.00000  0.08246
      13     H     0.43888  0.43888  0.00000  0.12224
      14     C     3.09487  3.09487  0.00000 -0.18974
      15     H     0.45463  0.45463  0.00000  0.09074
      16     H     0.45299  0.45299  0.00000  0.09402
      17     C     3.09044  3.09044  0.00000 -0.18088
      18     H     0.45530  0.45530  0.00000  0.08940
      19     H     0.44769  0.44769  0.00000  0.10461
      20     C     3.15264  3.15264  0.00000 -0.30528
      21     H     0.44868  0.44868  0.00000  0.10265
      22     H     0.45436  0.45436  0.00000  0.09128
      23     H     0.45551  0.45551  0.00000  0.08898
      24     H     0.45414  0.45414  0.00000  0.09172
      25     H     0.44656  0.44656  0.00000  0.10688

   Total alpha = 36.00000, Total beta = 36.00000, Total charge = -0.00000

*** Psi4 exiting successfully. Buy a developer a beer!
