                              Psi4 1.0.54 Driver

  ==> Input File <==

--------------------------------------------------------------------------
set {
	reference rhf
	basis cc-pvtz
}

set_num_threads( 4 )
memory 2 gb

molecule MOL {
0 1

H	 2.192494	 0.580066	 -5.038645
C	 2.566200	 0.923222	 -4.080806
C	 1.428157	 1.130384	 -3.087193
H	 3.270291	 0.183295	 -3.716141
H	 3.113162	 1.845153	 -4.250138
C	 1.916748	 1.624942	 -1.727538
H	 0.889828	 0.198119	 -2.960616
H	 0.720786	 1.848130	 -3.496206
C	 0.798549	 1.847316	 -0.714094
H	 2.627562	 0.917533	 -1.318703
H	 2.446469	 2.563646	 -1.861753
C	 0.166485	 0.574257	 -0.177158
H	 1.185517	 2.380264	 0.150769
H	 0.020394	 2.482676	 -1.126781
C	 -1.180025	 0.697761	 0.509157
O	 0.709852	 -0.479118	 -0.268962
C	 -2.285431	 -0.137488	 -0.145671
H	 -1.447360	 1.745713	 0.496200
H	 -1.065514	 0.394096	 1.546399
C	 -3.646545	 0.082747	 0.508954
H	 -2.348635	 0.118247	 -1.199806
H	 -2.034895	 -1.192387	 -0.096473
C	 -4.757412	 -0.737227	 -0.138149
H	 -3.900211	 1.137405	 0.459735
H	 -3.580878	 -0.166775	 1.564416
H	 -4.867876	 -0.486707	 -1.187777
H	 -4.549650	 -1.800049	 -0.072540
H	 -5.709585	 -0.556397	 0.346597

	symmetry c1
}
set optking {
	frozen_dihedral = ("
		16 12 15 17
	")
}

ee,wfn = optimize('scf', return_wfn=True)
oeprop( wfn, 'DIPOLE', 'QUADRUPOLE', 'MULLIKEN_CHARGES')
f=open( 'psi4out.xyz', 'w' )
f.write( "28  " )
f.write( str(ee) + "\n" )
f.write( MOL.save_string_xyz() )
f.close()
--------------------------------------------------------------------------

    Molecular point group: c1
  Charge       = 0
  Multiplicity = 1
  Basis Set: CC-PVTZ
  Basis Set:
  @DF-RHF Final Energy:  -426.31929798013255
    Total Energy =                       -426.3192979801325464
    Molecular point group: c1
  Basis Set: CC-PVTZ
  Basis Set:
  Basis Set: CC-PVTZ
  Basis Set:
  @DF-RHF Final Energy:  -426.31937027185404
    Total Energy =                       -426.3193702718542681
  Basis Set: CC-PVTZ
  Basis Set:
  Basis Set: CC-PVTZ
  Basis Set:
  @DF-RHF Final Energy:  -426.32035417583518
    Total Energy =                       -426.3203541758348365
  Basis Set: CC-PVTZ
  Basis Set:
  Basis Set: CC-PVTZ
  Basis Set:
  @DF-RHF Final Energy:  -426.31962982707955
    Total Energy =                       -426.3196298270792113
  Basis Set: CC-PVTZ
  Basis Set:
  @DF-RHF Final Energy:  -426.32053672467509
    Total Energy =                       -426.3205367246750939
  Basis Set: CC-PVTZ
  Basis Set:
  @DF-RHF Final Energy:  -426.32055978835899
    Total Energy =                       -426.3205597883589917
  Basis Set: CC-PVTZ
  Basis Set:
  Basis Set: CC-PVTZ
  Basis Set:
  @DF-RHF Final Energy:  -426.32056195858343
    Total Energy =                       -426.3205619585833119
  Basis Set: CC-PVTZ
  Basis Set:
  Basis Set: CC-PVTZ
  Basis Set:
  @DF-RHF Final Energy:  -426.32057118098703
    Total Energy =                       -426.3205711809869172
  Basis Set: CC-PVTZ
  Basis Set:
  Charge       = 0
  Multiplicity = 1
  Basis Set: CC-PVTZ
  Basis Set:

    Orbital Energies (a.u.)
    -----------------------

    Doubly Occupied:

       1A    -20.536368     2A    -11.317609     3A    -11.229909
       4A    -11.226980     5A    -11.222625     6A    -11.219832
       7A    -11.214769     8A    -11.210451     9A    -11.209870
      10A    -11.203490    11A     -1.397326    12A     -1.091422
      13A     -1.079119    14A     -1.023005    15A     -0.992052
      16A     -0.910314    17A     -0.868138    18A     -0.805996
      19A     -0.796726    20A     -0.725687    21A     -0.671810
      22A     -0.652090    23A     -0.627617    24A     -0.620836
      25A     -0.609795    26A     -0.588262    27A     -0.576440
      28A     -0.574186    29A     -0.541829    30A     -0.531216
      31A     -0.519099    32A     -0.510998    33A     -0.499585
      34A     -0.479374    35A     -0.478453    36A     -0.472467
      37A     -0.468655    38A     -0.465848    39A     -0.457504
      40A     -0.394028

  @DF-RHF Final Energy:  -426.32057136336266

   => Energetics <=

    Nuclear Repulsion Energy =            532.8012966909784609
    One-Electron Energy =               -1634.2001686235335001
    Two-Electron Energy =                 675.0783005691924927
    DFT Exchange-Correlation Energy =       0.0000000000000000
    Empirical Dispersion Energy =           0.0000000000000000
    PCM Polarization Energy =               0.0000000000000000
    EFP Energy =                            0.0000000000000000
    Total Energy =                       -426.3205713633625464
    Molecular point group: c1
  Basis Set: CC-PVTZ
  Basis Set:

  -Total Gradient:
     Atom            X                  Y                   Z
    ------   -----------------  -----------------  -----------------
       1        0.000001129415    -0.000001247552    -0.000005368995
       2       -0.000004019811    -0.000000736547    -0.000004841277
       3        0.000018391592     0.000016706013    -0.000012865339
       4       -0.000000477181    -0.000000065225     0.000001376033
       5        0.000002964054     0.000001802632    -0.000000047570
       6        0.000001227811     0.000012261409     0.000002326659
       7       -0.000011891453    -0.000010794124     0.000002322376
       8        0.000000328262    -0.000003718223    -0.000002699840
       9        0.000002184909     0.000001616265    -0.000015491123
      10       -0.000004625945     0.000003188750     0.000002125943
      11        0.000006202456     0.000002904610    -0.000004301028
      12        0.000062049842    -0.000036335610     0.000079335950
      13       -0.000002932404     0.000002618913     0.000013789158
      14        0.000004965221     0.000002760557    -0.000001596554
      15       -0.000020314795     0.000041292484    -0.000039406357
      16       -0.000040087963    -0.000008021644    -0.000037477599
      17        0.000003029504    -0.000037830208     0.000018880481
      18       -0.000012207882    -0.000009945484     0.000002662346
      19        0.000004666008     0.000000621017     0.000002534253
      20       -0.000000458398     0.000013713254    -0.000015920735
      21       -0.000002681327    -0.000005997259     0.000010848831
      22        0.000002091668     0.000021717514     0.000004968731
      23       -0.000015316872    -0.000007117977     0.000008122798
      24       -0.000002910220    -0.000009962209     0.000000168159
      25        0.000000490782     0.000008085877    -0.000012246414
      26        0.000003477581    -0.000004953945     0.000012916885
      27       -0.000002776982     0.000016015715    -0.000001499864
      28        0.000007502126    -0.000008579002    -0.000008615905

  **** Optimization is complete! (in 9 steps) ****
    Final optimized geometry and variables:
    Molecular point group: c1

    Geometry (in Angstrom), charge = 0, multiplicity = 1:

    H            2.954822274615     0.122347792009    -4.068171848626
    C            3.242444744950     0.426440965704    -3.068334236615
    C            2.019795419089     0.615544878197    -2.177003252088
    H            3.901071485420    -0.336357264789    -2.667536824453
    H            3.813676514736     1.345342843662    -3.153532462135
    C            2.386469247570     1.059227693166    -0.762277995147
    H            1.461964326399    -0.311890786690    -2.130761336346
    H            1.361451057864     1.357000736917    -2.623875298346
    C            1.184827097942     1.255244723180     0.154750532768
    H            3.055701029028     0.332465459771    -0.317203055135
    H            2.931340803361     1.997303875804    -0.816684502863
    C            0.523823421059    -0.017674135011     0.641682448169
    H            1.471163387966     1.804629852263     1.049616574286
    H            0.422852239110     1.866536950415    -0.323252592405
    C           -0.744201093053     0.137671816618     1.464043045803
    O            0.971443096596    -1.095767180537     0.418232361499
    C           -1.933437314953    -0.576501884343     0.817877829946
    H           -0.971920602496     1.186366534923     1.616846643524
    H           -0.544228007947    -0.298055297339     2.437676515413
    C           -3.205498254937    -0.483176691039     1.654902444743
    H           -2.118920974052    -0.151107244289    -0.165552812830
    H           -1.669921159337    -1.615220286882     0.660334397564
    C           -4.391746552974    -1.193371012089     1.011624215395
    H           -3.456413939934     0.561390556243     1.818646972603
    H           -3.018868972287    -0.909670067054     2.636511699563
    H           -4.625631513161    -0.765605616973     0.042466106499
    H           -4.182826761283    -2.247460268441     0.864802365338
    H           -5.278025518405    -1.114287307958     1.630358619197

  Mulliken Charges: (a.u.)
   Center  Symbol    Alpha    Beta     Spin     Total
       1     H     0.44874  0.44874  0.00000  0.10253
       2     C     3.15167  3.15167  0.00000 -0.30334
       3     C     3.08399  3.08399  0.00000 -0.16798
       4     H     0.45200  0.45200  0.00000  0.09601
       5     H     0.45721  0.45721  0.00000  0.08558
       6     C     3.08724  3.08724  0.00000 -0.17449
       7     H     0.44418  0.44418  0.00000  0.11165
       8     H     0.45893  0.45893  0.00000  0.08215
       9     C     3.12535  3.12535  0.00000 -0.25070
      10     H     0.44594  0.44594  0.00000  0.10813
      11     H     0.44775  0.44775  0.00000  0.10451
      12     C     2.87070  2.87070  0.00000  0.25859
      13     H     0.43386  0.43386  0.00000  0.13228
      14     H     0.44290  0.44290  0.00000  0.11419
      15     C     3.09411  3.09411  0.00000 -0.18822
      16     O     4.18225  4.18225  0.00000 -0.36449
      17     C     3.08962  3.08962  0.00000 -0.17924
      18     H     0.44762  0.44762  0.00000  0.10477
      19     H     0.44209  0.44209  0.00000  0.11582
      20     C     3.08745  3.08745  0.00000 -0.17490
      21     H     0.45431  0.45431  0.00000  0.09138
      22     H     0.43882  0.43882  0.00000  0.12236
      23     C     3.14955  3.14955  0.00000 -0.29910
      24     H     0.45485  0.45485  0.00000  0.09031
      25     H     0.45296  0.45296  0.00000  0.09408
      26     H     0.45505  0.45505  0.00000  0.08990
      27     H     0.45286  0.45286  0.00000  0.09427
      28     H     0.44801  0.44801  0.00000  0.10398

   Total alpha = 40.00000, Total beta = 40.00000, Total charge = -0.00000

*** Psi4 exiting successfully. Buy a developer a beer!
