  ==> Input File <==

--------------------------------------------------------------------------
set {
	reference rhf
	basis 6-31G*
}

set_num_threads( 4 )
memory 2 gb

molecule MOL {
0 1

H	 -1.185878	 -0.702087	 0.820912
N	 -0.626943	 -0.667432	 -0.000092
C	 -1.027438	 -1.469021	 -1.134013
C	 0.469286	 0.129090	 0.000148
H	 -1.044757	 -2.523096	 -0.877827
H	 -0.313161	 -1.313041	 -1.925976
H	 -2.012168	 -1.180214	 -1.486048
C	 1.788933	 -0.616240	 -0.000037
O	 0.411098	 1.327768	 -0.000049
H	 1.872803	 -1.245775	 -0.880381
H	 2.595421	 0.101576	 0.003713
H	 1.870096	 -1.252171	 0.875943

	symmetry c1
}
set optking {
	frozen_dihedral = ("
		3 2 4 9
	")
}

ee = optimize('scf')
oeprop('DIPOLE', 'QUADRUPOLE', 'MULLIKEN_CHARGES')
f=open( 'psi4out.xyz', 'w' )
f.write( "12  " )
f.write( str(ee) + "\n" )
f.write( MOL.save_string_xyz() )
f.close()
--------------------------------------------------------------------------

    Molecular point group: c1
  Charge       = 0
  Multiplicity = 1
  Basis Set: 6-31G*
  Basis Set:
  @DF-RHF Final Energy:  -246.96774872853732
    Total Energy =                       -246.9677487285373445
    Molecular point group: c1
  Basis Set: 6-31G*
  Basis Set:
  Basis Set: 6-31G*
  Basis Set:
  @DF-RHF Final Energy:  -246.97433105351774
    Total Energy =                       -246.9743310535176875
  Basis Set: 6-31G*
  Basis Set:
  Basis Set: 6-31G*
  Basis Set:
  @DF-RHF Final Energy:  -246.98233799974466
    Total Energy =                       -246.9823379997445727
  Basis Set: 6-31G*
  Basis Set:
  Basis Set: 6-31G*
  Basis Set:
  @DF-RHF Final Energy:  -246.98730024316211
    Total Energy =                       -246.9873002431622808
  Basis Set: 6-31G*
  Basis Set:
  @DF-RHF Final Energy:  -246.98875004992243
    Total Energy =                       -246.9887500499223734
  @DF-RHF Final Energy:  -246.98985260036622
    Total Energy =                       -246.9898526003661345
  @DF-RHF Final Energy:  -246.99047648071098
    Total Energy =                       -246.9904764807106403
  @DF-RHF Final Energy:  -246.99093811774000
    Total Energy =                       -246.9909381177398586
  @DF-RHF Final Energy:  -246.99109206059811
    Total Energy =                       -246.9910920605980209
  @DF-RHF Final Energy:  -246.99112135627053
    Total Energy =                       -246.9911213562704120
  @DF-RHF Final Energy:  -246.99112468657253
    Total Energy =                       -246.9911246865725616
  @DF-RHF Final Energy:  -246.99112798862367
    Total Energy =                       -246.9911279886238162
  @DF-RHF Final Energy:  -246.99110860630728
    Total Energy =                       -246.9911086063073071
  @DF-RHF Final Energy:  -246.99112820002767
    Total Energy =                       -246.9911282000277879
  @DF-RHF Final Energy:  -246.99113126714190
    Total Energy =                       -246.9911312671418955
  @DF-RHF Final Energy:  -246.99113545264842
    Total Energy =                       -246.9911354526483365
  @DF-RHF Final Energy:  -246.99113295706380
    Total Energy =                       -246.9911329570637122
  @DF-RHF Final Energy:  -246.99087769522956
    Total Energy =                       -246.9908776952294147
  @DF-RHF Final Energy:  -246.99113783122320
    Total Energy =                       -246.9911378312233978
  @DF-RHF Final Energy:  -246.99113919833596
    Total Energy =                       -246.9911391983358726
  @DF-RHF Final Energy:  -246.99113659352460
    Total Energy =                       -246.9911365935247431
  @DF-RHF Final Energy:  -246.99113670102687
    Total Energy =                       -246.9911367010271874
  @DF-RHF Final Energy:  -246.99113585258240
    Total Energy =                       -246.9911358525826017
  @DF-RHF Final Energy:  -246.99113585326401
    Total Energy =                       -246.9911358532640975
  @DF-RHF Final Energy:  -246.99113567952537
    Total Energy =                       -246.9911356795254278
  @DF-RHF Final Energy:  -246.99113552355809
    Total Energy =                       -246.9911355235580004
  @DF-RHF Final Energy:  -246.99113544715738
    Total Energy =                       -246.9911354471574896
  @DF-RHF Final Energy:  -246.99113568230430
    Total Energy =                       -246.9911356823041615
  @DF-RHF Final Energy:  -246.99113610873934
    Total Energy =                       -246.9911361087396244
  @DF-RHF Final Energy:  -246.99113481038702
    Total Energy =                       -246.9911348103869386
  @DF-RHF Final Energy:  -246.99113434524043
    Total Energy =                       -246.9911343452404253
  @DF-RHF Final Energy:  -246.99113399946992
    Total Energy =                       -246.9911339994699802
  @DF-RHF Final Energy:  -246.99113365539648
    Total Energy =                       -246.9911336553966521
  @DF-RHF Final Energy:  -246.99113325278728
    Total Energy =                       -246.9911332527875061
  @DF-RHF Final Energy:  -246.99113330358691
    Total Energy =                       -246.9911333035870484
  @DF-RHF Final Energy:  -246.99113338355036
    Total Energy =                       -246.9911333835505047
  Basis Set: 6-31G*
  Basis Set:
  @DF-RHF Final Energy:  -246.99113345197327
    Total Energy =                       -246.9911334519731554
  Basis Set: 6-31G*
  Basis Set:
  Basis Set: 6-31G*
  Basis Set:
  @DF-RHF Final Energy:  -246.99113228578759
    Total Energy =                       -246.9911322857875575
  Basis Set: 6-31G*
  Basis Set:
  Basis Set: 6-31G*
  Basis Set:
  @DF-RHF Final Energy:  -246.99113294426590
    Total Energy =                       -246.9911329442661554
  Basis Set: 6-31G*
  Basis Set:
  Charge       = 0
  Multiplicity = 1
  Basis Set: 6-31G*
  Basis Set:

    Orbital Energies (a.u.)
    -----------------------

    Doubly Occupied:

       1A    -20.543570     2A    -15.569042     3A    -11.349874
       4A    -11.266362     5A    -11.230102     6A     -1.404884
       7A     -1.221888     8A     -1.008886     9A     -0.941764
      10A     -0.768783    11A     -0.677716    12A     -0.662218
      13A     -0.632191    14A     -0.600727    15A     -0.576845
      16A     -0.566457    17A     -0.547343    18A     -0.502020
      19A     -0.433681    20A     -0.395724

  @DF-RHF Final Energy:  -246.99113527159116

   => Energetics <=

    Nuclear Repulsion Energy =            180.9249781560101553
    One-Electron Energy =                -694.0320795732150145
    Two-Electron Energy =                 266.1159661456135836
    DFT Exchange-Correlation Energy =       0.0000000000000000
    Empirical Dispersion Energy =           0.0000000000000000
    PCM Polarization Energy =               0.0000000000000000
    EFP Energy =                            0.0000000000000000
    Total Energy =                       -246.9911352715912471
    Molecular point group: c1
  Basis Set: 6-31G*
  Basis Set:

  -Total Gradient:
     Atom            X                  Y                   Z
    ------   -----------------  -----------------  -----------------
       1        0.000257986412     0.000186720019     0.000430644954
       2        0.005299088359    -0.006956786935    -0.003561661548
       3       -0.004206417959     0.005199062025     0.000013910765
       4        0.000615023213     0.001850951635     0.011316449316
       5       -0.000168270821    -0.000117911468     0.000116624886
       6        0.000289057508    -0.000504426052    -0.000446368256
       7       -0.000176881500     0.000137359387     0.000038458442
       8       -0.000600652709    -0.000625049543     0.000798222077
       9       -0.001746901753     0.000516665293    -0.008141169320
      10        0.000347093228    -0.000103664209    -0.000182889114
      11        0.000232861588     0.000386207021    -0.000219948039
      12       -0.000141985566     0.000030872823    -0.000162274163

    Molecular point group: c1

    Geometry (in Angstrom), charge = 0, multiplicity = 1:

    H           -1.542388839193    -0.158715479023     0.722655556132
    N           -0.742685551687    -0.593811444675     0.303087185055
    C           -1.142433966903    -1.188814306087    -0.968616018838
    C            0.262309197712     0.381116898534     0.277183849384
    H           -1.969618716814    -1.860199536079    -0.783488450042
    H           -0.333654554394    -1.773509381148    -1.386022147669
    H           -1.453671678518    -0.446641241839    -1.699614977284
    C            1.652064365300    -0.118701451453    -0.037287550848
    O            0.028294051666     1.528881758823     0.500536145631
    H            1.687338404709    -0.616546040486    -1.000679831397
    H            2.340000999869     0.715075898800    -0.044124760143
    H            1.950727921231    -0.842830502296     0.712944106184

  Mulliken Charges: (a.u.)
   Center  Symbol    Alpha    Beta     Spin     Total
       1     H     0.31775  0.31775  0.00000  0.36450
       2     N     3.86519  3.86519  0.00000 -0.73038
       3     C     3.15820  3.15820  0.00000 -0.31640
       4     C     2.66547  2.66547  0.00000  0.66905
       5     H     0.40602  0.40602  0.00000  0.18797
       6     H     0.41100  0.41100  0.00000  0.17801
       7     H     0.41582  0.41582  0.00000  0.16836
       8     C     3.28639  3.28639  0.00000 -0.57278
       9     O     4.27003  4.27003  0.00000 -0.54005
      10     H     0.40859  0.40859  0.00000  0.18282
      11     H     0.39605  0.39605  0.00000  0.20791
      12     H     0.39951  0.39951  0.00000  0.20099

   Total alpha = 20.00000, Total beta = 20.00000, Total charge = -0.00000
