  ==> Input File <==

--------------------------------------------------------------------------
set {
	reference rhf
	basis 6-31G*
}

set_num_threads( 1 )
memory 2 gb

molecule MOL {
0 1

O	 3.225979	 0.970355	 -0.599647
C	 2.701189	 0.057885	 -0.047330
C	 1.245376	 -0.013843	 0.345420
O	 3.347903	 -1.046386	 0.304773
C	 0.455112	 1.231400	 -0.050772
H	 0.838542	 -0.913825	 -0.103701
H	 1.208210	 -0.175333	 1.419774
C	 -0.998893	 1.219485	 0.433193
H	 0.482531	 1.345121	 -1.130325
H	 0.957290	 2.103070	 0.354729
C	 -1.883438	 0.145884	 -0.207175
H	 -1.431207	 2.195402	 0.224832
H	 -1.019646	 1.105716	 1.516076
C	 -3.347647	 0.245583	 0.225435
H	 -1.822183	 0.231698	 -1.291012
H	 -1.510341	 -0.844814	 0.042401
C	 -3.541329	 0.135814	 1.738897
H	 -3.922404	 -0.536835	 -0.267223
H	 -3.761994	 1.191000	 -0.121268
C	 -5.006634	 0.232495	 2.162260
H	 -3.126931	 -0.807914	 2.087169
H	 -2.971053	 0.919761	 2.232853
H	 -5.111359	 0.151404	 3.239786
H	 -5.597862	 -0.559934	 1.712036
H	 -5.440851	 1.180816	 1.858259
C	 4.728119	 -1.109107	 -0.004993
H	 4.882018	 -1.033965	 -1.071845
H	 5.068212	 -2.067527	 0.355250
H	 5.265056	 -0.311663	 0.488280

	symmetry c1
}
set optking {
	frozen_dihedral = ("
		21 17 14 11,
		15 11 8 5,
		6 3 5 9,
		11 8 5 9,
		2 4 26 27,
		1 2 4 26,
		6 3 2 1
	")
}

ee = energy('scf')
oeprop('DIPOLE', 'QUADRUPOLE', 'MULLIKEN_CHARGES')
f=open( 'psi4out.xyz', 'w' )
f.write( "29  " )
f.write( str(ee) + "\n" )
f.write( MOL.save_string_xyz() )
f.close()
--------------------------------------------------------------------------

    Molecular point group: c1

    Geometry (in Angstrom), charge = 0, multiplicity = 1:

       Center              X                  Y                   Z               Mass
    ------------   -----------------  -----------------  -----------------  -----------------
           O          3.098085826733     0.795006085587    -0.992101867040    15.994914619560
           C          2.573295826733    -0.117463914413    -0.439784867040    12.000000000000
           C          1.117482826733    -0.189191914413    -0.047034867040    12.000000000000
           O          3.220009826733    -1.221734914413    -0.087681867040    15.994914619560
           C          0.327218826733     1.056051085587    -0.443226867040    12.000000000000
           H          0.710648826733    -1.089173914413    -0.496155867040     1.007825032070
           H          1.080316826733    -0.350681914413     1.027319132960     1.007825032070
           C         -1.126786173267     1.044136085587     0.040738132960    12.000000000000
           H          0.354637826733     1.169772085587    -1.522779867040     1.007825032070
           H          0.829396826733     1.927721085587    -0.037725867040     1.007825032070
           C         -2.011331173267    -0.029464914413    -0.599629867040    12.000000000000
           H         -1.559100173267     2.020053085587    -0.167622867040     1.007825032070
           H         -1.147539173267     0.930367085587     1.123621132960     1.007825032070
           C         -3.475540173267     0.070234085587    -0.167019867040    12.000000000000
           H         -1.950076173267     0.056349085587    -1.683466867040     1.007825032070
           H         -1.638234173267    -1.020162914413    -0.350053867040     1.007825032070
           C         -3.669222173267    -0.039534914413     1.346442132960    12.000000000000
           H         -4.050297173267    -0.712183914413    -0.659677867040     1.007825032070
           H         -3.889887173267     1.015651085587    -0.513722867040     1.007825032070
           C         -5.134527173267     0.057146085587     1.769805132960    12.000000000000
           H         -3.254824173267    -0.983262914413     1.694714132960     1.007825032070
           H         -3.098946173267     0.744412085587     1.840398132960     1.007825032070
           H         -5.239252173267    -0.023944914413     2.847331132960     1.007825032070
           H         -5.725755173267    -0.735282914413     1.319581132960     1.007825032070
           H         -5.568744173267     1.005467085587     1.465804132960     1.007825032070
           C          4.600225826733    -1.284455914413    -0.397447867040    12.000000000000
           H          4.754124826733    -1.209313914413    -1.464299867040     1.007825032070
           H          4.940318826733    -2.242875914413    -0.037204867040     1.007825032070
           H          5.137162826733    -0.487011914413     0.095825132960     1.007825032070

  Charge       = 0
  Multiplicity = 1
  Basis Set: 6-31G*
  Basis Set:

    Orbital Energies (a.u.)
    -----------------------

    Doubly Occupied:

       1A    -20.603354     2A    -20.545124     3A    -11.371942
       4A    -11.280641     5A    -11.234670     6A    -11.218898
       7A    -11.216889     8A    -11.215952     9A    -11.215355
      10A    -11.214423    11A    -11.209053    12A     -1.469024
      13A     -1.362455    14A     -1.099570    15A     -1.066395
      16A     -1.017308    17A     -0.977205    18A     -0.928774
      19A     -0.861521    20A     -0.816951    21A     -0.777323
      22A     -0.760506    23A     -0.700757    24A     -0.682269
      25A     -0.671736    26A     -0.642501    27A     -0.628330
      28A     -0.609900    29A     -0.598358    30A     -0.581065
      31A     -0.563995    32A     -0.555558    33A     -0.544204
      34A     -0.524319    35A     -0.513864    36A     -0.510239
      37A     -0.493610    38A     -0.484905    39A     -0.471866
      40A     -0.456812    41A     -0.456569    42A     -0.448482
      43A     -0.443676    44A     -0.436758

  @DF-RHF Final Energy:  -501.04131357367942

   => Energetics <=

    Nuclear Repulsion Energy =            617.5123957709392926
    One-Electron Energy =               -1906.1409184452782029
    Two-Electron Energy =                 787.5872091006613118
    DFT Exchange-Correlation Energy =       0.0000000000000000
    Empirical Dispersion Energy =           0.0000000000000000
    PCM Polarization Energy =               0.0000000000000000
    EFP Energy =                            0.0000000000000000
    Total Energy =                       -501.0413135736775985

  Mulliken Charges: (a.u.)
   Center  Symbol    Alpha    Beta     Spin     Total
       1     O     4.28599  4.28599  0.00000 -0.57197
       2     C     2.60483  2.60483  0.00000  0.79033
       3     C     3.20969  3.20969  0.00000 -0.41937
       4     O     4.30748  4.30748  0.00000 -0.61497
       5     C     3.15264  3.15264  0.00000 -0.30527
       6     H     0.39884  0.39884  0.00000  0.20233
       7     H     0.40132  0.40132  0.00000  0.19737
       8     C     3.16082  3.16082  0.00000 -0.32164
       9     H     0.41334  0.41334  0.00000  0.17332
      10     H     0.40896  0.40896  0.00000  0.18208
      11     C     3.15575  3.15575  0.00000 -0.31150
      12     H     0.41870  0.41870  0.00000  0.16261
      13     H     0.42098  0.42098  0.00000  0.15804
      14     C     3.15140  3.15140  0.00000 -0.30280
      15     H     0.42051  0.42051  0.00000  0.15897
      16     H     0.42381  0.42381  0.00000  0.15239
      17     C     3.15564  3.15564  0.00000 -0.31129
      18     H     0.42143  0.42143  0.00000  0.15715
      19     H     0.42356  0.42356  0.00000  0.15288
      20     C     3.23841  3.23841  0.00000 -0.47682
      21     H     0.42399  0.42399  0.00000  0.15201
      22     H     0.41979  0.41979  0.00000  0.16042
      23     H     0.41951  0.41951  0.00000  0.16098
      24     H     0.42193  0.42193  0.00000  0.15615
      25     H     0.42156  0.42156  0.00000  0.15688
      26     C     3.09240  3.09240  0.00000 -0.18481
      27     H     0.40908  0.40908  0.00000  0.18184
      28     H     0.40853  0.40853  0.00000  0.18295
      29     H     0.40913  0.40913  0.00000  0.18173

   Total alpha = 44.00000, Total beta = 44.00000, Total charge =  0.00000
