  ==> Input File <==

--------------------------------------------------------------------------
set {
	reference rhf
	basis cc-pvtz
}

set_num_threads( 4 )
memory 2 gb

molecule MOL {
0 1

O	 1.057534	 1.555998	 -0.451926
C	 0.662739	 0.852100	 -1.317793
C	 -0.618140	 0.058528	 -1.285280
O	 1.313535	 0.667854	 -2.454848
C	 -1.413045	 0.229353	 0.001137
H	 -1.201745	 0.356012	 -2.150375
H	 -0.355453	 -0.981365	 -1.449840
C	 -2.702562	 -0.586401	 0.000228
H	 -1.642823	 1.279356	 0.143385
H	 -0.796082	 -0.059850	 0.844502
C	 -3.953810	 0.284959	 -0.000782
H	 -2.717793	 -1.238567	 -0.869075
H	 -2.719108	 -1.238472	 0.869576
H	 -3.983727	 0.924403	 -0.876454
H	 -4.852989	 -0.320147	 -0.001515
H	 -3.985140	 0.924399	 0.874841
C	 2.537167	 1.355218	 -2.620908
H	 2.384529	 2.423120	 -2.570776
H	 2.904840	 1.077214	 -3.595279
H	 3.244527	 1.064231	 -1.858549

	symmetry c1
}
set optking {
	frozen_dihedral = ("
		9 5 8 12
	")
}

ee = optimize('scf')
oeprop('DIPOLE', 'QUADRUPOLE', 'MULLIKEN_CHARGES')
f=open( 'psi4out.xyz', 'w' )
f.write( "20  " )
f.write( str(ee) + "\n" )
f.write( MOL.save_string_xyz() )
f.close()
--------------------------------------------------------------------------

    Molecular point group: c1
  Charge       = 0
  Multiplicity = 1
  Basis Set: CC-PVTZ
  Basis Set:
  @DF-RHF Final Energy:  -384.07725843718066
    Total Energy =                       -384.0772584371801486
    Molecular point group: c1
  Basis Set: CC-PVTZ
  Basis Set:
  Basis Set: CC-PVTZ
  Basis Set:
  @DF-RHF Final Energy:  -384.07753029836493
    Total Energy =                       -384.0775302983649908
  Basis Set: CC-PVTZ
  Basis Set:
  Basis Set: CC-PVTZ
  Basis Set:
  @DF-RHF Final Energy:  -384.07756551186520
    Total Energy =                       -384.0775655118651457
  Basis Set: CC-PVTZ
  Basis Set:
  Basis Set: CC-PVTZ
  Basis Set:
  @DF-RHF Final Energy:  -384.07751961354029
    Total Energy =                       -384.0775196135401757
  Basis Set: CC-PVTZ
  Basis Set:
  Basis Set: CC-PVTZ
  Basis Set:
  @DF-RHF Final Energy:  -384.07760645804348
    Total Energy =                       -384.0776064580429647
  Basis Set: CC-PVTZ
  Basis Set:
  Charge       = 0
  Multiplicity = 1
  Basis Set: CC-PVTZ
  Basis Set:

    Orbital Energies (a.u.)
    -----------------------

    Doubly Occupied:

       1A    -20.596392     2A    -20.534315     3A    -11.364502
       4A    -11.278557     5A    -11.234419     6A    -11.218201
       7A    -11.217141     8A    -11.209952     9A     -1.472280
      10A     -1.365887    11A     -1.087961    12A     -1.024363
      13A     -0.969652    14A     -0.887630    15A     -0.804697
      16A     -0.769249    17A     -0.702125    18A     -0.685912
      19A     -0.676354    20A     -0.635266    21A     -0.607532
      22A     -0.597349    23A     -0.575625    24A     -0.545750
      25A     -0.527305    26A     -0.523574    27A     -0.514428
      28A     -0.475639    29A     -0.474106    30A     -0.466782
      31A     -0.458354    32A     -0.439440

  @DF-RHF Final Energy:  -384.07760655876928

   => Energetics <=

    Nuclear Repulsion Energy =            382.9072929951844344
    One-Electron Energy =               -1282.0883226892142375
    Two-Electron Energy =                 515.1034231352605275
    DFT Exchange-Correlation Energy =       0.0000000000000000
    Empirical Dispersion Energy =           0.0000000000000000
    PCM Polarization Energy =               0.0000000000000000
    EFP Energy =                            0.0000000000000000
    Total Energy =                       -384.0776065587692756
    Molecular point group: c1
  Basis Set: CC-PVTZ
  Basis Set:

  -Total Gradient:
     Atom            X                  Y                   Z
    ------   -----------------  -----------------  -----------------
       1       -0.000002360768    -0.000002492876     0.000009050268
       2        0.000007079874     0.000002120946     0.000004559317
       3       -0.000016635221     0.000015234225     0.000007537898
       4       -0.000001887679    -0.000002121323    -0.000012379914
       5       -0.000013347370     0.000036767411     0.001544680729
       6        0.000003476711    -0.000005864582     0.000000604798
       7        0.000003779790    -0.000005123657     0.000000661770
       8        0.000727043966    -0.001217815414     0.000599261010
       9       -0.000096532365     0.000169538893    -0.001402143648
      10        0.000000019809     0.000002456668     0.000001268950
      11        0.000009394518    -0.000009736471    -0.000000563908
      12       -0.000618783217     0.001020401726    -0.000753682802
      13        0.000000200782    -0.000000248123    -0.000002902383
      14        0.000001034751    -0.000000344139     0.000001606484
      15       -0.000002131284    -0.000001952486     0.000000885040
      16        0.000002257274     0.000000954756    -0.000001229625
      17        0.000000039882    -0.000000070133     0.000003065967
      18       -0.000000276267    -0.000000280320    -0.000000088093
      19       -0.000002226640    -0.000001370612    -0.000000023422
      20       -0.000000146549    -0.000000054487    -0.000000168438

  **** Optimization is complete! (in 6 steps) ****
    Final optimized geometry and variables:
    Molecular point group: c1

    Geometry (in Angstrom), charge = 0, multiplicity = 1:

    O            1.416807123405     0.994291063707     0.576230960732
    C            1.025409504614     0.282713846094    -0.284976078672
    C           -0.248211743644    -0.522369414033    -0.244198600786
    O            1.674066581571     0.098810413761    -1.423393224219
    C           -1.039179363858    -0.357418847349     1.047742846819
    H           -0.839900866101    -0.230772832906    -1.106114527481
    H            0.022191745046    -1.559982308485    -0.409205806841
    C           -2.356254540009    -1.160433708382     1.041922686731
    H           -1.247956083258     0.695855502522     1.187787979521
    H           -0.414901909959    -0.652974601484     1.880636386474
    C           -3.600550009766    -0.276035976624     1.020627460423
    H           -2.386034788822    -1.815096910124     0.176468270342
    H           -2.397486623118    -1.806465185743     1.911218297764
    H           -3.606246786084     0.370277543479     0.148702568233
    H           -4.506000162647    -0.871755940467     0.996594370955
    H           -3.642542429413     0.358266269464     1.899269631924
    C            2.890829329576     0.796341993488    -1.596971103823
    H            2.728748692967     1.863071494801    -1.551557846440
    H            3.257779772288     0.516875595458    -2.571201382927
    H            3.603352508561     0.515541214720    -0.835590286730

  Mulliken Charges: (a.u.)
   Center  Symbol    Alpha    Beta     Spin     Total
       1     O     4.19669  4.19669  0.00000 -0.39337
       2     C     2.80822  2.80822  0.00000  0.38355
       3     C     3.09931  3.09931  0.00000 -0.19862
       4     O     4.14702  4.14702  0.00000 -0.29404
       5     C     3.09008  3.09008  0.00000 -0.18017
       6     H     0.43972  0.43972  0.00000  0.12056
       7     H     0.43918  0.43918  0.00000  0.12164
       8     C     3.09183  3.09183  0.00000 -0.18366
       9     H     0.44671  0.44671  0.00000  0.10658
      10     H     0.44139  0.44139  0.00000  0.11721
      11     C     3.14642  3.14642  0.00000 -0.29283
      12     H     0.45636  0.45636  0.00000  0.08727
      13     H     0.44728  0.44728  0.00000  0.10544
      14     H     0.45599  0.45599  0.00000  0.08802
      15     H     0.44946  0.44946  0.00000  0.10109
      16     H     0.45269  0.45269  0.00000  0.09462
      17     C     3.03770  3.03770  0.00000 -0.07540
      18     H     0.45433  0.45433  0.00000  0.09135
      19     H     0.44529  0.44529  0.00000  0.10942
      20     H     0.45433  0.45433  0.00000  0.09133

   Total alpha = 32.00000, Total beta = 32.00000, Total charge = -0.00000
