  ==> Input File <==

--------------------------------------------------------------------------
set {
	reference rhf
	basis cc-pvtz
}

set_num_threads( 4 )
memory 2 gb

molecule MOL {
0 1

H	 2.190573	 -0.629143	 -0.208718
O	 1.355408	 -0.529451	 0.208662
C	 0.700177	 0.619554	 -0.266242
C	 -0.713111	 0.588314	 0.266177
H	 0.678680	 0.627133	 -1.351786
H	 1.199747	 1.521489	 0.077736
O	 -1.421673	 -0.521378	 -0.196983
H	 -1.244794	 1.469161	 -0.069059
H	 -0.685100	 0.604721	 1.352683
H	 -0.818999	 -1.103706	 -0.625587

	symmetry c1
}
set optking {
	frozen_dihedral = ("
		10 7 4 3
	")
}

ee = optimize('scf')
oeprop('DIPOLE', 'QUADRUPOLE', 'MULLIKEN_CHARGES')
f=open( 'psi4out.xyz', 'w' )
f.write( "10  " )
f.write( str(ee) + "\n" )
f.write( MOL.save_string_xyz() )
f.close()
--------------------------------------------------------------------------

    Molecular point group: c1
  Charge       = 0
  Multiplicity = 1
  Basis Set: CC-PVTZ
  Basis Set:
  @DF-RHF Final Energy:  -229.02452563426613
    Total Energy =                       -229.0245256342660980
    Molecular point group: c1
  Basis Set: CC-PVTZ
  Basis Set:
  Basis Set: CC-PVTZ
  Basis Set:
  @DF-RHF Final Energy:  -229.02502657568192
    Total Energy =                       -229.0250265756821477
  Basis Set: CC-PVTZ
  Basis Set:
  Basis Set: CC-PVTZ
  Basis Set:
  @DF-RHF Final Energy:  -229.02520414291195
    Total Energy =                       -229.0252041429118890
  Basis Set: CC-PVTZ
  Basis Set:
  Basis Set: CC-PVTZ
  Basis Set:
  @DF-RHF Final Energy:  -229.02520630821729
    Total Energy =                       -229.0252063082172640
  Basis Set: CC-PVTZ
  Basis Set:
  Charge       = 0
  Multiplicity = 1
  Basis Set: CC-PVTZ
  Basis Set:

    Orbital Energies (a.u.)
    -----------------------

    Doubly Occupied:

       1A    -20.564079     2A    -20.540254     3A    -11.280062
       4A    -11.267200     5A     -1.388385     6A     -1.354671
       7A     -1.005965     8A     -0.849849     9A     -0.728702
      10A     -0.671712    11A     -0.667406    12A     -0.603609
      13A     -0.577307    14A     -0.550951    15A     -0.478643
      16A     -0.460446    17A     -0.436722

  @DF-RHF Final Energy:  -229.02520651424103

   => Energetics <=

    Nuclear Repulsion Energy =            134.5727362519661767
    One-Electron Energy =                -580.3439593443575859
    Two-Electron Energy =                 216.7460165781503747
    DFT Exchange-Correlation Energy =       0.0000000000000000
    Empirical Dispersion Energy =           0.0000000000000000
    PCM Polarization Energy =               0.0000000000000000
    EFP Energy =                            0.0000000000000000
    Total Energy =                       -229.0252065142410629
    Molecular point group: c1
  Basis Set: CC-PVTZ
  Basis Set:

  -Total Gradient:
     Atom            X                  Y                   Z
    ------   -----------------  -----------------  -----------------
       1        0.000003388662    -0.000001601004     0.000000768779
       2        0.000000392162     0.000014724191    -0.000005637426
       3        0.000739924231    -0.001219260117     0.002025417123
       4       -0.001232970939     0.002097848738    -0.003729456819
       5        0.000007263107    -0.000012877056     0.000020053467
       6        0.000027466284     0.000010058612     0.000012610640
       7        0.001055628183    -0.002561133856     0.005225318549
       8        0.000005602360     0.000009636522    -0.000001957499
       9       -0.000005093897    -0.000002393684    -0.000006356317
      10       -0.000601600152     0.001664997651    -0.003540760498

  **** Optimization is complete! (in 5 steps) ****
    Final optimized geometry and variables:
    Molecular point group: c1

    Geometry (in Angstrom), charge = 0, multiplicity = 1:

    H            2.213489571039    -0.595838296191    -0.189270313089
    O            1.342995835558    -0.556020497804     0.161204499642
    C            0.707693971626     0.627683328325    -0.242107466081
    C           -0.714970489835     0.602597739795     0.268926131437
    H            0.707396667866     0.705712377649    -1.327300627443
    H            1.211423983782     1.502579210374     0.158940368175
    O           -1.423752981431    -0.530165971694    -0.141807296681
    H           -1.230095528723     1.488685702361    -0.085252035570
    H           -0.698082343355     0.635716902072     1.353824586638
    H           -0.835817585872    -1.147034310124    -0.538114919827

  Mulliken Charges: (a.u.)
   Center  Symbol    Alpha    Beta     Spin     Total
       1     H     0.39165  0.39165  0.00000  0.21670
       2     O     4.20166  4.20166  0.00000 -0.40331
       3     C     2.98647  2.98647  0.00000  0.02706
       4     C     2.94585  2.94585  0.00000  0.10830
       5     H     0.46878  0.46878  0.00000  0.06245
       6     H     0.46703  0.46703  0.00000  0.06595
       7     O     4.20922  4.20922  0.00000 -0.41844
       8     H     0.47053  0.47053  0.00000  0.05895
       9     H     0.47274  0.47274  0.00000  0.05453
      10     H     0.38609  0.38609  0.00000  0.22782

   Total alpha = 17.00000, Total beta = 17.00000, Total charge = -0.00000
