  ==> Input File <==

--------------------------------------------------------------------------
set {
	reference rhf
	basis cc-pvtz
}

set_num_threads( 4 )
memory 2 gb

molecule MOL {
0 1

H	 2.080645	 -0.480131	 -0.781139
O	 1.583947	 -0.677544	 -0.001533
C	 0.489979	 0.078084	 0.002623
C	 -0.763662	 -0.754014	 0.000816
O	 0.539051	 1.259395	 -0.000088
C	 -2.038001	 0.074705	 -0.000833
H	 -0.712945	 -1.405886	 -0.864342
H	 -0.715137	 -1.405770	 0.866182
H	 -2.087267	 0.710831	 -0.874232
H	 -2.903419	 -0.576199	 -0.001922
H	 -2.089467	 0.710909	 0.872389

	symmetry c1
}
set optking {
	frozen_dihedral = ("
		1 2 3 5
	")
}

ee = optimize('scf')
oeprop('DIPOLE', 'QUADRUPOLE', 'MULLIKEN_CHARGES')
f=open( 'psi4out.xyz', 'w' )
f.write( "11  " )
f.write( str(ee) + "\n" )
f.write( MOL.save_string_xyz() )
f.close()
--------------------------------------------------------------------------

    Molecular point group: c1
  Charge       = 0
  Multiplicity = 1
  Basis Set: CC-PVTZ
  Basis Set:
  @DF-RHF Final Energy:  -266.93798012211789
    Total Energy =                       -266.9379801221178923
    Molecular point group: c1
  Basis Set: CC-PVTZ
  Basis Set:
  Basis Set: CC-PVTZ
  Basis Set:
  @DF-RHF Final Energy:  -266.93647663460536
    Total Energy =                       -266.9364766346052420
  Basis Set: CC-PVTZ
  Basis Set:
  Basis Set: CC-PVTZ
  Basis Set:
  @DF-RHF Final Energy:  -266.93924678928045
    Total Energy =                       -266.9392467892803325
  Basis Set: CC-PVTZ
  Basis Set:
  Basis Set: CC-PVTZ
  Basis Set:
  @DF-RHF Final Energy:  -266.93940618213617
    Total Energy =                       -266.9394061821360538
  Basis Set: CC-PVTZ
  Basis Set:
  Basis Set: CC-PVTZ
  Basis Set:
  @DF-RHF Final Energy:  -266.93941196695232
    Total Energy =                       -266.9394119669523207
  Basis Set: CC-PVTZ
  Basis Set:
  Charge       = 0
  Multiplicity = 1
  Basis Set: CC-PVTZ
  Basis Set:

    Orbital Energies (a.u.)
    -----------------------

    Doubly Occupied:

       1A    -20.592080     2A    -20.548787     3A    -11.374892
       4A    -11.242940     5A    -11.218974     6A     -1.467638
       7A     -1.371455     8A     -1.065216     9A     -0.914482
      10A     -0.805617    11A     -0.710762    12A     -0.684648
      13A     -0.661361    14A     -0.612604    15A     -0.573371
      16A     -0.528564    17A     -0.526687    18A     -0.504884
      19A     -0.490914    20A     -0.449033

  @DF-RHF Final Energy:  -266.93941292791783

   => Energetics <=

    Nuclear Repulsion Energy =            179.5962727341951393
    One-Electron Energy =                -720.3815529494097518
    Two-Electron Energy =                 273.8458672872968691
    DFT Exchange-Correlation Energy =       0.0000000000000000
    Empirical Dispersion Energy =           0.0000000000000000
    PCM Polarization Energy =               0.0000000000000000
    EFP Energy =                            0.0000000000000000
    Total Energy =                       -266.9394129279177150
    Molecular point group: c1
  Basis Set: CC-PVTZ
  Basis Set:

  -Total Gradient:
     Atom            X                  Y                   Z
    ------   -----------------  -----------------  -----------------
       1       -0.004562411983    -0.007351735106    -0.005442052646
       2        0.005266932964     0.009240961836     0.011024134389
       3        0.000017445585    -0.001931760207    -0.014668186184
       4        0.000052981365     0.000007186890    -0.000065132564
       5       -0.000768172055     0.000013671322     0.009069835628
       6       -0.000013339389    -0.000013562366     0.000031315539
       7        0.000006685395     0.000011171432     0.000032708516
       8        0.000008208921     0.000015240391     0.000037145143
       9       -0.000002767152     0.000002434036    -0.000009220318
      10       -0.000008912605     0.000008973398    -0.000005789160
      11        0.000003348951    -0.000002581630    -0.000004758343

  **** Optimization is complete! (in 6 steps) ****
    Final optimized geometry and variables:
    Molecular point group: c1

    Geometry (in Angstrom), charge = 0, multiplicity = 1:

    H            2.192413158671    -0.507284385975    -0.654314756828
    O            1.604470954710    -0.672945263387     0.064566491692
    C            0.490501957075     0.086509931801    -0.032570419855
    C           -0.763958197098    -0.743434894407    -0.002268155973
    O            0.531111997547     1.262282067890    -0.040752182958
    C           -2.042031544090     0.077353489750     0.045243493643
    H           -0.738818141589    -1.390143927090    -0.873749481652
    H           -0.680928823444    -1.405047966990     0.853247903271
    H           -2.123424275326     0.722356826447    -0.819450492881
    H           -2.904717300591    -0.577058682549     0.066307617453
    H           -2.067659459800     0.704833614758     0.926119275516

  Mulliken Charges: (a.u.)
   Center  Symbol    Alpha    Beta     Spin     Total
       1     H     0.38230  0.38230  0.00000  0.23541
       2     O     4.17509  4.17509  0.00000 -0.35019
       3     C     2.80330  2.80330  0.00000  0.39340
       4     C     3.09949  3.09949  0.00000 -0.19899
       5     O     4.17021  4.17021  0.00000 -0.34042
       6     C     3.13970  3.13970  0.00000 -0.27939
       7     H     0.44571  0.44571  0.00000  0.10858
       8     H     0.43860  0.43860  0.00000  0.12280
       9     H     0.44864  0.44864  0.00000  0.10272
      10     H     0.44986  0.44986  0.00000  0.10027
      11     H     0.44710  0.44710  0.00000  0.10580

   Total alpha = 20.00000, Total beta = 20.00000, Total charge = -0.00000
