  ==> Input File <==

--------------------------------------------------------------------------
set {
	reference rhf
	basis 6-31G*
}

set_num_threads( 1 )
memory 2 gb

molecule MOL {
0 1

O	 0.749854	 1.307668	 -0.000040
C	 0.576249	 0.131685	 -0.000108
C	 -0.766779	 -0.556801	 -0.000461
O	 1.568443	 -0.749345	 -0.000005
C	 -1.945214	 0.412366	 0.000161
H	 -0.796911	 -1.211249	 -0.867467
H	 -0.796854	 -1.212390	 0.865687
C	 -3.287791	 -0.317055	 0.000105
H	 -1.876087	 1.060580	 -0.866812
H	 -1.875822	 1.059691	 0.867761
H	 -3.394745	 -0.949193	 -0.877058
H	 -4.111778	 0.388953	 0.000015
H	 -3.394954	 -0.949187	 0.877259
C	 1.323522	 -1.993160	 -0.630993
H	 0.503878	 -2.507978	 -0.150694
H	 2.234615	 -2.561376	 -0.526569
H	 1.089308	 -1.849582	 -1.676000

	symmetry c1
}
set optking {
	frozen_dihedral = ("
		1 2 3 6,
		9 5 3 6
	")
}

ee = energy('scf')
oeprop('DIPOLE', 'QUADRUPOLE', 'MULLIKEN_CHARGES')
f=open( 'psi4out.xyz', 'w' )
f.write( "17  " )
f.write( str(ee) + "\n" )
f.write( MOL.save_string_xyz() )
f.close()
--------------------------------------------------------------------------

    Molecular point group: c1

    Geometry (in Angstrom), charge = 0, multiplicity = 1:

       Center              X                  Y                   Z               Mass
    ------------   -----------------  -----------------  -----------------  -----------------
           O          0.991219619305     1.579499394101     0.097429933645    15.994914619560
           C          0.817614619305     0.403516394101     0.097361933645    12.000000000000
           C         -0.525413380695    -0.284969605899     0.097008933645    12.000000000000
           O          1.809808619305    -0.477513605899     0.097464933645    15.994914619560
           C         -1.703848380695     0.684197394101     0.097630933645    12.000000000000
           H         -0.555545380695    -0.939417605899    -0.769997066355     1.007825032070
           H         -0.555488380695    -0.940558605899     0.963156933645     1.007825032070
           C         -3.046425380695    -0.045223605899     0.097574933645    12.000000000000
           H         -1.634721380695     1.332411394101    -0.769342066355     1.007825032070
           H         -1.634456380695     1.331522394101     0.965230933645     1.007825032070
           H         -3.153379380695    -0.677361605899    -0.779588066355     1.007825032070
           H         -3.870412380695     0.660784394101     0.097484933645     1.007825032070
           H         -3.153588380695    -0.677355605899     0.974728933645     1.007825032070
           C          1.564887619305    -1.721328605899    -0.533523066355    12.000000000000
           H          0.745243619305    -2.236146605899    -0.053224066355     1.007825032070
           H          2.475980619305    -2.289544605899    -0.429099066355     1.007825032070
           H          1.330673619305    -1.577750605899    -1.578530066355     1.007825032070

  Charge       = 0
  Multiplicity = 1
  Basis Set: 6-31G*
  Basis Set:

    Orbital Energies (a.u.)
    -----------------------

    Doubly Occupied:

       1A    -20.603335     2A    -20.547408     3A    -11.375124
       4A    -11.297742     5A    -11.242054     6A    -11.225746
       7A    -11.218711     8A     -1.467662     9A     -1.369920
      10A     -1.083733    11A     -0.989783    12A     -0.975561
      13A     -0.843167    14A     -0.764740    15A     -0.705535
      16A     -0.692538    17A     -0.678931    18A     -0.640413
      19A     -0.608451    20A     -0.579396    21A     -0.570451
      22A     -0.554527    23A     -0.527849    24A     -0.497921
      25A     -0.490665    26A     -0.483683    27A     -0.453898
      28A     -0.431307

  @DF-RHF Final Energy:  -344.88107088503727

   => Energetics <=

    Nuclear Repulsion Energy =            316.9795602332975477
    One-Electron Energy =               -1097.8808145157972831
    Two-Electron Energy =                 436.0201833974626311
    DFT Exchange-Correlation Energy =       0.0000000000000000
    Empirical Dispersion Energy =           0.0000000000000000
    PCM Polarization Energy =               0.0000000000000000
    EFP Energy =                            0.0000000000000000
    Total Energy =                       -344.8810708850371043

  Mulliken Charges: (a.u.)
   Center  Symbol    Alpha    Beta     Spin     Total
       1     O     4.26901  4.26901  0.00000 -0.53803
       2     C     2.59361  2.59361  0.00000  0.81277
       3     C     3.24178  3.24178  0.00000 -0.48357
       4     O     4.30078  4.30078  0.00000 -0.60156
       5     C     3.14830  3.14830  0.00000 -0.29660
       6     H     0.40293  0.40293  0.00000  0.19413
       7     H     0.39908  0.39908  0.00000  0.20185
       8     C     3.24283  3.24283  0.00000 -0.48566
       9     H     0.40993  0.40993  0.00000  0.18013
      10     H     0.40859  0.40859  0.00000  0.18281
      11     H     0.42291  0.42291  0.00000  0.15419
      12     H     0.41382  0.41382  0.00000  0.17235
      13     H     0.42185  0.42185  0.00000  0.15629
      14     C     3.10468  3.10468  0.00000 -0.20935
      15     H     0.41202  0.41202  0.00000  0.17595
      16     H     0.39680  0.39680  0.00000  0.20639
      17     H     0.41106  0.41106  0.00000  0.17789

   Total alpha = 28.00000, Total beta = 28.00000, Total charge = -0.00000
