                              Psi4 1.0.54 Driver

  ==> Input File <==

--------------------------------------------------------------------------
set {
	reference rhf
	basis cc-pvtz
}

set_num_threads( 4 )
memory 2 gb

molecule MOL {
0 1

H	 3.864487	 -3.059727	 -1.103304
C	 3.509558	 -2.204732	 -1.667110
C	 2.126421	 -1.769046	 -1.195480
H	 4.231553	 -1.404804	 -1.544418
H	 3.498066	 -2.481977	 -2.716301
C	 1.588711	 -0.571608	 -1.975853
H	 2.169283	 -1.523316	 -0.140625
H	 1.434189	 -2.601861	 -1.295764
C	 0.202662	 -0.116946	 -1.529717
H	 2.278092	 0.258736	 -1.885791
H	 1.539858	 -0.829060	 -3.029947
C	 0.166485	 0.574257	 -0.177158
H	 -0.198879	 0.596996	 -2.244431
H	 -0.495528	 -0.948800	 -1.521489
C	 -1.180025	 0.697761	 0.509157
O	 1.148376	 1.022369	 0.321200
C	 -2.285431	 -0.137488	 -0.145671
H	 -1.447360	 1.745713	 0.496200
H	 -1.065514	 0.394096	 1.546399
C	 -3.646545	 0.082747	 0.508954
H	 -2.348635	 0.118247	 -1.199806
H	 -2.034895	 -1.192387	 -0.096473
C	 -4.757412	 -0.737227	 -0.138149
H	 -3.900211	 1.137405	 0.459735
H	 -3.580878	 -0.166775	 1.564416
H	 -4.867876	 -0.486707	 -1.187777
H	 -4.549650	 -1.800049	 -0.072540
H	 -5.709585	 -0.556397	 0.346597

	symmetry c1
}
set optking {
	frozen_dihedral = ("
		16 12 15 17
	")
}

ee,wfn = optimize('scf', return_wfn=True)
oeprop( wfn, 'DIPOLE', 'QUADRUPOLE', 'MULLIKEN_CHARGES')
f=open( 'psi4out.xyz', 'w' )
f.write( "28  " )
f.write( str(ee) + "\n" )
f.write( MOL.save_string_xyz() )
f.close()
--------------------------------------------------------------------------

    Molecular point group: c1
  Charge       = 0
  Multiplicity = 1
  Basis Set: CC-PVTZ
  Basis Set:
  @DF-RHF Final Energy:  -426.31389017096512
    Total Energy =                       -426.3138901709648962
    Molecular point group: c1
  Basis Set: CC-PVTZ
  Basis Set:
  Basis Set: CC-PVTZ
  Basis Set:
  @DF-RHF Final Energy:  -426.29238418911439
    Total Energy =                       -426.2923841891145003
  Basis Set: CC-PVTZ
  Basis Set:
  Basis Set: CC-PVTZ
  Basis Set:
  @DF-RHF Final Energy:  -426.31609946487788
    Total Energy =                       -426.3160994648776523
  Basis Set: CC-PVTZ
  Basis Set:
  Basis Set: CC-PVTZ
  Basis Set:
  @DF-RHF Final Energy:  -426.31520603915885
    Total Energy =                       -426.3152060391594205
  Basis Set: CC-PVTZ
  Basis Set:
  @DF-RHF Final Energy:  -426.30370096878619
    Total Energy =                       -426.3037009687864156
  @DF-RHF Final Energy:  -426.31703172585469
    Total Energy =                       -426.3170317258546902
  @DF-RHF Final Energy:  -426.31702211938477
    Total Energy =                       -426.3170221193852285
  @DF-RHF Final Energy:  -426.31752868114927
    Total Energy =                       -426.3175286811492697
  Basis Set: CC-PVTZ
  Basis Set:
  @DF-RHF Final Energy:  -426.31751134555236
    Total Energy =                       -426.3175113455524752
  Basis Set: CC-PVTZ
  Basis Set:
  Basis Set: CC-PVTZ
  Basis Set:
  @DF-RHF Final Energy:  -426.31755605442743
    Total Energy =                       -426.3175560544270866
  Basis Set: CC-PVTZ
  Basis Set:
  Basis Set: CC-PVTZ
  Basis Set:
  @DF-RHF Final Energy:  -426.31755993232559
    Total Energy =                       -426.3175599323246843
  Basis Set: CC-PVTZ
  Basis Set:
  Charge       = 0
  Multiplicity = 1
  Basis Set: CC-PVTZ
  Basis Set:

    Orbital Energies (a.u.)
    -----------------------

    Doubly Occupied:

       1A    -20.533873     2A    -11.318464     3A    -11.228949
       4A    -11.228206     5A    -11.227366     6A    -11.223867
       7A    -11.214687     8A    -11.214064     9A    -11.209183
      10A    -11.202969    11A     -1.395969    12A     -1.096050
      13A     -1.078160    14A     -1.022326    15A     -0.991768
      16A     -0.907032    17A     -0.876679    18A     -0.809923
      19A     -0.800583    20A     -0.721699    21A     -0.666209
      22A     -0.661188    23A     -0.629869    24A     -0.619568
      25A     -0.609703    26A     -0.587716    27A     -0.582408
      28A     -0.572472    29A     -0.543187    30A     -0.531281
      31A     -0.523980    32A     -0.513089    33A     -0.492235
      34A     -0.487870    35A     -0.480646    36A     -0.474913
      37A     -0.470624    38A     -0.465705    39A     -0.455430
      40A     -0.393849

  @DF-RHF Final Energy:  -426.31756004028284

   => Energetics <=

    Nuclear Repulsion Energy =            532.7284976610530975
    One-Electron Energy =               -1633.9645940992531905
    Two-Electron Energy =                 674.9185363979175918
    DFT Exchange-Correlation Energy =       0.0000000000000000
    Empirical Dispersion Energy =           0.0000000000000000
    PCM Polarization Energy =               0.0000000000000000
    EFP Energy =                            0.0000000000000000
    Total Energy =                       -426.3175600402825012
    Molecular point group: c1
  Basis Set: CC-PVTZ
  Basis Set:

  -Total Gradient:
     Atom            X                  Y                   Z
    ------   -----------------  -----------------  -----------------
       1        0.000001547316    -0.000007251761     0.000001291852
       2       -0.000007312815     0.000005376530     0.000010404667
       3       -0.000001673405    -0.000012575610    -0.000004768032
       4        0.000007037997     0.000008612672     0.000000370728
       5       -0.000001158640     0.000001031495    -0.000005011961
       6       -0.000009526753     0.000015893119     0.000014456049
       7        0.000003331226    -0.000001614922    -0.000000031246
       8       -0.000007023973    -0.000007690249    -0.000004528554
       9        0.000011366521    -0.000030545359    -0.000005162441
      10        0.000013047687     0.000013297046     0.000002894059
      11       -0.000006064829     0.000005353892    -0.000001765299
      12        0.000236280483    -0.001121047350    -0.000102616068
      13        0.000005895354     0.000003846744     0.000000476277
      14       -0.000009145997    -0.000007936842    -0.000006551453
      15        0.000305197280    -0.000839853170     0.000164188151
      16       -0.000257601827     0.001123999236     0.000031498148
      17       -0.000272316219     0.000845357189    -0.000101820115
      18       -0.000008119700     0.000001848033     0.000000677198
      19       -0.000002086160    -0.000004591833     0.000001271128
      20       -0.000001038478     0.000004628413     0.000007933811
      21        0.000001953645     0.000004685269    -0.000003477463
      22        0.000003135842     0.000000142669     0.000000295141
      23       -0.000001727864    -0.000000217129    -0.000004217126
      24       -0.000004303246     0.000001536245     0.000001982764
      25        0.000001191930    -0.000000211373     0.000001420408
      26       -0.000000360264     0.000000431617    -0.000001169186
      27        0.000000195368    -0.000000556688    -0.000000778619
      28       -0.000000720483    -0.000001947877     0.000002737181

  **** Optimization is complete! (in 12 steps) ****
    Final optimized geometry and variables:
    Molecular point group: c1

    Geometry (in Angstrom), charge = 0, multiplicity = 1:

    H            4.604660064630    -1.032699014919    -2.256897938590
    C            3.990429588649    -0.139924639852    -2.232472071934
    C            2.647432607811    -0.413416288650    -1.564084951046
    H            4.541602955259     0.625892748911    -1.697655140802
    H            3.859655666903     0.199665528607    -3.255001684488
    C            1.748604639218     0.820759547742    -1.524946598961
    H            2.814579642584    -0.770203442753    -0.555145117793
    H            2.136203076190    -1.210272246832    -2.099511087216
    C            0.394517761391     0.579521559993    -0.865788231852
    H            2.258519347878     1.623745884374    -1.006800880164
    H            1.574270231790     1.161478639928    -2.541587604571
    C            0.433758576697     0.461239877789     0.645306665662
    H           -0.284632660130     1.399600975666    -1.088341111917
    H           -0.080498696985    -0.305944780100    -1.275502695184
    C           -0.848753978103     0.141319931103     1.404817760620
    O            1.428780718285     0.668038948864     1.262135903188
    C           -2.064640746020    -0.348699993793     0.623376590368
    H           -1.100386281601     1.055866070528     1.935306072571
    H           -0.573622504928    -0.575367797694     2.169705798711
    C           -3.265751656024    -0.603377145498     1.531183763555
    H           -2.343192839204     0.377126725748    -0.133971307243
    H           -1.822105956044    -1.266786865216     0.095723779555
    C           -4.491453004942    -1.100611098878     0.772720499810
    H           -3.515416630289     0.312022489678     2.060276553009
    H           -2.992759268296    -1.329310002159     2.291674560607
    H           -4.810135327936    -0.379785102496     0.027144338409
    H           -4.283371795531    -2.034306924438     0.261012017696
    H           -5.324525367773    -1.270926631941     1.444470915034

  Mulliken Charges: (a.u.)
   Center  Symbol    Alpha    Beta     Spin     Total
       1     H     0.44873  0.44873  0.00000  0.10254
       2     C     3.15203  3.15203  0.00000 -0.30406
       3     C     3.08366  3.08366  0.00000 -0.16733
       4     H     0.45190  0.45190  0.00000  0.09620
       5     H     0.45726  0.45726  0.00000  0.08548
       6     C     3.08642  3.08642  0.00000 -0.17283
       7     H     0.44424  0.44424  0.00000  0.11151
       8     H     0.45922  0.45922  0.00000  0.08157
       9     C     3.13202  3.13202  0.00000 -0.26404
      10     H     0.44576  0.44576  0.00000  0.10847
      11     H     0.44780  0.44780  0.00000  0.10439
      12     C     2.87640  2.87640  0.00000  0.24719
      13     H     0.43270  0.43270  0.00000  0.13461
      14     H     0.43911  0.43911  0.00000  0.12178
      15     C     3.08527  3.08527  0.00000 -0.17053
      16     O     4.18214  4.18214  0.00000 -0.36427
      17     C     3.10197  3.10197  0.00000 -0.20394
      18     H     0.44083  0.44083  0.00000  0.11834
      19     H     0.43722  0.43722  0.00000  0.12557
      20     C     3.08652  3.08652  0.00000 -0.17305
      21     H     0.44947  0.44947  0.00000  0.10107
      22     H     0.44998  0.44998  0.00000  0.10004
      23     C     3.14946  3.14946  0.00000 -0.29891
      24     H     0.45259  0.45259  0.00000  0.09482
      25     H     0.45139  0.45139  0.00000  0.09722
      26     H     0.45489  0.45489  0.00000  0.09022
      27     H     0.45452  0.45452  0.00000  0.09095
      28     H     0.44649  0.44649  0.00000  0.10701

   Total alpha = 40.00000, Total beta = 40.00000, Total charge = -0.00000

*** Psi4 exiting successfully. Buy a developer a beer!
