  ==> Input File <==

--------------------------------------------------------------------------
set {
	reference rhf
	basis 6-31G*
}

set_num_threads( 1 )
memory 2 gb

molecule MOL {
0 1

O	 1.846825	 1.296220	 0.000415
C	 1.705091	 0.115954	 0.001797
C	 0.381791	 -0.609817	 0.001258
O	 2.721346	 -0.737485	 -0.000216
C	 -0.823008	 0.326187	 0.001381
H	 0.371250	 -1.265087	 -0.865474
H	 0.370908	 -1.265746	 0.867490
C	 -0.505695	 1.680586	 0.636974
H	 -1.643423	 -0.147075	 0.531599
H	 -1.165468	 0.468439	 -1.018812
C	 -1.703564	 2.631838	 0.646282
H	 -0.159434	 1.530929	 1.658592
H	 0.319295	 2.149031	 0.102341
C	 -1.385566	 3.985376	 1.280366
H	 -2.527740	 2.166391	 1.182225
H	 -2.050061	 2.783022	 -0.373630
H	 -1.068873	 3.870155	 2.313151
H	 -2.253765	 4.636996	 1.271818
H	 -0.587016	 4.491511	 0.745150
C	 4.024888	 -0.184556	 -0.001949
H	 4.179030	 0.422472	 -0.882452
H	 4.701782	 -1.024608	 -0.003642
H	 4.181981	 0.421185	 0.878906

	symmetry c1
}
set optking {
	frozen_dihedral = ("
		15 11 8 12,
		9 5 8 12,
		1 2 3 6,
		1 2 4 20
	")
}

ee = energy('scf')
oeprop('DIPOLE', 'QUADRUPOLE', 'MULLIKEN_CHARGES')
f=open( 'psi4out.xyz', 'w' )
f.write( "23  " )
f.write( str(ee) + "\n" )
f.write( MOL.save_string_xyz() )
f.close()
--------------------------------------------------------------------------

    Molecular point group: c1

    Geometry (in Angstrom), charge = 0, multiplicity = 1:

       Center              X                  Y                   Z               Mass
    ------------   -----------------  -----------------  -----------------  -----------------
           O          1.108281156248     0.345624502383    -0.285934482280    15.994914619560
           C          0.966547156248    -0.834641497617    -0.284552482280    12.000000000000
           C         -0.356752843752    -1.560412497617    -0.285091482280    12.000000000000
           O          1.982802156248    -1.688080497617    -0.286565482280    15.994914619560
           C         -1.561551843752    -0.624408497617    -0.284968482280    12.000000000000
           H         -0.367293843752    -2.215682497617    -1.151823482280     1.007825032070
           H         -0.367635843752    -2.216341497617     0.581140517720     1.007825032070
           C         -1.244238843752     0.729990502383     0.350624517720    12.000000000000
           H         -2.381966843752    -1.097670497617     0.245249517720     1.007825032070
           H         -1.904011843752    -0.482156497617    -1.305161482280     1.007825032070
           C         -2.442107843752     1.681242502383     0.359932517720    12.000000000000
           H         -0.897977843752     0.580333502383     1.372242517720     1.007825032070
           H         -0.419248843752     1.198435502383    -0.184008482280     1.007825032070
           C         -2.124109843752     3.034780502383     0.994016517720    12.000000000000
           H         -3.266283843752     1.215795502383     0.895875517720     1.007825032070
           H         -2.788604843752     1.832426502383    -0.659979482280     1.007825032070
           H         -1.807416843752     2.919559502383     2.026801517720     1.007825032070
           H         -2.992308843752     3.686400502383     0.985468517720     1.007825032070
           H         -1.325559843752     3.540915502383     0.458800517720     1.007825032070
           C          3.286344156248    -1.135151497617    -0.288298482280    12.000000000000
           H          3.440486156248    -0.528123497617    -1.168801482280     1.007825032070
           H          3.963238156248    -1.975203497617    -0.289991482280     1.007825032070
           H          3.443437156248    -0.529410497617     0.592556517720     1.007825032070

  Charge       = 0
  Multiplicity = 1
  Basis Set: 6-31G*
  Basis Set:

    Orbital Energies (a.u.)
    -----------------------

    Doubly Occupied:

       1A    -20.607425     2A    -20.545946     3A    -11.378152
       4A    -11.283532     5A    -11.236897     6A    -11.216886
       7A    -11.199907     8A    -11.197141     9A    -11.186129
      10A     -1.474839    11A     -1.371279    12A     -1.086088
      13A     -1.035624    14A     -0.985419    15A     -0.924094
      16A     -0.839273    17A     -0.788601    18A     -0.773185
      19A     -0.699396    20A     -0.687228    21A     -0.674627
      22A     -0.639964    23A     -0.609379    24A     -0.598057
      25A     -0.559062    26A     -0.551794    27A     -0.549165
      28A     -0.530261    29A     -0.519305    30A     -0.514134
      31A     -0.484199    32A     -0.470899    33A     -0.464186
      34A     -0.448169    35A     -0.441242    36A     -0.397845

  @DF-RHF Final Energy:  -422.94637070210837

   => Energetics <=

    Nuclear Repulsion Energy =            473.3019509708538521
    One-Electron Energy =               -1514.5583639276969734
    Two-Electron Energy =                 618.3100422547342987
    DFT Exchange-Correlation Energy =       0.0000000000000000
    Empirical Dispersion Energy =           0.0000000000000000
    PCM Polarization Energy =               0.0000000000000000
    EFP Energy =                            0.0000000000000000
    Total Energy =                       -422.9463707021088794

  Mulliken Charges: (a.u.)
   Center  Symbol    Alpha    Beta     Spin     Total
       1     O     4.28846  4.28846  0.00000 -0.57692
       2     C     2.60082  2.60082  0.00000  0.79836
       3     C     3.21166  3.21166  0.00000 -0.42332
       4     O     4.30736  4.30736  0.00000 -0.61471
       5     C     3.15607  3.15607  0.00000 -0.31214
       6     H     0.39678  0.39678  0.00000  0.20644
       7     H     0.39787  0.39787  0.00000  0.20427
       8     C     3.16793  3.16793  0.00000 -0.33585
       9     H     0.41776  0.41776  0.00000  0.16448
      10     H     0.41829  0.41829  0.00000  0.16342
      11     C     3.14822  3.14822  0.00000 -0.29645
      12     H     0.43178  0.43178  0.00000  0.13644
      13     H     0.37503  0.37503  0.00000  0.24994
      14     C     3.23764  3.23764  0.00000 -0.47528
      15     H     0.43111  0.43111  0.00000  0.13778
      16     H     0.42749  0.42749  0.00000  0.14501
      17     H     0.42364  0.42364  0.00000  0.15271
      18     H     0.42268  0.42268  0.00000  0.15464
      19     H     0.42105  0.42105  0.00000  0.15791
      20     C     3.09289  3.09289  0.00000 -0.18578
      21     H     0.40896  0.40896  0.00000  0.18208
      22     H     0.40771  0.40771  0.00000  0.18457
      23     H     0.40880  0.40880  0.00000  0.18240

   Total alpha = 36.00000, Total beta = 36.00000, Total charge = -0.00000
