  ==> Input File <==

--------------------------------------------------------------------------
set {
	reference rhf
	basis 6-31G*
}

set_num_threads( 1 )
memory 2 gb

molecule MOL {
0 1

O	 0.717782	 -0.049732	 0.642803
C	 1.705091	 0.115954	 0.001797
C	 1.980094	 1.295527	 -0.898674
O	 2.721346	 -0.737485	 -0.000216
C	 0.842103	 2.311164	 -0.931900
H	 2.906198	 1.752752	 -0.561051
H	 2.188280	 0.904844	 -1.891017
C	 1.147551	 3.495227	 -1.850462
H	 0.649890	 2.665886	 0.075778
H	 -0.068477	 1.817481	 -1.256600
C	 0.016780	 4.524415	 -1.895052
H	 2.063634	 3.983872	 -1.521806
H	 1.341716	 3.132803	 -2.858842
C	 0.322041	 5.706653	 -2.813955
H	 -0.176684	 4.889355	 -0.888806
H	 -0.898813	 4.037996	 -2.224025
H	 1.214231	 6.235181	 -2.490120
H	 -0.497826	 6.418101	 -2.824466
H	 0.486827	 5.376962	 -3.835943
C	 4.024888	 -0.184556	 -0.001949
H	 4.179030	 0.422472	 -0.882452
H	 4.701782	 -1.024608	 -0.003642
H	 4.181981	 0.421185	 0.878906

	symmetry c1
}
set optking {
	frozen_dihedral = ("
		15 11 8 12,
		9 5 8 12,
		1 2 3 6,
		9 5 3 6
	")
}

ee = energy('scf')
oeprop('DIPOLE', 'QUADRUPOLE', 'MULLIKEN_CHARGES')
f=open( 'psi4out.xyz', 'w' )
f.write( "23  " )
f.write( str(ee) + "\n" )
f.write( MOL.save_string_xyz() )
f.close()
--------------------------------------------------------------------------

    Molecular point group: c1

    Geometry (in Angstrom), charge = 0, multiplicity = 1:

       Center              X                  Y                   Z               Mass
    ------------   -----------------  -----------------  -----------------  -----------------
           O         -0.803494900066    -1.863241921694     1.494821093311    15.994914619560
           C          0.183814099934    -1.697555921694     0.853815093311    12.000000000000
           C          0.458817099934    -0.517982921694    -0.046655906689    12.000000000000
           O          1.200069099934    -2.550994921694     0.851802093311    15.994914619560
           C         -0.679173900066     0.497654078306    -0.079881906689    12.000000000000
           H          1.384921099934    -0.060757921694     0.290967093311     1.007825032070
           H          0.667003099934    -0.908665921694    -1.038998906689     1.007825032070
           C         -0.373725900066     1.681717078306    -0.998443906689    12.000000000000
           H         -0.871386900066     0.852376078306     0.927796093311     1.007825032070
           H         -1.589753900066     0.003971078306    -0.404581906689     1.007825032070
           C         -1.504496900066     2.710905078306    -1.043033906689    12.000000000000
           H          0.542357099934     2.170362078306    -0.669787906689     1.007825032070
           H         -0.179560900066     1.319293078306    -2.006823906689     1.007825032070
           C         -1.199235900066     3.893143078306    -1.961936906689    12.000000000000
           H         -1.697960900066     3.075845078306    -0.036787906689     1.007825032070
           H         -2.420089900066     2.224486078306    -1.372006906689     1.007825032070
           H         -0.307045900066     4.421671078306    -1.638101906689     1.007825032070
           H         -2.019102900066     4.604591078306    -1.972447906689     1.007825032070
           H         -1.034449900066     3.563452078306    -2.983924906689     1.007825032070
           C          2.503611099934    -1.998065921694     0.850069093311    12.000000000000
           H          2.657753099934    -1.391037921694    -0.030433906689     1.007825032070
           H          3.180505099934    -2.838117921694     0.848376093311     1.007825032070
           H          2.660704099934    -1.392324921694     1.730924093311     1.007825032070

  Charge       = 0
  Multiplicity = 1
  Basis Set: 6-31G*
  Basis Set:

    Orbital Energies (a.u.)
    -----------------------

    Doubly Occupied:

       1A    -20.599361     2A    -20.549156     3A    -11.374473
       4A    -11.297184     5A    -11.240379     6A    -11.222599
       7A    -11.221409     8A    -11.219137     9A    -11.212100
      10A     -1.466265    11A     -1.369503    12A     -1.096235
      13A     -1.042469    14A     -0.987661    15A     -0.955213
      16A     -0.856823    17A     -0.799457    18A     -0.765692
      19A     -0.700673    20A     -0.687962    21A     -0.678956
      22A     -0.654783    23A     -0.620244    24A     -0.604254
      25A     -0.582209    26A     -0.565408    27A     -0.561409
      28A     -0.544542    29A     -0.515200    30A     -0.506855
      31A     -0.487595    32A     -0.473460    33A     -0.469477
      34A     -0.467100    35A     -0.453265    36A     -0.428823

  @DF-RHF Final Energy:  -422.95026183024771

   => Energetics <=

    Nuclear Repulsion Energy =            457.6375556309420176
    One-Electron Energy =               -1482.6209247300616880
    Two-Electron Energy =                 602.0331072688732093
    DFT Exchange-Correlation Energy =       0.0000000000000000
    Empirical Dispersion Energy =           0.0000000000000000
    PCM Polarization Energy =               0.0000000000000000
    EFP Energy =                            0.0000000000000000
    Total Energy =                       -422.9502618302465180

  Mulliken Charges: (a.u.)
   Center  Symbol    Alpha    Beta     Spin     Total
       1     O     4.26611  4.26611  0.00000 -0.53222
       2     C     2.59644  2.59644  0.00000  0.80712
       3     C     3.23953  3.23953  0.00000 -0.47906
       4     O     4.30215  4.30215  0.00000 -0.60430
       5     C     3.14911  3.14911  0.00000 -0.29823
       6     H     0.40349  0.40349  0.00000  0.19301
       7     H     0.39882  0.39882  0.00000  0.20235
       8     C     3.15317  3.15317  0.00000 -0.30634
       9     H     0.41128  0.41128  0.00000  0.17744
      10     H     0.40963  0.40963  0.00000  0.18074
      11     C     3.15181  3.15181  0.00000 -0.30363
      12     H     0.42575  0.42575  0.00000  0.14849
      13     H     0.42442  0.42442  0.00000  0.15116
      14     C     3.23965  3.23965  0.00000 -0.47930
      15     H     0.42102  0.42102  0.00000  0.15797
      16     H     0.42045  0.42045  0.00000  0.15909
      17     H     0.42218  0.42218  0.00000  0.15563
      18     H     0.41785  0.41785  0.00000  0.16429
      19     H     0.42177  0.42177  0.00000  0.15646
      20     C     3.10364  3.10364  0.00000 -0.20728
      21     H     0.41258  0.41258  0.00000  0.17484
      22     H     0.39775  0.39775  0.00000  0.20450
      23     H     0.41137  0.41137  0.00000  0.17727

   Total alpha = 36.00000, Total beta = 36.00000, Total charge =  0.00000
