  ==> Input File <==

--------------------------------------------------------------------------
set {
	reference rhf
	basis 6-31G*
}

set_num_threads( 1 )
memory 2 gb

molecule MOL {
0 1

O	 3.225979	 0.970355	 -0.599647
C	 2.701189	 0.057885	 -0.047330
C	 1.245376	 -0.013843	 0.345420
O	 3.347903	 -1.046386	 0.304773
C	 0.854523	 -1.357501	 0.956920
H	 1.057697	 0.811843	 1.023807
H	 0.659594	 0.195419	 -0.546077
C	 -0.641496	 -1.483884	 1.264245
H	 1.431127	 -1.520696	 1.862467
H	 1.144218	 -2.146612	 0.271499
C	 -1.156042	 -0.548601	 2.362244
H	 -0.838465	 -2.511024	 1.562424
H	 -1.214050	 -1.319734	 0.352518
C	 -2.626938	 -0.789442	 2.707875
H	 -0.550162	 -0.680536	 3.257409
H	 -1.031878	 0.488644	 2.059460
C	 -3.153419	 0.143070	 3.800290
H	 -2.757454	 -1.822711	 3.024978
H	 -3.232157	 -0.668186	 1.810821
C	 -4.621918	 -0.106511	 4.142225
H	 -2.549125	 0.023913	 4.697103
H	 -3.027810	 1.176282	 3.483311
H	 -4.965715	 0.569429	 4.919087
H	 -4.774859	 -1.122148	 4.496183
H	 -5.257064	 0.038522	 3.272841
C	 4.728119	 -1.109107	 -0.004993
H	 4.882018	 -1.033965	 -1.071845
H	 5.068212	 -2.067527	 0.355250
H	 5.265056	 -0.311663	 0.488280

	symmetry c1
}
set optking {
	frozen_dihedral = ("
		21 17 14 11,
		17 14 11 15,
		15 11 8 5,
		6 3 5 9,
		11 8 5 9,
		2 4 26 27,
		1 2 4 26
	")
}

ee = energy('scf')
oeprop('DIPOLE', 'QUADRUPOLE', 'MULLIKEN_CHARGES')
f=open( 'psi4out.xyz', 'w' )
f.write( "29  " )
f.write( str(ee) + "\n" )
f.write( MOL.save_string_xyz() )
f.close()
--------------------------------------------------------------------------

    Molecular point group: c1

    Geometry (in Angstrom), charge = 0, multiplicity = 1:

       Center              X                  Y                   Z               Mass
    ------------   -----------------  -----------------  -----------------  -----------------
           O          2.831830714572     1.449105810354    -1.973208159315    15.994914619560
           C          2.307040714572     0.536635810354    -1.420891159315    12.000000000000
           C          0.851227714572     0.464907810354    -1.028141159315    12.000000000000
           O          2.953754714572    -0.567635189646    -1.068788159315    15.994914619560
           C          0.460374714572    -0.878750189646    -0.416641159315    12.000000000000
           H          0.663548714572     1.290593810354    -0.349754159315     1.007825032070
           H          0.265445714572     0.674169810354    -1.919638159315     1.007825032070
           C         -1.035644285428    -1.005133189646    -0.109316159315    12.000000000000
           H          1.036978714572    -1.041945189646     0.488905840685     1.007825032070
           H          0.750069714572    -1.667861189646    -1.102062159315     1.007825032070
           C         -1.550190285428    -0.069850189646     0.988682840685    12.000000000000
           H         -1.232613285428    -2.032273189646     0.188862840685     1.007825032070
           H         -1.608198285428    -0.840983189646    -1.021043159315     1.007825032070
           C         -3.021086285428    -0.310691189646     1.334313840685    12.000000000000
           H         -0.944310285428    -0.201785189646     1.883847840685     1.007825032070
           H         -1.426026285428     0.967394810354     0.685898840685     1.007825032070
           C         -3.547567285428     0.621820810354     2.426728840685    12.000000000000
           H         -3.151602285428    -1.343960189646     1.651416840685     1.007825032070
           H         -3.626305285428    -0.189435189646     0.437259840685     1.007825032070
           C         -5.016066285428     0.372239810354     2.768663840685    12.000000000000
           H         -2.943273285428     0.502663810354     3.323541840685     1.007825032070
           H         -3.421958285428     1.655032810354     2.109749840685     1.007825032070
           H         -5.359863285428     1.048179810354     3.545525840685     1.007825032070
           H         -5.169007285428    -0.643397189646     3.122621840685     1.007825032070
           H         -5.651212285428     0.517272810354     1.899279840685     1.007825032070
           C          4.333970714572    -0.630356189646    -1.378554159315    12.000000000000
           H          4.487869714572    -0.555214189646    -2.445406159315     1.007825032070
           H          4.674063714572    -1.588776189646    -1.018311159315     1.007825032070
           H          4.870907714572     0.167087810354    -0.885281159315     1.007825032070

  Charge       = 0
  Multiplicity = 1
  Basis Set: 6-31G*
  Basis Set:

    Orbital Energies (a.u.)
    -----------------------

    Doubly Occupied:

       1A    -20.604944     2A    -20.541961     3A    -11.372370
       4A    -11.280994     5A    -11.234752     6A    -11.220616
       7A    -11.218290     8A    -11.216739     9A    -11.216197
      10A    -11.215016    11A    -11.209328    12A     -1.469683
      13A     -1.361523    14A     -1.100177    15A     -1.069102
      16A     -1.019405    17A     -0.971932    18A     -0.931743
      19A     -0.864426    20A     -0.799310    21A     -0.790615
      22A     -0.772522    23A     -0.699196    24A     -0.683523
      25A     -0.670040    26A     -0.651526    27A     -0.628155
      28A     -0.604618    29A     -0.590095    30A     -0.577425
      31A     -0.566363    32A     -0.547397    33A     -0.535647
      34A     -0.530438    35A     -0.523856    36A     -0.513124
      37A     -0.499236    38A     -0.482117    39A     -0.471718
      40A     -0.464225    41A     -0.462566    42A     -0.453212
      43A     -0.442592    44A     -0.425105

  @DF-RHF Final Energy:  -501.03985268795191

   => Energetics <=

    Nuclear Repulsion Energy =            614.7650092013352605
    One-Electron Energy =               -1900.6021425164440188
    Two-Electron Energy =                 784.7972806271582158
    DFT Exchange-Correlation Energy =       0.0000000000000000
    Empirical Dispersion Energy =           0.0000000000000000
    PCM Polarization Energy =               0.0000000000000000
    EFP Energy =                            0.0000000000000000
    Total Energy =                       -501.0398526879505425

  Mulliken Charges: (a.u.)
   Center  Symbol    Alpha    Beta     Spin     Total
       1     O     4.28855  4.28855  0.00000 -0.57710
       2     C     2.60090  2.60090  0.00000  0.79820
       3     C     3.21776  3.21776  0.00000 -0.43552
       4     O     4.30545  4.30545  0.00000 -0.61090
       5     C     3.15144  3.15144  0.00000 -0.30289
       6     H     0.39624  0.39624  0.00000  0.20752
       7     H     0.39871  0.39871  0.00000  0.20259
       8     C     3.15617  3.15617  0.00000 -0.31234
       9     H     0.41391  0.41391  0.00000  0.17218
      10     H     0.41159  0.41159  0.00000  0.17682
      11     C     3.15523  3.15523  0.00000 -0.31046
      12     H     0.41925  0.41925  0.00000  0.16151
      13     H     0.42359  0.42359  0.00000  0.15282
      14     C     3.15028  3.15028  0.00000 -0.30056
      15     H     0.42322  0.42322  0.00000  0.15356
      16     H     0.42287  0.42287  0.00000  0.15427
      17     C     3.15152  3.15152  0.00000 -0.30305
      18     H     0.42368  0.42368  0.00000  0.15264
      19     H     0.42367  0.42367  0.00000  0.15267
      20     C     3.23937  3.23937  0.00000 -0.47875
      21     H     0.42301  0.42301  0.00000  0.15398
      22     H     0.42293  0.42293  0.00000  0.15414
      23     H     0.41908  0.41908  0.00000  0.16185
      24     H     0.42177  0.42177  0.00000  0.15646
      25     H     0.42166  0.42166  0.00000  0.15669
      26     C     3.09185  3.09185  0.00000 -0.18371
      27     H     0.40866  0.40866  0.00000  0.18268
      28     H     0.40893  0.40893  0.00000  0.18214
      29     H     0.40871  0.40871  0.00000  0.18257

   Total alpha = 44.00000, Total beta = 44.00000, Total charge = -0.00000
