                              Psi4 1.0.54 Driver

  ==> Input File <==

--------------------------------------------------------------------------
set {
	reference rhf
	basis cc-pvtz
}

set_num_threads( 4 )
memory 2 gb

molecule MOL {
0 1

H	 -4.231070	 0.534630	 0.044115
O	 -3.515113	 -0.019339	 -0.206321
C	 -2.302264	 0.528872	 0.237390
C	 -1.175688	 -0.398187	 -0.171891
H	 -2.148018	 1.514076	 -0.197759
H	 -2.310727	 0.646384	 1.319032
C	 0.196029	 0.106276	 0.266738
H	 -1.201873	 -0.515469	 -1.250677
H	 -1.365975	 -1.378728	 0.252664
C	 1.330220	 -0.826136	 -0.155230
H	 0.359542	 1.097229	 -0.145561
H	 0.212134	 0.218135	 1.348778
C	 2.719700	 -0.407669	 0.328325
H	 1.339388	 -0.911200	 -1.239363
H	 1.119001	 -1.821953	 0.224128
C	 3.241564	 0.893452	 -0.276737
H	 3.418299	 -1.204729	 0.093035
H	 2.711776	 -0.323368	 1.411960
H	 3.254204	 0.841071	 -1.360784
H	 2.634460	 1.745075	 0.005842
H	 4.254264	 1.092401	 0.054971

	symmetry c1
}
set optking {
	frozen_dihedral = ("
		1 2 3 5
	")
}

ee,wfn = optimize('scf', return_wfn=True)
oeprop( wfn, 'DIPOLE', 'QUADRUPOLE', 'MULLIKEN_CHARGES')
f=open( 'psi4out.xyz', 'w' )
f.write( "21  " )
f.write( str(ee) + "\n" )
f.write( MOL.save_string_xyz() )
f.close()
--------------------------------------------------------------------------

    Molecular point group: c1
  Charge       = 0
  Multiplicity = 1
  Basis Set: CC-PVTZ
  Basis Set:
  @DF-RHF Final Energy:  -310.33305790048468
    Total Energy =                       -310.3330579004847891
    Molecular point group: c1
  Basis Set: CC-PVTZ
  Basis Set:
  Charge       = 0
  Multiplicity = 1
  Basis Set: CC-PVTZ
  Basis Set:

    Orbital Energies (a.u.)
    -----------------------

    Doubly Occupied:

       1A    -20.545382     2A    -11.264977     3A    -11.213179
       4A    -11.213074     5A    -11.211275     6A    -11.208951
       7A    -11.206089     8A     -1.363219     9A     -1.087437
      10A     -1.034461    11A     -0.955553    12A     -0.876412
      13A     -0.807578    14A     -0.779327    15A     -0.696184
      16A     -0.662908    17A     -0.623060    18A     -0.608240
      19A     -0.588658    20A     -0.571050    21A     -0.537641
      22A     -0.520749    23A     -0.511917    24A     -0.487715
      25A     -0.480018    26A     -0.460813    27A     -0.456157
      28A     -0.444279    29A     -0.437370

  @DF-RHF Final Energy:  -310.33305751179751

   => Energetics <=

    Nuclear Repulsion Energy =            312.9062485464567089
    One-Electron Energy =               -1040.7712645394367428
    Two-Electron Energy =                 417.5319584811826417
    DFT Exchange-Correlation Energy =       0.0000000000000000
    Empirical Dispersion Energy =           0.0000000000000000
    PCM Polarization Energy =               0.0000000000000000
    EFP Energy =                            0.0000000000000000
    Total Energy =                       -310.3330575117973922
    Molecular point group: c1
  Basis Set: CC-PVTZ
  Basis Set:

  -Total Gradient:
     Atom            X                  Y                   Z
    ------   -----------------  -----------------  -----------------
       1       -0.000011436369    -0.000023699829     0.000037939986
       2       -0.000006481287     0.000028423838    -0.000070235120
       3       -0.000012893233    -0.000019669574     0.000086947156
       4        0.000005605664    -0.000005920712     0.000020484854
       5        0.000017662735    -0.000025186844    -0.000042696192
       6        0.000005504631     0.000013798022     0.000014635203
       7        0.000007262650     0.000004284195    -0.000057372391
       8        0.000010189232     0.000013222999     0.000003543067
       9       -0.000012427464    -0.000012182423    -0.000005424333
      10       -0.000015177428     0.000017106189    -0.000010536311
      11       -0.000014570439    -0.000009095647    -0.000012151905
      12        0.000007677763     0.000003606919    -0.000003010003
      13       -0.000016809439     0.000015990317     0.000047762690
      14       -0.000004818818     0.000024134186    -0.000003512010
      15       -0.000011889907    -0.000015716445    -0.000011957072
      16        0.000009963642    -0.000005833125    -0.000008299237
      17        0.000000791901     0.000000329928     0.000005703925
      18        0.000008330158     0.000009422891     0.000013827190
      19       -0.000003224524     0.000002611871    -0.000004530064
      20        0.000029682607    -0.000010145748     0.000001217714
      21        0.000007057925    -0.000005481007    -0.000002337149

  **** Optimization is complete! (in 2 steps) ****
    Final optimized geometry and variables:
    Molecular point group: c1

    Geometry (in Angstrom), charge = 0, multiplicity = 1:

    H           -4.232893086005     0.529085601050     0.051566817021
    O           -3.516538319981    -0.023536641286    -0.200555740018
    C           -2.303392741106     0.527459799499     0.238885915238
    C           -1.176087962183    -0.397264368968    -0.173640044188
    H           -2.152701997622     1.512576312124    -0.197708151223
    H           -2.308387683772     0.645751128967     1.320461734012
    C            0.195958916783     0.110783046680     0.259531184727
    H           -1.205816517665    -0.515459171582    -1.252206652558
    H           -1.362535562567    -1.377858566508     0.252452700916
    C            1.329998525193    -0.823067800649    -0.159258818047
    H            0.357877503257     1.099675810496    -0.158273117856
    H            0.213894623370     0.228191799869     1.340926291754
    C            2.718470089287    -0.407521748360     0.329705796370
    H            1.342805116192    -0.907168172831    -1.243405815192
    H            1.115601405965    -1.818798975723     0.218531565218
    C            3.246087532120     0.891726653408    -0.274240525745
    H            3.416113232238    -1.206368348986     0.097757211737
    H            2.706428848030    -0.322405744566     1.413229192132
    H            3.261338950069     0.839019154188    -1.358216525919
    H            2.641027365476     1.745341705072     0.006592399255
    H            4.258563860054     1.087454046324     0.060044708602

  Mulliken Charges: (a.u.)
   Center  Symbol    Alpha    Beta     Spin     Total
       1     H     0.39762  0.39762  0.00000  0.20476
       2     O     4.19426  4.19426  0.00000 -0.38852
       3     C     2.96328  2.96328  0.00000  0.07345
       4     C     3.08381  3.08381  0.00000 -0.16762
       5     H     0.47497  0.47497  0.00000  0.05007
       6     H     0.47496  0.47496  0.00000  0.05007
       7     C     3.10326  3.10326  0.00000 -0.20651
       8     H     0.45091  0.45091  0.00000  0.09818
       9     H     0.45060  0.45060  0.00000  0.09880
      10     C     3.09426  3.09426  0.00000 -0.18851
      11     H     0.45350  0.45350  0.00000  0.09299
      12     H     0.45558  0.45558  0.00000  0.08885
      13     C     3.08986  3.08986  0.00000 -0.17972
      14     H     0.45312  0.45312  0.00000  0.09376
      15     H     0.44884  0.44884  0.00000  0.10232
      16     C     3.15234  3.15234  0.00000 -0.30467
      17     H     0.44845  0.44845  0.00000  0.10309
      18     H     0.45500  0.45500  0.00000  0.09000
      19     H     0.45465  0.45465  0.00000  0.09069
      20     H     0.45424  0.45424  0.00000  0.09151
      21     H     0.44650  0.44650  0.00000  0.10701

   Total alpha = 29.00000, Total beta = 29.00000, Total charge =  0.00000

*** Psi4 exiting successfully. Buy a developer a beer!
