  ==> Input File <==

--------------------------------------------------------------------------
set {
	reference rhf
	basis 6-31G*
}

set_num_threads( 1 )
memory 2 gb

molecule MOL {
0 1

O	 -0.291628	 1.323815	 -0.000732
C	 -0.449655	 0.146360	 0.000961
C	 -1.783294	 -0.549321	 -0.000296
O	 0.550821	 -0.724572	 0.000672
H	 -1.863538	 -1.185371	 -0.874187
H	 -2.574672	 0.185258	 -0.002793
H	 -1.866414	 -1.182381	 0.875436
C	 1.814544	 -0.250456	 0.430205
H	 2.154641	 0.553550	 -0.206399
H	 2.484880	 -1.092738	 0.359784
H	 1.760901	 0.101791	 1.450199

	symmetry c1
}
set optking {
	frozen_dihedral = ("
		2 4 8 9
	")
}

ee = energy('scf')
oeprop('DIPOLE', 'QUADRUPOLE', 'MULLIKEN_CHARGES')
f=open( 'psi4out.xyz', 'w' )
f.write( "11  " )
f.write( str(ee) + "\n" )
f.write( MOL.save_string_xyz() )
f.close()
--------------------------------------------------------------------------

    Molecular point group: c1

    Geometry (in Angstrom), charge = 0, multiplicity = 1:

       Center              X                  Y                   Z               Mass
    ------------   -----------------  -----------------  -----------------  -----------------
           O         -0.281112382241     1.335924590890    -0.092362894423    15.994914619560
           C         -0.439139382241     0.158469590890    -0.090669894423    12.000000000000
           C         -1.772778382241    -0.537211409110    -0.091926894423    12.000000000000
           O          0.561336617759    -0.712462409110    -0.090958894423    15.994914619560
           H         -1.853022382241    -1.173261409110    -0.965817894423     1.007825032070
           H         -2.564156382241     0.197367590890    -0.094423894423     1.007825032070
           H         -1.855898382241    -1.170271409110     0.783805105577     1.007825032070
           C          1.825059617759    -0.238346409110     0.338574105577    12.000000000000
           H          2.165156617759     0.565659590890    -0.298029894423     1.007825032070
           H          2.495395617759    -1.080628409110     0.268153105577     1.007825032070
           H          1.771416617759     0.113900590890     1.358568105577     1.007825032070

  Charge       = 0
  Multiplicity = 1
  Basis Set: 6-31G*
  Basis Set:

    Orbital Energies (a.u.)
    -----------------------

    Doubly Occupied:

       1A    -20.603714     2A    -20.547319     3A    -11.376664
       4A    -11.283202     5A    -11.234769     6A     -1.470614
       7A     -1.364740     8A     -1.035384     9A     -0.953952
      10A     -0.778467    11A     -0.695859    12A     -0.680742
      13A     -0.676752    14A     -0.596437    15A     -0.592229
      16A     -0.562210    17A     -0.530950    18A     -0.517075
      19A     -0.457428    20A     -0.441759

  @DF-RHF Final Energy:  -266.83390476202510

   => Energetics <=

    Nuclear Repulsion Energy =            183.2786385023025275
    One-Electron Energy =                -727.4246453003687520
    Two-Electron Energy =                 277.3121020360414377
    DFT Exchange-Correlation Energy =       0.0000000000000000
    Empirical Dispersion Energy =           0.0000000000000000
    PCM Polarization Energy =               0.0000000000000000
    EFP Energy =                            0.0000000000000000
    Total Energy =                       -266.8339047620247584

  Mulliken Charges: (a.u.)
   Center  Symbol    Alpha    Beta     Spin     Total
       1     O     4.27971  4.27971  0.00000 -0.55941
       2     C     2.62248  2.62248  0.00000  0.75505
       3     C     3.28216  3.28216  0.00000 -0.56432
       4     O     4.29996  4.29996  0.00000 -0.59993
       5     H     0.39915  0.39915  0.00000  0.20170
       6     H     0.39689  0.39689  0.00000  0.20621
       7     H     0.40112  0.40112  0.00000  0.19777
       8     C     3.09351  3.09351  0.00000 -0.18702
       9     H     0.40431  0.40431  0.00000  0.19139
      10     H     0.40781  0.40781  0.00000  0.18438
      11     H     0.41290  0.41290  0.00000  0.17420

   Total alpha = 20.00000, Total beta = 20.00000, Total charge =  0.00000
