  ==> Input File <==

--------------------------------------------------------------------------
set {
	reference rhf
	basis cc-pvtz
}

set_num_threads( 4 )
memory 2 gb

molecule MOL {
0 1

H	 -3.144994	 -1.202467	 -0.018751
O	 -2.321472	 -0.864941	 -0.318626
C	 -2.021813	 0.336996	 0.342658
C	 -0.669613	 0.837286	 -0.127252
H	 -2.780861	 1.084746	 0.127159
H	 -2.006390	 0.184138	 1.420053
C	 0.490865	 -0.082543	 0.241244
H	 -0.708709	 0.967192	 -1.204587
H	 -0.507562	 1.822272	 0.303070
C	 0.652618	 -1.255066	 -0.721892
H	 0.342799	 -0.457324	 1.247560
H	 1.412817	 0.495199	 0.259695
C	 1.817002	 -2.170573	 -0.358792
H	 -0.267141	 -1.833380	 -0.739124
H	 0.793317	 -0.877590	 -1.731549
H	 1.687671	 -2.591941	 0.632489
H	 1.904145	 -2.993319	 -1.059362
H	 2.757489	 -1.629390	 -0.365950

	symmetry c1
}
set optking {
	frozen_dihedral = ("
		10 7 4 8
	")
}

ee = optimize('scf')
oeprop('DIPOLE', 'QUADRUPOLE', 'MULLIKEN_CHARGES')
f=open( 'psi4out.xyz', 'w' )
f.write( "18  " )
f.write( str(ee) + "\n" )
f.write( MOL.save_string_xyz() )
f.close()
--------------------------------------------------------------------------

    Molecular point group: c1
  Charge       = 0
  Multiplicity = 1
  Basis Set: CC-PVTZ
  Basis Set:
  @DF-RHF Final Energy:  -271.28264682061922
    Total Energy =                       -271.2826468206194477
    Molecular point group: c1
  Basis Set: CC-PVTZ
  Basis Set:
  Basis Set: CC-PVTZ
  Basis Set:
  @DF-RHF Final Energy:  -271.28369693274618
    Total Energy =                       -271.2836969327457837
  Basis Set: CC-PVTZ
  Basis Set:
  Basis Set: CC-PVTZ
  Basis Set:
  @DF-RHF Final Energy:  -271.28379391893662
    Total Energy =                       -271.2837939189366807
  Basis Set: CC-PVTZ
  Basis Set:
  Basis Set: CC-PVTZ
  Basis Set:
  @DF-RHF Final Energy:  -271.28380543705646
    Total Energy =                       -271.2838054370564009
  Basis Set: CC-PVTZ
  Basis Set:
  Basis Set: CC-PVTZ
  Basis Set:
  @DF-RHF Final Energy:  -271.28380761012431
    Total Energy =                       -271.2838076101243701
  Basis Set: CC-PVTZ
  Basis Set:
  Charge       = 0
  Multiplicity = 1
  Basis Set: CC-PVTZ
  Basis Set:

    Orbital Energies (a.u.)
    -----------------------

    Doubly Occupied:

       1A    -20.547671     2A    -11.266937     3A    -11.211895
       4A    -11.207414     5A    -11.199933     6A    -11.198463
       7A     -1.365569     8A     -1.072805     9A     -1.007672
      10A     -0.913436    11A     -0.822885    12A     -0.777020
      13A     -0.706975    14A     -0.650008    15A     -0.617274
      16A     -0.577344    17A     -0.572573    18A     -0.557874
      19A     -0.527071    20A     -0.507091    21A     -0.486951
      22A     -0.462368    23A     -0.453155    24A     -0.447187
      25A     -0.429952

  @DF-RHF Final Energy:  -271.28380780236216

   => Energetics <=

    Nuclear Repulsion Energy =            254.0444225301892800
    One-Electron Energy =                -871.4814184725578343
    Two-Electron Energy =                 346.1531881400062503
    DFT Exchange-Correlation Energy =       0.0000000000000000
    Empirical Dispersion Energy =           0.0000000000000000
    PCM Polarization Energy =               0.0000000000000000
    EFP Energy =                            0.0000000000000000
    Total Energy =                       -271.2838078023622757
    Molecular point group: c1
  Basis Set: CC-PVTZ
  Basis Set:

  -Total Gradient:
     Atom            X                  Y                   Z
    ------   -----------------  -----------------  -----------------
       1       -0.000005305951    -0.000001454294    -0.000006209691
       2       -0.000007436980    -0.000003885110     0.000002113181
       3        0.000006664136    -0.000005118062     0.000003646146
       4        0.000610901169     0.000759178282    -0.000057238873
       5        0.000003319489    -0.000004954556     0.000000114945
       6       -0.000001688179     0.000003868590     0.000006816373
       7       -0.000505920180    -0.000512499549     0.000382377082
       8       -0.000388962305    -0.000503032195    -0.000053490094
       9       -0.000002380168     0.000003955615    -0.000004166979
      10        0.000299201486     0.000266783672    -0.000271778988
      11        0.000004650333     0.000000375302    -0.000000944290
      12       -0.000005084361     0.000001820589     0.000002406004
      13        0.000001527957    -0.000007724576     0.000001651207
      14       -0.000002587514    -0.000001297593    -0.000003866444
      15       -0.000005570755    -0.000004936521    -0.000000800332
      16       -0.000003046203     0.000000740513    -0.000000899962
      17       -0.000001088055     0.000005982425     0.000004155203
      18        0.000002806081     0.000002197467    -0.000003884487

  **** Optimization is complete! (in 6 steps) ****
    Final optimized geometry and variables:
    Molecular point group: c1

    Geometry (in Angstrom), charge = 0, multiplicity = 1:

    H           -2.885211646094    -0.528573612206     0.146874302795
    O           -2.037935421805    -0.256271733810    -0.153413998236
    C           -1.647186770297     0.917237115303     0.511325381335
    C           -0.279717169786     1.365724631293     0.027856542334
    H           -2.366821268868     1.710126507387     0.322474378466
    H           -1.617308593054     0.750669098354     1.586340414519
    C            0.886955971405     0.433189731860     0.375601743720
    H           -0.326353390151     1.517722295549    -1.046223681986
    H           -0.097757905117     2.339131880513     0.473919501713
    C            1.090400708399    -0.742808408250    -0.578858864938
    H            0.759003848276     0.060657584945     1.389465356403
    H            1.800325430311     1.021979803530     0.387028356010
    C            2.289133682595    -1.604999161797    -0.196572137526
    H            0.195865404953    -1.349925955047    -0.607345854607
    H            1.232437216406    -0.357623250732    -1.585218576948
    H            2.164281758691    -2.032825867929     0.793046384258
    H            2.420870461737    -2.424176443391    -0.894406411095
    H            3.207127999028    -1.025751467711    -0.190410995596

  Mulliken Charges: (a.u.)
   Center  Symbol    Alpha    Beta     Spin     Total
       1     H     0.39692  0.39692  0.00000  0.20615
       2     O     4.19551  4.19551  0.00000 -0.39101
       3     C     2.97147  2.97147  0.00000  0.05706
       4     C     3.09988  3.09988  0.00000 -0.19976
       5     H     0.46548  0.46548  0.00000  0.06905
       6     H     0.47470  0.47470  0.00000  0.05060
       7     C     3.09044  3.09044  0.00000 -0.18087
       8     H     0.45225  0.45225  0.00000  0.09551
       9     H     0.44724  0.44724  0.00000  0.10552
      10     C     3.08043  3.08043  0.00000 -0.16085
      11     H     0.45802  0.45802  0.00000  0.08395
      12     H     0.45093  0.45093  0.00000  0.09813
      13     C     3.15059  3.15059  0.00000 -0.30117
      14     H     0.44401  0.44401  0.00000  0.11198
      15     H     0.45880  0.45880  0.00000  0.08240
      16     H     0.45653  0.45653  0.00000  0.08694
      17     H     0.44924  0.44924  0.00000  0.10153
      18     H     0.45758  0.45758  0.00000  0.08484

   Total alpha = 25.00000, Total beta = 25.00000, Total charge = -0.00000
