  ==> Input File <==

--------------------------------------------------------------------------
set {
	reference rhf
	basis cc-pvtz
}

set_num_threads( 4 )
memory 2 gb

molecule MOL {
0 1

H	 1.155331	 -0.329582	 0.719029
C	 0.848385	 0.440008	 0.000011
C	 -0.623497	 0.751021	 0.000090
O	 1.651396	 0.954658	 -0.698239
C	 -1.523725	 -0.474323	 -0.000013
H	 -0.813143	 1.382932	 -0.864897
H	 -0.813071	 1.382716	 0.865253
H	 -1.342980	 -1.087348	 -0.873016
H	 -2.565269	 -0.177464	 0.000070
H	 -1.342898	 -1.087564	 0.872820

	symmetry c1
}
set optking {
	frozen_dihedral = ("
		4 2 3 6
	")
}

ee = optimize('scf')
oeprop('DIPOLE', 'QUADRUPOLE', 'MULLIKEN_CHARGES')
f=open( 'psi4out.xyz', 'w' )
f.write( "10  " )
f.write( str(ee) + "\n" )
f.write( MOL.save_string_xyz() )
f.close()
--------------------------------------------------------------------------

    Molecular point group: c1
  Charge       = 0
  Multiplicity = 1
  Basis Set: CC-PVTZ
  Basis Set:
  @DF-RHF Final Energy:  -192.02274973474931
    Total Energy =                       -192.0227497347493397
    Molecular point group: c1
  Basis Set: CC-PVTZ
  Basis Set:
  Basis Set: CC-PVTZ
  Basis Set:
  @DF-RHF Final Energy:  -192.02303093170281
    Total Energy =                       -192.0230309317028059
  Basis Set: CC-PVTZ
  Basis Set:
  Basis Set: CC-PVTZ
  Basis Set:
  @DF-RHF Final Energy:  -192.02196391488889
    Total Energy =                       -192.0219639148888007
  Basis Set: CC-PVTZ
  Basis Set:
  Basis Set: CC-PVTZ
  Basis Set:
  @DF-RHF Final Energy:  -192.02325211129246
    Total Energy =                       -192.0232521112925781
  Basis Set: CC-PVTZ
  Basis Set:
  Basis Set: CC-PVTZ
  Basis Set:
  @DF-RHF Final Energy:  -192.02325870996359
    Total Energy =                       -192.0232587099635282
  Basis Set: CC-PVTZ
  Basis Set:
  Charge       = 0
  Multiplicity = 1
  Basis Set: CC-PVTZ
  Basis Set:

    Orbital Energies (a.u.)
    -----------------------

    Doubly Occupied:

       1A    -20.553429     2A    -11.322911     3A    -11.238422
       4A    -11.232064     5A     -1.408483     6A     -1.068424
       7A     -0.904741     8A     -0.795690     9A     -0.674416
      10A     -0.644062    11A     -0.622355    12A     -0.565552
      13A     -0.545701    14A     -0.518905    15A     -0.497976
      16A     -0.415132

  @DF-RHF Final Energy:  -192.02325916818069

   => Energetics <=

    Nuclear Repulsion Energy =            117.4465089941818832
    One-Electron Energy =                -492.9230103216289649
    Two-Electron Energy =                 183.4532421592664946
    DFT Exchange-Correlation Energy =       0.0000000000000000
    Empirical Dispersion Energy =           0.0000000000000000
    PCM Polarization Energy =               0.0000000000000000
    EFP Energy =                            0.0000000000000000
    Total Energy =                       -192.0232591681805729
    Molecular point group: c1
  Basis Set: CC-PVTZ
  Basis Set:

  -Total Gradient:
     Atom            X                  Y                   Z
    ------   -----------------  -----------------  -----------------
       1        0.000004093489     0.000010579818    -0.000009249863
       2       -0.000160274623    -0.000705912470    -0.000623734541
       3        0.000129803678     0.000709876323     0.000512095881
       4        0.000104465335     0.000417727377     0.000388292680
       5        0.000022025233     0.000043885281    -0.000003892369
       6       -0.000086396106    -0.000449612025    -0.000293424280
       7        0.000000813785    -0.000007448234     0.000012921977
       8       -0.000002263013     0.000000074684     0.000008545054
       9       -0.000007662490    -0.000004450386    -0.000000717897
      10       -0.000004605284    -0.000014720367     0.000009163358

  **** Optimization is complete! (in 6 steps) ****
    Final optimized geometry and variables:
    Molecular point group: c1

    Geometry (in Angstrom), charge = 0, multiplicity = 1:

    H            1.045905503360    -0.728557058192     0.928822616207
    C            0.751748061129     0.025097785786     0.186139651175
    C           -0.714116523150     0.366028873987     0.167283806273
    O            1.566839747965     0.514450409301    -0.515937462319
    C           -1.600377753523    -0.878521618290     0.180077074610
    H           -0.909040774466     0.984384806634    -0.698267050419
    H           -0.910765218964     0.962453764459     1.055215663771
    H           -1.442656876382    -1.480404111336    -0.707286751945
    H           -2.645614293906    -0.600146774449     0.211699396856
    H           -1.397360702863    -1.499103677831     1.045818621245

  Mulliken Charges: (a.u.)
   Center  Symbol    Alpha    Beta     Spin     Total
       1     H     0.46690  0.46690  0.00000  0.06620
       2     C     2.90017  2.90017  0.00000  0.19967
       3     C     3.08099  3.08099  0.00000 -0.16199
       4     O     4.16335  4.16335  0.00000 -0.32670
       5     C     3.15164  3.15164  0.00000 -0.30328
       6     H     0.44131  0.44131  0.00000  0.11739
       7     H     0.44956  0.44956  0.00000  0.10088
       8     H     0.44835  0.44835  0.00000  0.10330
       9     H     0.44412  0.44412  0.00000  0.11175
      10     H     0.45361  0.45361  0.00000  0.09278

   Total alpha = 16.00000, Total beta = 16.00000, Total charge =  0.00000
