  ==> Input File <==

--------------------------------------------------------------------------
set {
	reference rhf
	basis 6-31G*
}

set_num_threads( 1 )
memory 2 gb

molecule MOL {
0 1

O	 -1.276010	 1.052711	 -0.768302
C	 -1.204840	 0.067374	 -0.106123
C	 -2.388195	 -0.672128	 0.458071
O	 -0.067104	 -0.527208	 0.221609
H	 -2.388023	 -1.694060	 0.097175
H	 -3.300579	 -0.174919	 0.164318
H	 -2.315377	 -0.706351	 1.539059
C	 0.353091	 -1.682721	 -0.517415
C	 1.249820	 -2.473091	 0.418951
C	 1.058858	 -1.248372	 -1.792514
H	 -0.527748	 -2.256705	 -0.764745
H	 0.714127	 -2.748707	 1.320236
H	 1.591272	 -3.380629	 -0.067995
H	 2.118262	 -1.888318	 0.702683
H	 1.399709	 -2.118115	 -2.345128
H	 0.388794	 -0.685028	 -2.429409
H	 1.921472	 -0.632967	 -1.557607

	symmetry c1
}
set optking {
	frozen_dihedral = ("
		11 8 4 2
	")
}

ee = energy('scf')
oeprop('DIPOLE', 'QUADRUPOLE', 'MULLIKEN_CHARGES')
f=open( 'psi4out.xyz', 'w' )
f.write( "17  " )
f.write( str(ee) + "\n" )
f.write( MOL.save_string_xyz() )
f.close()
--------------------------------------------------------------------------

    Molecular point group: c1

    Geometry (in Angstrom), charge = 0, multiplicity = 1:

       Center              X                  Y                   Z               Mass
    ------------   -----------------  -----------------  -----------------  -----------------
           O         -0.952114498373     1.837629425306    -0.468695818970    15.994914619560
           C         -0.880944498373     0.852292425306     0.193483181030    12.000000000000
           C         -2.064299498373     0.112790425306     0.757677181030    12.000000000000
           O          0.256791501627     0.257710425306     0.521215181030    15.994914619560
           H         -2.064127498373    -0.909141574694     0.396781181030     1.007825032070
           H         -2.976683498373     0.609999425306     0.463924181030     1.007825032070
           H         -1.991481498373     0.078567425306     1.838665181030     1.007825032070
           C          0.676986501627    -0.897802574694    -0.217808818970    12.000000000000
           C          1.573715501627    -1.688172574694     0.718557181030    12.000000000000
           C          1.382753501627    -0.463453574694    -1.492907818970    12.000000000000
           H         -0.203852498373    -1.471786574694    -0.465138818970     1.007825032070
           H          1.038022501627    -1.963788574694     1.619842181030     1.007825032070
           H          1.915167501627    -2.595710574694     0.231611181030     1.007825032070
           H          2.442157501627    -1.103399574694     1.002289181030     1.007825032070
           H          1.723604501627    -1.333196574694    -2.045521818970     1.007825032070
           H          0.712689501627     0.099890425306    -2.129802818970     1.007825032070
           H          2.245367501627     0.151951425306    -1.258000818970     1.007825032070

  Charge       = 0
  Multiplicity = 1
  Basis Set: 6-31G*
  Basis Set:

    Orbital Energies (a.u.)
    -----------------------

    Doubly Occupied:

       1A    -20.582527     2A    -20.552531     3A    -11.375219
       4A    -11.305852     5A    -11.233538     6A    -11.225687
       7A    -11.220238     8A     -1.459919     9A     -1.366054
      10A     -1.078571    11A     -1.010250    12A     -0.953801
      13A     -0.853809    14A     -0.774120    15A     -0.691666
      16A     -0.675246    17A     -0.656300    18A     -0.619600
      19A     -0.592037    20A     -0.587991    21A     -0.557827
      22A     -0.553590    23A     -0.546376    24A     -0.520693
      25A     -0.509823    26A     -0.477753    27A     -0.448673
      28A     -0.434829

  @DF-RHF Final Energy:  -344.89261252552200

   => Energetics <=

    Nuclear Repulsion Energy =            323.6572858381863966
    One-Electron Energy =               -1111.3707060587369142
    Two-Electron Energy =                 442.8208076950289751
    DFT Exchange-Correlation Energy =       0.0000000000000000
    Empirical Dispersion Energy =           0.0000000000000000
    PCM Polarization Energy =               0.0000000000000000
    EFP Energy =                            0.0000000000000000
    Total Energy =                       -344.8926125255214856

  Mulliken Charges: (a.u.)
   Center  Symbol    Alpha    Beta     Spin     Total
       1     O     4.25866  4.25866  0.00000 -0.51732
       2     C     2.62672  2.62672  0.00000  0.74655
       3     C     3.28740  3.28740  0.00000 -0.57480
       4     O     4.31500  4.31500  0.00000 -0.63001
       5     H     0.40782  0.40782  0.00000  0.18437
       6     H     0.39820  0.39820  0.00000  0.20359
       7     H     0.39935  0.39935  0.00000  0.20129
       8     C     2.93137  2.93137  0.00000  0.13727
       9     C     3.24005  3.24005  0.00000 -0.48010
      10     C     3.24256  3.24256  0.00000 -0.48511
      11     H     0.42067  0.42067  0.00000  0.15866
      12     H     0.41198  0.41198  0.00000  0.17603
      13     H     0.41805  0.41805  0.00000  0.16390
      14     H     0.40828  0.40828  0.00000  0.18343
      15     H     0.42033  0.42033  0.00000  0.15935
      16     H     0.40500  0.40500  0.00000  0.19001
      17     H     0.40856  0.40856  0.00000  0.18289

   Total alpha = 28.00000, Total beta = 28.00000, Total charge =  0.00000
