  ==> Input File <==

--------------------------------------------------------------------------
set {
	reference rhf
	basis cc-pvtz
}

set_num_threads( 4 )
memory 2 gb

molecule MOL {
0 1

H	 1.651322	 -0.822465	 0.000000
O	 0.729993	 -1.034364	 0.000000
C	 0.037305	 0.100061	 0.000000
C	 -0.461641	 0.454030	 -1.368881
O	 -0.144603	 0.730555	 0.982945
H	 0.377800	 0.553523	 -2.044832
H	 -1.015799	 1.376851	 -1.323756
H	 -1.091398	 -0.343579	 -1.741297

	symmetry c1
}
set optking {
	frozen_dihedral = ("
		4 3 2 1
	")
}

ee = optimize('scf')
oeprop('DIPOLE', 'QUADRUPOLE', 'MULLIKEN_CHARGES')
f=open( 'psi4out.xyz', 'w' )
f.write( "8  " )
f.write( str(ee) + "\n" )
f.write( MOL.save_string_xyz() )
f.close()
--------------------------------------------------------------------------

    Molecular point group: c1
  Charge       = 0
  Multiplicity = 1
  Basis Set: CC-PVTZ
  Basis Set:
  @DF-RHF Final Energy:  -227.88413092472703
    Total Energy =                       -227.8841309247271454
    Molecular point group: c1
  Basis Set: CC-PVTZ
  Basis Set:
  Basis Set: CC-PVTZ
  Basis Set:
  @DF-RHF Final Energy:  -227.88529247736787
    Total Energy =                       -227.8852924773678410
  Basis Set: CC-PVTZ
  Basis Set:
  Basis Set: CC-PVTZ
  Basis Set:
  @DF-RHF Final Energy:  -227.88484712067896
    Total Energy =                       -227.8848471206790123
  Basis Set: CC-PVTZ
  Basis Set:
  Basis Set: CC-PVTZ
  Basis Set:
  @DF-RHF Final Energy:  -227.88549493660955
    Total Energy =                       -227.8854949366095184
  Basis Set: CC-PVTZ
  Basis Set:
  Basis Set: CC-PVTZ
  Basis Set:
  @DF-RHF Final Energy:  -227.88550765389667
    Total Energy =                       -227.8855076538965534
  Basis Set: CC-PVTZ
  Basis Set:
  Basis Set: CC-PVTZ
  Basis Set:
  @DF-RHF Final Energy:  -227.88551104044325
    Total Energy =                       -227.8855110404431912
  Basis Set: CC-PVTZ
  Basis Set:
  Charge       = 0
  Multiplicity = 1
  Basis Set: CC-PVTZ
  Basis Set:

    Orbital Energies (a.u.)
    -----------------------

    Doubly Occupied:

       1A    -20.588456     2A    -20.552769     3A    -11.379384
       4A    -11.241193     5A     -1.466355     6A     -1.372781
       7A     -1.024704     8A     -0.828922     9A     -0.711126
      10A     -0.675054    11A     -0.663951    12A     -0.590050
      13A     -0.579667    14A     -0.517594    15A     -0.503677
      16A     -0.453960

  @DF-RHF Final Energy:  -227.88551177811115

   => Energetics <=

    Nuclear Repulsion Energy =            122.0686107673536327
    One-Electron Energy =                -553.6089602163742711
    Two-Electron Energy =                 203.6548376709095578
    DFT Exchange-Correlation Energy =       0.0000000000000000
    Empirical Dispersion Energy =           0.0000000000000000
    PCM Polarization Energy =               0.0000000000000000
    EFP Energy =                            0.0000000000000000
    Total Energy =                       -227.8855117781110948
    Molecular point group: c1
  Basis Set: CC-PVTZ
  Basis Set:

  -Total Gradient:
     Atom            X                  Y                   Z
    ------   -----------------  -----------------  -----------------
       1        0.000002583584    -0.000105366607    -0.005144545363
       2        0.001243042857     0.000677387036     0.006168958953
       3       -0.003968627317    -0.002082181620    -0.000372121145
       4        0.002803449618     0.001629767154    -0.000631509351
       5       -0.000034830904    -0.000088378076    -0.000027344913
       6       -0.000014918384    -0.000020159507     0.000001181890
       7       -0.000013329058    -0.000003565299    -0.000009642773
       8       -0.000017370397    -0.000007503083     0.000015022701

  **** Optimization is complete! (in 7 steps) ****
    Final optimized geometry and variables:
    Molecular point group: c1

    Geometry (in Angstrom), charge = 0, multiplicity = 1:

    H            1.590730824082    -0.950314149184     0.113445514489
    O            0.660145903694    -1.102872651809     0.122219918338
    C           -0.035289477012     0.064711603115     0.094244524647
    C           -0.549668186996     0.411994085443    -1.272275293126
    O           -0.196392735897     0.713507337559     1.058914131700
    H            0.292627653367     0.555148068988    -1.939136849836
    H           -1.144640667028     1.309903947014    -1.230328689000
    H           -1.133826428183    -0.411280740425    -1.662823933221

  Mulliken Charges: (a.u.)
   Center  Symbol    Alpha    Beta     Spin     Total
       1     H     0.38430  0.38430  0.00000  0.23139
       2     O     4.17748  4.17748  0.00000 -0.35497
       3     C     2.80512  2.80512  0.00000  0.38976
       4     C     3.13645  3.13645  0.00000 -0.27291
       5     O     4.16263  4.16263  0.00000 -0.32527
       6     H     0.45270  0.45270  0.00000  0.09460
       7     H     0.43838  0.43838  0.00000  0.12325
       8     H     0.44293  0.44293  0.00000  0.11414

   Total alpha = 16.00000, Total beta = 16.00000, Total charge =  0.00000
