  ==> Input File <==

--------------------------------------------------------------------------
set {
	reference rhf
	basis cc-pvtz
}

set_num_threads( 4 )
memory 2 gb

molecule MOL {
0 1

H	 -3.162190	 0.493205	 -0.000107
C	 -2.363908	 -0.234727	 0.000005
O	 -1.158738	 0.454634	 -0.000087
H	 -2.464314	 -0.863616	 -0.882153
H	 -2.464327	 -0.863359	 0.882345
C	 -0.028611	 -0.359694	 0.000037
C	 0.902118	 0.078252	 1.112844
H	 0.479495	 -0.294214	 -0.962344
H	 -0.318346	 -1.401294	 0.140625
C	 2.168552	 -0.767937	 1.179610
H	 1.157226	 1.121002	 0.959482
H	 0.365743	 0.022670	 2.053676
H	 2.733785	 -0.707262	 0.255534
H	 2.814547	 -0.433734	 1.982119
H	 1.937036	 -1.812869	 1.357335

	symmetry c1
}
set optking {
	frozen_dihedral = ("
		8 6 3 2
	")
}

ee = optimize('scf')
oeprop('DIPOLE', 'QUADRUPOLE', 'MULLIKEN_CHARGES')
f=open( 'psi4out.xyz', 'w' )
f.write( "15  " )
f.write( str(ee) + "\n" )
f.write( MOL.save_string_xyz() )
f.close()
--------------------------------------------------------------------------

    Molecular point group: c1
  Charge       = 0
  Multiplicity = 1
  Basis Set: CC-PVTZ
  Basis Set:
  @DF-RHF Final Energy:  -232.22432288220693
    Total Energy =                       -232.2243228822073320
    Molecular point group: c1
  Basis Set: CC-PVTZ
  Basis Set:
  Basis Set: CC-PVTZ
  Basis Set:
  @DF-RHF Final Energy:  -232.22461144137313
    Total Energy =                       -232.2246114413732130
  Basis Set: CC-PVTZ
  Basis Set:
  Basis Set: CC-PVTZ
  Basis Set:
  @DF-RHF Final Energy:  -232.22469177098259
    Total Energy =                       -232.2246917709824743
  Basis Set: CC-PVTZ
  Basis Set:
  Basis Set: CC-PVTZ
  Basis Set:
  @DF-RHF Final Energy:  -232.22469284649060
    Total Energy =                       -232.2246928464906546
  Basis Set: CC-PVTZ
  Basis Set:
  Charge       = 0
  Multiplicity = 1
  Basis Set: CC-PVTZ
  Basis Set:

    Orbital Energies (a.u.)
    -----------------------

    Doubly Occupied:

       1A    -20.544386     2A    -11.264060     3A    -11.262504
       4A    -11.212514     5A    -11.210735     6A     -1.377146
       7A     -1.057582     8A     -0.956935     9A     -0.878650
      10A     -0.808593    11A     -0.672578    12A     -0.654598
      13A     -0.635766    14A     -0.602576    15A     -0.568098
      16A     -0.539759    17A     -0.505054    18A     -0.493115
      19A     -0.481574    20A     -0.463687    21A     -0.408031

  @DF-RHF Final Energy:  -232.22469292544116

   => Energetics <=

    Nuclear Repulsion Energy =            190.1306703313616140
    One-Electron Energy =                -691.5148403581620187
    Two-Electron Energy =                 269.1594771013592435
    DFT Exchange-Correlation Energy =       0.0000000000000000
    Empirical Dispersion Energy =           0.0000000000000000
    PCM Polarization Energy =               0.0000000000000000
    EFP Energy =                            0.0000000000000000
    Total Energy =                       -232.2246929254411612
    Molecular point group: c1
  Basis Set: CC-PVTZ
  Basis Set:

  -Total Gradient:
     Atom            X                  Y                   Z
    ------   -----------------  -----------------  -----------------
       1        0.000005762609    -0.000001995429     0.000000660629
       2       -0.000042478358     0.000003145917     0.001238045905
       3        0.000281453133     0.000267451163    -0.001649997849
       4       -0.000001162669     0.000001050130     0.000002571572
       5       -0.000000189682     0.000001681976    -0.000003784589
       6       -0.001069585541    -0.001404186303    -0.000096161302
       7       -0.000006679435    -0.000011917098    -0.000005181642
       8        0.000822581939     0.001149269521     0.000507851630
       9        0.000002497772    -0.000009377078     0.000002840161
      10        0.000005430125     0.000007284475    -0.000000036622
      11        0.000001608521    -0.000003209057     0.000000501448
      12       -0.000002544833     0.000001675327     0.000001449451
      13        0.000000306536    -0.000002801522    -0.000000073430
      14        0.000004278403    -0.000001906024     0.000001471680
      15       -0.000001278521     0.000003834002    -0.000000157044

  **** Optimization is complete! (in 5 steps) ****
    Final optimized geometry and variables:
    Molecular point group: c1

    Geometry (in Angstrom), charge = 0, multiplicity = 1:

    H           -3.036880157608     0.717759448295    -0.480645757256
    C           -2.264583657464    -0.038095686306    -0.472615903512
    O           -1.037246782047     0.612627023926    -0.460953595082
    H           -2.382955452747    -0.662798401699    -1.355272981463
    H           -2.396954244048    -0.660375460920     0.409493666449
    C            0.095063258784    -0.208338829958    -0.424024620930
    C            1.033828347279     0.243215654996     0.680964820144
    H            0.605379385148    -0.148105443405    -1.382189172499
    H           -0.188201734424    -1.246261550289    -0.268972446377
    C            2.321822245562    -0.571664560599     0.722212227973
    H            1.260921368782     1.292803789217     0.529341227231
    H            0.515382834954     0.171372251399     1.631669369340
    H            2.869193534547    -0.491219870224    -0.211083690688
    H            2.973570248052    -0.227411002383     1.515947322791
    H            2.119354341422    -1.623560784910     0.896136912769

  Mulliken Charges: (a.u.)
   Center  Symbol    Alpha    Beta     Spin     Total
       1     H     0.44954  0.44954  0.00000  0.10093
       2     C     3.03126  3.03126  0.00000 -0.06251
       3     O     4.17860  4.17860  0.00000 -0.35719
       4     H     0.47012  0.47012  0.00000  0.05976
       5     H     0.47279  0.47279  0.00000  0.05442
       6     C     2.96459  2.96459  0.00000  0.07082
       7     C     3.07877  3.07877  0.00000 -0.15753
       8     H     0.46053  0.46053  0.00000  0.07894
       9     H     0.47484  0.47484  0.00000  0.05033
      10     C     3.15537  3.15537  0.00000 -0.31074
      11     H     0.45048  0.45048  0.00000  0.09905
      12     H     0.45525  0.45525  0.00000  0.08950
      13     H     0.45519  0.45519  0.00000  0.08962
      14     H     0.44655  0.44655  0.00000  0.10691
      15     H     0.45615  0.45615  0.00000  0.08771

   Total alpha = 21.00000, Total beta = 21.00000, Total charge = -0.00000
