  ==> Input File <==

--------------------------------------------------------------------------
set {
	reference rhf
	basis 6-31G*
}

set_num_threads( 4 )
memory 2 gb

molecule MOL {
0 1

H	 -2.798360	 -0.862255	 -0.071053
N	 -1.863561	 -0.715187	 0.256814
C	 -1.344686	 0.554728	 -0.219830
H	 -1.300452	 -1.461917	 -0.101532
C	 0.068734	 0.757699	 0.284333
H	 -1.338440	 0.646160	 -1.306846
H	 -1.968599	 1.352935	 0.170528
O	 0.882983	 -0.227431	 -0.284529
H	 0.429223	 1.747830	 0.006256
H	 0.084691	 0.680208	 1.369218
C	 2.201313	 -0.211062	 0.161910
H	 2.728759	 -1.008572	 -0.343537
H	 2.688354	 0.734435	 -0.070054
H	 2.259396	 -0.374769	 1.235984

	symmetry c1
}
set optking {
	frozen_dihedral = ("
		6 3 2 4
	")
}

ee = optimize('scf')
oeprop('DIPOLE', 'QUADRUPOLE', 'MULLIKEN_CHARGES')
f=open( 'psi4out.xyz', 'w' )
f.write( "14  " )
f.write( str(ee) + "\n" )
f.write( MOL.save_string_xyz() )
f.close()
--------------------------------------------------------------------------

    Molecular point group: c1
  Charge       = 0
  Multiplicity = 1
  Basis Set: 6-31G*
  Basis Set:
  @DF-RHF Final Energy:  -248.12526329441067
    Total Energy =                       -248.1252632944108427
    Molecular point group: c1
  Basis Set: 6-31G*
  Basis Set:
  Charge       = 0
  Multiplicity = 1
  Basis Set: 6-31G*
  Basis Set:

    Orbital Energies (a.u.)
    -----------------------

    Doubly Occupied:

       1A    -20.557236     2A    -15.528649     3A    -11.266034
       4A    -11.265344     5A    -11.240853     6A     -1.381289
       7A     -1.173727     8A     -0.998987     9A     -0.907010
      10A     -0.815070    11A     -0.683582    12A     -0.674142
      13A     -0.645063    14A     -0.609807    15A     -0.605810
      16A     -0.540331    17A     -0.529826    18A     -0.496884
      19A     -0.472708    20A     -0.417404    21A     -0.380317

  @DF-RHF Final Energy:  -248.12526419841905

   => Energetics <=

    Nuclear Repulsion Energy =            194.6692215164011657
    One-Electron Energy =                -723.2088208850256024
    Two-Electron Energy =                 280.4143351702053906
    DFT Exchange-Correlation Energy =       0.0000000000000000
    Empirical Dispersion Energy =           0.0000000000000000
    PCM Polarization Energy =               0.0000000000000000
    EFP Energy =                            0.0000000000000000
    Total Energy =                       -248.1252641984190177
    Molecular point group: c1
  Basis Set: 6-31G*
  Basis Set:

  -Total Gradient:
     Atom            X                  Y                   Z
    ------   -----------------  -----------------  -----------------
       1        0.000042200559     0.000005496102     0.000018043309
       2        0.000315800044    -0.000057563626     0.000212037402
       3       -0.000367870599     0.000087289939     0.000042299977
       4       -0.000215629890    -0.000027061092    -0.000206327108
       5        0.000000361719     0.000015943511    -0.000015398906
       6        0.000277808466    -0.000104476721    -0.000009340291
       7        0.000020058394     0.000056904104    -0.000002958364
       8        0.000008614038     0.000023201024    -0.000022172793
       9        0.000017484417     0.000010687505    -0.000010524296
      10       -0.000035580022    -0.000006941448    -0.000015664620
      11       -0.000044104844    -0.000010898679     0.000012150758
      12       -0.000005943205    -0.000000166272    -0.000003084254
      13       -0.000019985589     0.000005563698    -0.000008218396
      14        0.000006786505     0.000002021957     0.000009157583

  **** Optimization is complete! (in 2 steps) ****
    Final optimized geometry and variables:
    Molecular point group: c1

    Geometry (in Angstrom), charge = 0, multiplicity = 1:

    H           -2.795648322466    -0.877458354164    -0.108412402361
    N           -1.862247320809    -0.729008646068     0.222766223443
    C           -1.343424319756     0.540757392719    -0.254806944710
    H           -1.298218053415    -1.476187399522    -0.133072791142
    C            0.070036013489     0.744455052881     0.248937994193
    H           -1.335212121464     0.630423320653    -1.341944693580
    H           -1.967486594393     1.339345655473     0.134281518360
    O            0.883710403389    -0.240153803178    -0.321328471840
    H            0.430452782666     1.734860816893    -0.028651258963
    H            0.086211790932     0.666040656798     1.333663010774
    C            2.201646300722    -0.225576079406     0.126213553392
    H            2.729063234669    -1.022179260829    -0.380640677671
    H            2.688892235493     0.720329098871    -0.103596387021
    H            2.258927300686    -0.391566604581     1.199975206110

  Mulliken Charges: (a.u.)
   Center  Symbol    Alpha    Beta     Spin     Total
       1     H     0.33285  0.33285  0.00000  0.33429
       2     N     3.92485  3.92485  0.00000 -0.84971
       3     C     3.06949  3.06949  0.00000 -0.13897
       4     H     0.32389  0.32389  0.00000  0.35223
       5     C     2.98959  2.98959  0.00000  0.02083
       6     H     0.42652  0.42652  0.00000  0.14697
       7     H     0.42043  0.42043  0.00000  0.15913
       8     O     4.30963  4.30963  0.00000 -0.61927
       9     H     0.43119  0.43119  0.00000  0.13762
      10     H     0.42260  0.42260  0.00000  0.15480
      11     C     3.07899  3.07899  0.00000 -0.15798
      12     H     0.41256  0.41256  0.00000  0.17488
      13     H     0.42998  0.42998  0.00000  0.14003
      14     H     0.42743  0.42743  0.00000  0.14514

   Total alpha = 21.00000, Total beta = 21.00000, Total charge =  0.00000
