  ==> Input File <==

--------------------------------------------------------------------------
set {
	reference rhf
	basis 6-31G*
}

set_num_threads( 4 )
memory 2 gb

molecule MOL {
0 1

H	 -2.798360	 -0.862255	 -0.071053
N	 -1.863561	 -0.715187	 0.256814
C	 -1.344686	 0.554728	 -0.219830
H	 -1.300452	 -1.461917	 -0.101532
C	 0.081427	 0.741154	 0.254071
H	 -1.362155	 0.656231	 -1.305829
H	 -1.952773	 1.354456	 0.191809
O	 0.874168	 -0.245412	 -0.342030
H	 0.444037	 1.730782	 -0.023037
H	 0.121165	 0.653424	 1.337565
C	 0.715820	 -0.353935	 -1.720696
H	 1.371761	 -1.141799	 -2.065237
H	 -0.308881	 -0.609386	 -1.984733
H	 0.981532	 0.572528	 -2.225545

	symmetry c1
}
set optking {
	frozen_dihedral = ("
		11 8 5 3
	")
}

ee = optimize('scf')
oeprop('DIPOLE', 'QUADRUPOLE', 'MULLIKEN_CHARGES')
f=open( 'psi4out.xyz', 'w' )
f.write( "14  " )
f.write( str(ee) + "\n" )
f.write( MOL.save_string_xyz() )
f.close()
--------------------------------------------------------------------------

    Molecular point group: c1
  Charge       = 0
  Multiplicity = 1
  Basis Set: 6-31G*
  Basis Set:
  @DF-RHF Final Energy:  -248.11088793961648
    Total Energy =                       -248.1108879396164184
    Molecular point group: c1
  Basis Set: 6-31G*
  Basis Set:
  Basis Set: 6-31G*
  Basis Set:
  @DF-RHF Final Energy:  -248.11500795322328
    Total Energy =                       -248.1150079532233690
  Basis Set: 6-31G*
  Basis Set:
  Basis Set: 6-31G*
  Basis Set:
  @DF-RHF Final Energy:  -248.11808459040799
    Total Energy =                       -248.1180845904082162
  Basis Set: 6-31G*
  Basis Set:
  Basis Set: 6-31G*
  Basis Set:
  @DF-RHF Final Energy:  -248.11881066340516
    Total Energy =                       -248.1188106634050996
  Basis Set: 6-31G*
  Basis Set:
  Basis Set: 6-31G*
  Basis Set:
  @DF-RHF Final Energy:  -248.11902643087788
    Total Energy =                       -248.1190264308779092
  Basis Set: 6-31G*
  Basis Set:
  Basis Set: 6-31G*
  Basis Set:
  @DF-RHF Final Energy:  -248.11904419948951
    Total Energy =                       -248.1190441994893945
  Basis Set: 6-31G*
  Basis Set:
  Basis Set: 6-31G*
  Basis Set:
  @DF-RHF Final Energy:  -248.11904709460237
    Total Energy =                       -248.1190470946024789
  Basis Set: 6-31G*
  Basis Set:
  Charge       = 0
  Multiplicity = 1
  Basis Set: 6-31G*
  Basis Set:

    Orbital Energies (a.u.)
    -----------------------

    Doubly Occupied:

       1A    -20.556730     2A    -15.535715     3A    -11.268600
       4A    -11.267483     5A    -11.246331     6A     -1.378125
       7A     -1.179045     8A     -0.999448     9A     -0.924589
      10A     -0.807186    11A     -0.689214    12A     -0.676205
      13A     -0.646585    14A     -0.618026    15A     -0.601455
      16A     -0.547208    17A     -0.532222    18A     -0.522421
      19A     -0.459246    20A     -0.415354    21A     -0.384837

  @DF-RHF Final Energy:  -248.11904741671816

   => Energetics <=

    Nuclear Repulsion Energy =            197.6779198507052229
    One-Electron Energy =                -729.0818840532961076
    Two-Electron Energy =                 283.2849167858727242
    DFT Exchange-Correlation Energy =       0.0000000000000000
    Empirical Dispersion Energy =           0.0000000000000000
    PCM Polarization Energy =               0.0000000000000000
    EFP Energy =                            0.0000000000000000
    Total Energy =                       -248.1190474167182174
    Molecular point group: c1
  Basis Set: 6-31G*
  Basis Set:

  -Total Gradient:
     Atom            X                  Y                   Z
    ------   -----------------  -----------------  -----------------
       1       -0.000007884663    -0.000006088881    -0.000012708737
       2       -0.000028014822    -0.000016928520     0.000049200181
       3        0.000665212972     0.002601932119    -0.003129178357
       4        0.000010980351    -0.000033214975    -0.000021481618
       5       -0.002378830866    -0.005157214911     0.004857810156
       6        0.000007675507    -0.000006144482    -0.000005327717
       7       -0.000002117372     0.000016783484    -0.000005748409
       8        0.004952704954     0.005815395427    -0.002291331542
       9       -0.000024676357    -0.000008544387    -0.000006696601
      10       -0.000012441581     0.000003710455     0.000005415090
      11       -0.003168112590    -0.003210687321     0.000551206843
      12        0.000002688204     0.000003024565    -0.000000334632
      13       -0.000012489453    -0.000001272651    -0.000005326620
      14       -0.000004694285    -0.000000749920     0.000014501965

  **** Optimization is complete! (in 8 steps) ****
    Final optimized geometry and variables:
    Molecular point group: c1

    Geometry (in Angstrom), charge = 0, multiplicity = 1:

    H           -2.571995575368    -0.780191226982     0.329744142136
    N           -1.635686670260    -0.650650465622     0.659286906756
    C           -1.086559494346     0.618425662507     0.214440454281
    H           -1.084934672015    -1.415065560947     0.320545781264
    C            0.379574234058     0.726550272341     0.604309707073
    H           -1.203357078290     0.799517063278    -0.854515161274
    H           -1.616146130634     1.418711379953     0.722352536414
    O            1.225760898925    -0.221790238503     0.008642456429
    H            0.732319278184     1.728264601676     0.357539528054
    H            0.480516717907     0.581118529791     1.670438055314
    C            1.138436954533    -0.377639463776    -1.372952398264
    H            1.963895948160    -1.009293449624    -1.671677171905
    H            0.211981282122    -0.855081149900    -1.679014979711
    H            1.223587368399     0.574447678057    -1.894146904281

  Mulliken Charges: (a.u.)
   Center  Symbol    Alpha    Beta     Spin     Total
       1     H     0.33153  0.33153  0.00000  0.33695
       2     N     3.92455  3.92455  0.00000 -0.84910
       3     C     3.08334  3.08334  0.00000 -0.16669
       4     H     0.32556  0.32556  0.00000  0.34889
       5     C     2.99027  2.99027  0.00000  0.01947
       6     H     0.43050  0.43050  0.00000  0.13900
       7     H     0.41557  0.41557  0.00000  0.16886
       8     O     4.30840  4.30840  0.00000 -0.61679
       9     H     0.42995  0.42995  0.00000  0.14010
      10     H     0.40589  0.40589  0.00000  0.18822
      11     C     3.08242  3.08242  0.00000 -0.16485
      12     H     0.41041  0.41041  0.00000  0.17918
      13     H     0.43196  0.43196  0.00000  0.13608
      14     H     0.42966  0.42966  0.00000  0.14069

   Total alpha = 21.00000, Total beta = 21.00000, Total charge =  0.00000
