  ==> Input File <==

--------------------------------------------------------------------------
set {
	reference rhf
	basis 6-31G*
}

set_num_threads( 4 )
memory 2 gb

molecule MOL {
0 1

O	 3.225979	 0.970355	 -0.599647
C	 2.701189	 0.057885	 -0.047330
C	 1.245376	 -0.013843	 0.345420
O	 3.347903	 -1.046386	 0.304773
C	 0.455112	 1.231400	 -0.050772
H	 0.838542	 -0.913825	 -0.103701
H	 1.208210	 -0.175333	 1.419774
C	 -0.998893	 1.219485	 0.433193
H	 0.482531	 1.345121	 -1.130325
H	 0.957290	 2.103070	 0.354729
C	 -1.883438	 0.145884	 -0.207175
H	 -1.431207	 2.195402	 0.224832
H	 -1.019646	 1.105716	 1.516076
C	 -1.141808	 -0.690764	 -1.251688
H	 -2.269385	 -0.510606	 0.571211
H	 -2.750204	 0.605580	 -0.676609
C	 -2.017367	 -1.763412	 -1.902037
H	 -0.279632	 -1.165419	 -0.786297
H	 -0.746413	 -0.033687	 -2.024742
C	 -1.268213	 -2.596958	 -2.941109
H	 -2.414114	 -2.420290	 -1.130841
H	 -2.877435	 -1.290486	 -2.371510
H	 -1.914950	 -3.348066	 -3.384025
H	 -0.421649	 -3.111138	 -2.494854
H	 -0.888060	 -1.972464	 -3.744704
C	 4.728119	 -1.109107	 -0.004993
H	 4.882018	 -1.033965	 -1.071845
H	 5.068212	 -2.067527	 0.355250
H	 5.265056	 -0.311663	 0.488280

	symmetry c1
}
set optking {
	frozen_dihedral = ("
		15 11 8 5
	")
}

ee = optimize('scf')
oeprop('DIPOLE', 'QUADRUPOLE', 'MULLIKEN_CHARGES')
f=open( 'psi4out.xyz', 'w' )
f.write( "29  " )
f.write( str(ee) + "\n" )
f.write( MOL.save_string_xyz() )
f.close()
--------------------------------------------------------------------------

    Molecular point group: c1
  Charge       = 0
  Multiplicity = 1
  Basis Set: 6-31G*
  Basis Set:
  @DF-RHF Final Energy:  -501.00989625565182
    Total Energy =                       -501.0098962556510287
    Molecular point group: c1
  Basis Set: 6-31G*
  Basis Set:
  Basis Set: 6-31G*
  Basis Set:
  @DF-RHF Final Energy:  -501.02713833358075
    Total Energy =                       -501.0271383335800692
  Basis Set: 6-31G*
  Basis Set:
  Basis Set: 6-31G*
  Basis Set:
  @DF-RHF Final Energy:  -501.03094907496973
    Total Energy =                       -501.0309490749696124
  Basis Set: 6-31G*
  Basis Set:
  Basis Set: 6-31G*
  Basis Set:
  @DF-RHF Final Energy:  -501.02970680759461
    Total Energy =                       -501.0297068075938114
  Basis Set: 6-31G*
  Basis Set:
  @DF-RHF Final Energy:  -501.03209862853635
    Total Energy =                       -501.0320986285356639
  @DF-RHF Final Energy:  -501.03252597954679
    Total Energy =                       -501.0325259795466764
  @DF-RHF Final Energy:  -501.03255892848858
    Total Energy =                       -501.0325589284886973
  Basis Set: 6-31G*
  Basis Set:
  @DF-RHF Final Energy:  -501.03264885084604
    Total Energy =                       -501.0326488508461580
  Basis Set: 6-31G*
  Basis Set:
  Basis Set: 6-31G*
  Basis Set:
  @DF-RHF Final Energy:  -501.03265469215626
    Total Energy =                       -501.0326546921558020
  Basis Set: 6-31G*
  Basis Set:
  Basis Set: 6-31G*
  Basis Set:
  @DF-RHF Final Energy:  -501.03265608188019
    Total Energy =                       -501.0326560818800772
  Basis Set: 6-31G*
  Basis Set:
  Charge       = 0
  Multiplicity = 1
  Basis Set: 6-31G*
  Basis Set:

    Orbital Energies (a.u.)
    -----------------------

    Doubly Occupied:

       1A    -20.603169     2A    -20.544944     3A    -11.371564
       4A    -11.280513     5A    -11.233964     6A    -11.218664
       7A    -11.218034     8A    -11.216263     9A    -11.216016
      10A    -11.215076    11A    -11.208965    12A     -1.468777
      13A     -1.362215    14A     -1.094984    15A     -1.064967
      16A     -1.016867    17A     -0.975569    18A     -0.930616
      19A     -0.866334    20A     -0.809229    21A     -0.777282
      22A     -0.760605    23A     -0.699645    24A     -0.682321
      25A     -0.671836    26A     -0.647153    27A     -0.633269
      28A     -0.602833    29A     -0.593135    30A     -0.581300
      31A     -0.564212    32A     -0.549718    33A     -0.541403
      34A     -0.525440    35A     -0.520943    36A     -0.506719
      37A     -0.493474    38A     -0.480880    39A     -0.472476
      40A     -0.456751    41A     -0.455973    42A     -0.449832
      43A     -0.441150    44A     -0.433970

  @DF-RHF Final Energy:  -501.03265634326726

   => Energetics <=

    Nuclear Repulsion Energy =            628.4943785690068125
    One-Electron Energy =               -1928.1359703747757521
    Two-Electron Energy =                 798.6089354625019041
    DFT Exchange-Correlation Energy =       0.0000000000000000
    Empirical Dispersion Energy =           0.0000000000000000
    PCM Polarization Energy =               0.0000000000000000
    EFP Energy =                            0.0000000000000000
    Total Energy =                       -501.0326563432670355
    Molecular point group: c1
  Basis Set: 6-31G*
  Basis Set:

  -Total Gradient:
     Atom            X                  Y                   Z
    ------   -----------------  -----------------  -----------------
       1       -0.000028806680     0.000021343028    -0.000000960453
       2        0.000010958105    -0.000008924419    -0.000004157663
       3        0.000001974368    -0.000037948634    -0.000018252581
       4       -0.000024408370    -0.000015365782     0.000009908371
       5       -0.000820334882     0.002082807178    -0.002146011273
       6       -0.000001739192    -0.000005250594     0.000002069533
       7       -0.000006585317     0.000009455801     0.000005276926
       8        0.000463250745    -0.002492866187     0.003344931888
       9       -0.000021122315    -0.000024237666    -0.000006817471
      10       -0.000021544915     0.000033048591    -0.000006943001
      11        0.003567717557    -0.002091784406    -0.001790155928
      12        0.000026536719     0.000015681877    -0.000012809147
      13        0.000025359530    -0.000008156528    -0.000002331378
      14       -0.000019930821     0.000036367551    -0.000030204985
      15       -0.003186021720     0.002475283674     0.000609612145
      16       -0.000005030728     0.000010485843     0.000009778598
      17        0.000002278421     0.000004649368     0.000008331533
      18        0.000023860638    -0.000016987576    -0.000003696858
      19        0.000006471209     0.000002982981     0.000021051106
      20        0.000011876032    -0.000008731882     0.000007879380
      21       -0.000010790101     0.000001122515     0.000004113265
      22        0.000015718209     0.000007904766    -0.000002435056
      23        0.000001406461    -0.000004039066     0.000006199041
      24        0.000003231103     0.000002979182    -0.000004361534
      25       -0.000005578283     0.000001117623    -0.000000458050
      26       -0.000002149138     0.000010600472    -0.000000856751
      27       -0.000001318058    -0.000000133447     0.000000132436
      28       -0.000006581751    -0.000000658616     0.000001416911
      29        0.000001303168    -0.000000745646    -0.000000249006

  **** Optimization is complete! (in 11 steps) ****
    Final optimized geometry and variables:
    Molecular point group: c1

    Geometry (in Angstrom), charge = 0, multiplicity = 1:

    O            2.499134156129     1.262811588327    -0.158990776330
    C            2.061279830401     0.471142204793     0.612286925046
    C            0.627651818092     0.398915840660     1.078776347796
    O            2.799714505844    -0.474994367636     1.179081176084
    C           -0.267503166698     1.463234038128     0.445228793655
    H            0.274129339338    -0.607420007073     0.882626430161
    H            0.636394578813     0.499645361003     2.160979390040
    C           -1.730736745007     1.390124032374     0.909867875765
    H           -0.197808078231     1.406699892253    -0.633618722539
    H            0.128770415771     2.436566177568     0.714592317767
    C           -2.672250812121     0.338912838854     0.251014402123
    H           -2.162144437039     2.371279601074     0.737097252221
    H           -1.746590079848     1.256181242151     1.988265583879
    C           -2.142485991955    -0.479079388119    -0.930587121284
    H           -3.049180861643    -0.334729046839     1.016553737724
    H           -3.556354779431     0.866817702998    -0.098277193302
    C           -3.198151610491    -1.439073773847    -1.484967573151
    H           -1.267154609025    -1.054015609801    -0.641945324744
    H           -1.822037973276     0.187559088406    -1.727408526816
    C           -2.693062607133    -2.260238160723    -2.670876288322
    H           -3.525342495572    -2.110908458292    -0.694268503526
    H           -4.076720308572    -0.873009105341    -1.786735818872
    H           -3.462633965544    -2.930557726008    -3.041070817197
    H           -1.834365136141    -2.864849808492    -2.392657969507
    H           -2.390938330808    -1.617517885094    -3.492882856565
    C            4.171076286260    -0.515798795445     0.829048177608
    H            4.287724490344    -0.680788676947    -0.232411064499
    H            4.592952136816    -1.339232484614     1.384008293117
    H            4.660412309930     0.408511369402     1.100616530141

  Mulliken Charges: (a.u.)
   Center  Symbol    Alpha    Beta     Spin     Total
       1     O     4.28605  4.28605  0.00000 -0.57209
       2     C     2.60577  2.60577  0.00000  0.78846
       3     C     3.20878  3.20878  0.00000 -0.41756
       4     O     4.30748  4.30748  0.00000 -0.61496
       5     C     3.15674  3.15674  0.00000 -0.31348
       6     H     0.39910  0.39910  0.00000  0.20179
       7     H     0.40093  0.40093  0.00000  0.19814
       8     C     3.16222  3.16222  0.00000 -0.32445
       9     H     0.40786  0.40786  0.00000  0.18429
      10     H     0.41051  0.41051  0.00000  0.17897
      11     C     3.15745  3.15745  0.00000 -0.31489
      12     H     0.41646  0.41646  0.00000  0.16707
      13     H     0.42132  0.42132  0.00000  0.15736
      14     C     3.15519  3.15519  0.00000 -0.31037
      15     H     0.42122  0.42122  0.00000  0.15756
      16     H     0.42017  0.42017  0.00000  0.15966
      17     C     3.15145  3.15145  0.00000 -0.30290
      18     H     0.42439  0.42439  0.00000  0.15122
      19     H     0.42049  0.42049  0.00000  0.15902
      20     C     3.23934  3.23934  0.00000 -0.47869
      21     H     0.42313  0.42313  0.00000  0.15374
      22     H     0.42252  0.42252  0.00000  0.15497
      23     H     0.41912  0.41912  0.00000  0.16177
      24     H     0.42210  0.42210  0.00000  0.15581
      25     H     0.42100  0.42100  0.00000  0.15800
      26     C     3.09237  3.09237  0.00000 -0.18473
      27     H     0.40912  0.40912  0.00000  0.18177
      28     H     0.40858  0.40858  0.00000  0.18285
      29     H     0.40916  0.40916  0.00000  0.18168

   Total alpha = 44.00000, Total beta = 44.00000, Total charge =  0.00000
