  ==> Input File <==

--------------------------------------------------------------------------
set {
	reference rhf
	basis 6-31G*
}

set_num_threads( 4 )
memory 2 gb

molecule MOL {
0 1

O	 -0.682937	 1.318834	 -0.186099
C	 -0.860635	 0.152188	 -0.042321
C	 -2.173363	 -0.477127	 0.338347
O	 0.083258	 -0.765189	 -0.202595
H	 -2.477673	 -1.180929	 -0.427595
H	 -2.923125	 0.290956	 0.455536
H	 -2.058825	 -1.029004	 1.264191
C	 0.570743	 -1.445490	 0.951678
C	 -0.320075	 -2.615666	 1.325545
H	 0.658723	 -0.743271	 1.766716
H	 1.557327	 -1.784330	 0.670007
H	 0.116372	 -3.157843	 2.158785
H	 -1.303741	 -2.272835	 1.620905
H	 -0.422047	 -3.299646	 0.489968

	symmetry c1
}
set optking {
	frozen_dihedral = ("
		8 4 2 1
	")
}

ee = optimize('scf')
oeprop('DIPOLE', 'QUADRUPOLE', 'MULLIKEN_CHARGES')
f=open( 'psi4out.xyz', 'w' )
f.write( "14  " )
f.write( str(ee) + "\n" )
f.write( MOL.save_string_xyz() )
f.close()
--------------------------------------------------------------------------

    Molecular point group: c1
  Charge       = 0
  Multiplicity = 1
  Basis Set: 6-31G*
  Basis Set:
  @DF-RHF Final Energy:  -305.83716291649159
    Total Energy =                       -305.8371629164914793
    Molecular point group: c1
  Basis Set: 6-31G*
  Basis Set:
  Basis Set: 6-31G*
  Basis Set:
  @DF-RHF Final Energy:  -305.84912227695634
    Total Energy =                       -305.8491222769562228
  Basis Set: 6-31G*
  Basis Set:
  Basis Set: 6-31G*
  Basis Set:
  @DF-RHF Final Energy:  -305.85171132746018
    Total Energy =                       -305.8517113274601229
  Basis Set: 6-31G*
  Basis Set:
  Basis Set: 6-31G*
  Basis Set:
  @DF-RHF Final Energy:  -305.85148213073751
    Total Energy =                       -305.8514821307374518
  Basis Set: 6-31G*
  Basis Set:
  @DF-RHF Final Energy:  -305.85288865796167
    Total Energy =                       -305.8528886579618415
  @DF-RHF Final Energy:  -305.85325477193197
    Total Energy =                       -305.8532547719320291
  @DF-RHF Final Energy:  -305.85352592784227
    Total Energy =                       -305.8535259278420426
  @DF-RHF Final Energy:  -305.85379098079648
    Total Energy =                       -305.8537909807964752
  @DF-RHF Final Energy:  -305.85410943640653
    Total Energy =                       -305.8541094364068158
  @DF-RHF Final Energy:  -305.85461999447443
    Total Energy =                       -305.8546199944743762
  @DF-RHF Final Energy:  -305.85461091921320
    Total Energy =                       -305.8546109192132008
  @DF-RHF Final Energy:  -305.85437587832348
    Total Energy =                       -305.8543758783237081
  @DF-RHF Final Energy:  -305.85501017460069
    Total Energy =                       -305.8550101746008636
  @DF-RHF Final Energy:  -305.85510088602462
    Total Energy =                       -305.8551008860245588
  @DF-RHF Final Energy:  -305.85542241178780
    Total Energy =                       -305.8554224117875151
  @DF-RHF Final Energy:  -305.85547710938471
    Total Energy =                       -305.8554771093846512
  @DF-RHF Final Energy:  -305.85551869484908
    Total Energy =                       -305.8555186948490814
  @DF-RHF Final Energy:  -305.85555202296081
    Total Energy =                       -305.8555520229608646
  @DF-RHF Final Energy:  -305.85563956497498
    Total Energy =                       -305.8556395649749788
  @DF-RHF Final Energy:  -305.85578140084613
    Total Energy =                       -305.8557814008458422
  @DF-RHF Final Energy:  -305.85580395632348
    Total Energy =                       -305.8558039563232569
  Basis Set: 6-31G*
  Basis Set:
  @DF-RHF Final Energy:  -305.85581125691101
    Total Energy =                       -305.8558112569109539
  Basis Set: 6-31G*
  Basis Set:
  Basis Set: 6-31G*
  Basis Set:
  @DF-RHF Final Energy:  -305.85580948391828
    Total Energy =                       -305.8558094839185628
  Basis Set: 6-31G*
  Basis Set:
  Basis Set: 6-31G*
  Basis Set:
  @DF-RHF Final Energy:  -305.85581478901707
    Total Energy =                       -305.8558147890170744
  Basis Set: 6-31G*
  Basis Set:
  Charge       = 0
  Multiplicity = 1
  Basis Set: 6-31G*
  Basis Set:

    Orbital Energies (a.u.)
    -----------------------

    Doubly Occupied:

       1A    -20.585692     2A    -20.554581     3A    -11.377387
       4A    -11.298745     5A    -11.238840     6A    -11.226041
       7A     -1.458385     8A     -1.367646     9A     -1.049922
      10A     -1.010320    11A     -0.876388    12A     -0.782844
      13A     -0.697352    14A     -0.688312    15A     -0.650651
      16A     -0.630110    17A     -0.585926    18A     -0.572650
      19A     -0.555807    20A     -0.540085    21A     -0.521209
      22A     -0.487604    23A     -0.455504    24A     -0.437547

  @DF-RHF Final Energy:  -305.85581536935638

   => Energetics <=

    Nuclear Repulsion Energy =            244.7092892329530116
    One-Electron Energy =                -901.8311065053185303
    Two-Electron Energy =                 351.2660019030092826
    DFT Exchange-Correlation Energy =       0.0000000000000000
    Empirical Dispersion Energy =           0.0000000000000000
    PCM Polarization Energy =               0.0000000000000000
    EFP Energy =                            0.0000000000000000
    Total Energy =                       -305.8558153693562645
    Molecular point group: c1
  Basis Set: 6-31G*
  Basis Set:

  -Total Gradient:
     Atom            X                  Y                   Z
    ------   -----------------  -----------------  -----------------
       1        0.000742074345     0.000428841291     0.000830327821
       2       -0.000603652850    -0.000509122389    -0.001354367422
       3        0.000015017751    -0.000132184150     0.000057034911
       4       -0.001077175100    -0.000077141024     0.000906702539
       5        0.000011551861     0.000035326486    -0.000006356316
       6        0.000014570044     0.000018966316    -0.000012732612
       7       -0.000002762292     0.000018940526    -0.000049456639
       8        0.000899257714     0.000166848403    -0.000311423935
       9       -0.000032862611     0.000012441902    -0.000011425330
      10       -0.000031977081     0.000018336443    -0.000033468716
      11        0.000008251632    -0.000019521501    -0.000021021604
      12       -0.000004852876    -0.000015003634     0.000000281623
      13        0.000039964360     0.000063062553     0.000013907867
      14        0.000022595103    -0.000009791224    -0.000008002185

  **** Optimization is complete! (in 25 steps) ****
    Final optimized geometry and variables:
    Molecular point group: c1

    Geometry (in Angstrom), charge = 0, multiplicity = 1:

    O            0.242702616464     1.437682460425    -1.338633139839
    C           -0.347613055130     0.793887256495    -0.543540959785
    C           -1.559035487953     1.290222483176     0.206109713223
    O            0.003781506606    -0.482435734272    -0.280072803902
    H           -2.373024338574     0.582634284497     0.098982519608
    H           -1.850350567967     2.256206408098    -0.178721758783
    H           -1.340780087636     1.383348516561     1.264734044957
    C            0.589715822326    -0.779691150120     0.977369994262
    C            1.053052696649    -2.220299091640     0.938596297076
    H           -0.135748295025    -0.632711868941     1.771020470654
    H            1.426009356372    -0.110458854563     1.148967570667
    H            1.507401422718    -2.491866140366     1.886008227800
    H            0.214922627475    -2.882039851938     0.754219438353
    H            1.781662220496    -2.360339009761     0.149481130521

  Mulliken Charges: (a.u.)
   Center  Symbol    Alpha    Beta     Spin     Total
       1     O     4.24762  4.24762  0.00000 -0.49524
       2     C     2.62612  2.62612  0.00000  0.74776
       3     C     3.29475  3.29475  0.00000 -0.58950
       4     O     4.31345  4.31345  0.00000 -0.62691
       5     H     0.39945  0.39945  0.00000  0.20110
       6     H     0.39375  0.39375  0.00000  0.21250
       7     H     0.40540  0.40540  0.00000  0.18921
       8     C     3.00331  3.00331  0.00000 -0.00663
       9     C     3.24564  3.24564  0.00000 -0.49128
      10     H     0.42267  0.42267  0.00000  0.15466
      11     H     0.41468  0.41468  0.00000  0.17063
      12     H     0.41775  0.41775  0.00000  0.16450
      13     H     0.40999  0.40999  0.00000  0.18002
      14     H     0.40542  0.40542  0.00000  0.18916

   Total alpha = 24.00000, Total beta = 24.00000, Total charge = -0.00000
