                              Psi4 1.0.54 Driver

  ==> Input File <==

--------------------------------------------------------------------------
set {
	reference rhf
	basis cc-pvtz
}

set_num_threads( 4 )
memory 2 gb

molecule MOL {
0 1

H	 -2.258876	 -1.314426	 1.451722
C	 -1.562750	 -0.785374	 0.835729
C	 -1.955794	 0.350316	 0.057991
C	 -0.285495	 -1.168873	 0.768032
H	 -2.975909	 0.684195	 0.090346
C	 -1.065474	 0.993580	 -0.703665
H	 0.084221	 -2.009547	 1.320950
N	 0.640204	 -0.530428	 -0.000115
H	 -1.323608	 1.845780	 -1.297873
C	 0.326303	 0.572737	 -0.774920
C	 2.006991	 -1.033007	 -0.000020
O	 1.155010	 1.124265	 -1.446713
H	 2.182444	 -1.636914	 -0.880881
H	 2.678769	 -0.195442	 -0.002236
H	 2.183828	 -1.633244	 0.883082

	symmetry c1
}
set optking {
	frozen_dihedral = ("
		10 8 11 13
	")
}

ee,wfn = optimize('scf', return_wfn=True)
oeprop( wfn, 'DIPOLE', 'QUADRUPOLE', 'MULLIKEN_CHARGES')
f=open( 'psi4out.xyz', 'w' )
f.write( "15  " )
f.write( str(ee) + "\n" )
f.write( MOL.save_string_xyz() )
f.close()
--------------------------------------------------------------------------

    Molecular point group: c1
  Charge       = 0
  Multiplicity = 1
  Basis Set: CC-PVTZ
  Basis Set:
  @DF-RHF Final Energy:  -360.72278337312730
    Total Energy =                       -360.7227833731270721
    Molecular point group: c1
  Basis Set: CC-PVTZ
  Basis Set:
  Basis Set: CC-PVTZ
  Basis Set:
  @DF-RHF Final Energy:  -360.72322085304017
    Total Energy =                       -360.7232208530404023
  Basis Set: CC-PVTZ
  Basis Set:
  Basis Set: CC-PVTZ
  Basis Set:
  @DF-RHF Final Energy:  -360.72327720636906
    Total Energy =                       -360.7232772063693460
  Basis Set: CC-PVTZ
  Basis Set:
  Basis Set: CC-PVTZ
  Basis Set:
  @DF-RHF Final Energy:  -360.72325263553773
    Total Energy =                       -360.7232526355377331
  Basis Set: CC-PVTZ
  Basis Set:
  Charge       = 0
  Multiplicity = 1
  Basis Set: CC-PVTZ
  Basis Set:

    Orbital Energies (a.u.)
    -----------------------

    Doubly Occupied:

       1A    -20.501895     2A    -15.617533     3A    -11.338030
       4A    -11.294276     5A    -11.265500     6A    -11.258142
       7A    -11.229763     8A    -11.227912     9A     -1.391048
      10A     -1.285830    11A     -1.118814    12A     -1.029223
      13A     -0.972605    14A     -0.876404    15A     -0.838869
      16A     -0.719549    17A     -0.702175    18A     -0.663925
      19A     -0.653301    20A     -0.626041    21A     -0.611891
      22A     -0.574866    23A     -0.553635    24A     -0.550943
      25A     -0.530907    26A     -0.484319    27A     -0.420547
      28A     -0.410587    29A     -0.310272

  @DF-RHF Final Energy:  -360.72328437641204

   => Energetics <=

    Nuclear Repulsion Energy =            358.7649731231197165
    One-Electron Energy =               -1200.8589076679600112
    Two-Electron Energy =                 481.3706501684281420
    DFT Exchange-Correlation Energy =       0.0000000000000000
    Empirical Dispersion Energy =           0.0000000000000000
    PCM Polarization Energy =               0.0000000000000000
    EFP Energy =                            0.0000000000000000
    Total Energy =                       -360.7232843764121526
    Molecular point group: c1
  Basis Set: CC-PVTZ
  Basis Set:

  -Total Gradient:
     Atom            X                  Y                   Z
    ------   -----------------  -----------------  -----------------
       1       -0.000001054064     0.000003756908     0.000005380019
       2        0.000185145948    -0.000093980906    -0.000003779890
       3       -0.000007180844     0.000153369391    -0.000117093367
       4       -0.000233926520    -0.000088300591     0.000159054138
       5        0.000004441752    -0.000006477930     0.000002626421
       6       -0.000176642723     0.000003019576     0.000034825514
       7        0.000016588317     0.000013106937    -0.000017422968
       8       -0.000253647981    -0.000665170848    -0.000919876881
       9        0.000011223873     0.000008957316    -0.000013477329
      10        0.000221466686     0.000155802647     0.000899818181
      11        0.000400772041     0.001107327891    -0.000326248452
      12        0.000087518749     0.000132021709    -0.000175381432
      13       -0.000251152060    -0.000733399370     0.000473402895
      14       -0.000007429339     0.000010509066    -0.000000858744
      15        0.000003876159    -0.000000541799    -0.000000968108

  **** Optimization is complete! (in 5 steps) ****
    Final optimized geometry and variables:
    Molecular point group: c1

    Geometry (in Angstrom), charge = 0, multiplicity = 1:

    H           -2.237092056410    -1.266395254459     1.625259635759
    C           -1.541226066801    -0.733408332333     1.012392378852
    C           -1.935429289888     0.405682293946     0.241496305501
    C           -0.261530794036    -1.113685996959     0.949583938146
    H           -2.956221554272     0.737301461771     0.276208205658
    C           -1.046255102849     1.056389239201    -0.516442677985
    H            0.106788638569    -1.954296996644     1.502055816413
    N            0.661579311424    -0.465900553378     0.188572604961
    H           -1.305669559605     1.910900329434    -1.106947003688
    C            0.341680167616     0.629354524869    -0.592706134919
    C            2.038808560798    -0.934341350868     0.153824241935
    O            1.176332272974     1.160393440604    -1.274046436660
    H            2.218669358588    -1.537085673558    -0.726688804182
    H            2.704928006472    -0.089198029448     0.133716072684
    H            2.230586548893    -1.528299976431     1.034858734066

  Mulliken Charges: (a.u.)
   Center  Symbol    Alpha    Beta     Spin     Total
       1     H     0.41393  0.41393  0.00000  0.17215
       2     C     3.10576  3.10576  0.00000 -0.21152
       3     C     3.06023  3.06023  0.00000 -0.12046
       4     C     3.03634  3.03634  0.00000 -0.07267
       5     H     0.41842  0.41842  0.00000  0.16316
       6     C     3.11824  3.11824  0.00000 -0.23647
       7     H     0.42039  0.42039  0.00000  0.15923
       8     N     3.50952  3.50952  0.00000 -0.01905
       9     H     0.40919  0.40919  0.00000  0.18162
      10     C     2.84539  2.84539  0.00000  0.30922
      11     C     3.09497  3.09497  0.00000 -0.18994
      12     O     4.23601  4.23601  0.00000 -0.47201
      13     H     0.44501  0.44501  0.00000  0.10999
      14     H     0.43120  0.43120  0.00000  0.13760
      15     H     0.45542  0.45542  0.00000  0.08916

   Total alpha = 29.00000, Total beta = 29.00000, Total charge =  0.00000

*** Psi4 exiting successfully. Buy a developer a beer!
