  ==> Input File <==

--------------------------------------------------------------------------
set {
	reference rhf
	basis 6-31G*
}

set_num_threads( 1 )
memory 2 gb

molecule MOL {
0 1

H	 -3.261111	 -0.295142	 1.469456
C	 -3.306842	 -0.277400	 0.373456
C	 -2.660244	 0.921717	 -0.272021
O	 -3.838538	 -1.161155	 -0.216482
C	 -1.220012	 1.144545	 0.209990
H	 -2.705793	 0.797307	 -1.347733
H	 -3.263782	 1.790044	 -0.010477
C	 -0.252658	 0.041456	 -0.226725
H	 -0.873521	 2.100229	 -0.171974
H	 -1.211708	 1.231594	 1.295398
C	 1.180775	 0.282413	 0.250794
H	 -0.266029	 -0.034465	 -1.312038
H	 -0.597733	 -0.921000	 0.146291
C	 2.148627	 -0.814315	 -0.201312
H	 1.516199	 1.249228	 -0.115937
H	 1.192670	 0.346017	 1.338083
C	 3.580890	 -0.659131	 0.322722
H	 2.166869	 -0.852443	 -1.289387
H	 1.762857	 -1.776509	 0.128956
C	 3.892871	 -1.482588	 1.573404
H	 3.752536	 0.390959	 0.545875
H	 4.283352	 -0.919697	 -0.466312
H	 3.195098	 -1.254450	 2.374862
H	 3.839442	 -2.549068	 1.381729
H	 4.893427	 -1.267517	 1.936208

	symmetry c1
}
set optking {
	frozen_dihedral = ("
		6 3 5 8,
		6 3 2 4,
		3 5 8 12,
		12 8 11 14,
		8 11 14 18
	")
}

ee = energy('scf')
oeprop('DIPOLE', 'QUADRUPOLE', 'MULLIKEN_CHARGES')
f=open( 'psi4out.xyz', 'w' )
f.write( "25  " )
f.write( str(ee) + "\n" )
f.write( MOL.save_string_xyz() )
f.close()
--------------------------------------------------------------------------

    Molecular point group: c1

    Geometry (in Angstrom), charge = 0, multiplicity = 1:

       Center              X                  Y                   Z               Mass
    ------------   -----------------  -----------------  -----------------  -----------------
           H         -3.210372894544    -0.055737753754     1.259884879729     1.007825032070
           C         -3.256103894544    -0.037995753754     0.163884879729    12.000000000000
           C         -2.609505894544     1.161121246246    -0.481592120271    12.000000000000
           O         -3.787799894544    -0.921750753754    -0.426053120271    15.994914619560
           C         -1.169273894544     1.383949246246     0.000418879729    12.000000000000
           H         -2.655054894544     1.036711246246    -1.557304120271     1.007825032070
           H         -3.213043894544     2.029448246246    -0.220048120271     1.007825032070
           C         -0.201919894544     0.280860246246    -0.436296120271    12.000000000000
           H         -0.822782894544     2.339633246246    -0.381545120271     1.007825032070
           H         -1.160969894544     1.470998246246     1.085826879729     1.007825032070
           C          1.231513105456     0.521817246246     0.041222879729    12.000000000000
           H         -0.215290894544     0.204939246246    -1.521609120271     1.007825032070
           H         -0.546994894544    -0.681595753754    -0.063280120271     1.007825032070
           C          2.199365105456    -0.574910753754    -0.410883120271    12.000000000000
           H          1.566937105456     1.488632246246    -0.325508120271     1.007825032070
           H          1.243408105456     0.585421246246     1.128511879729     1.007825032070
           C          3.631628105456    -0.419726753754     0.113150879729    12.000000000000
           H          2.217607105456    -0.613038753754    -1.498958120271     1.007825032070
           H          1.813595105456    -1.537104753754    -0.080615120271     1.007825032070
           C          3.943609105456    -1.243183753754     1.363832879729    12.000000000000
           H          3.803274105456     0.630363246246     0.336303879729     1.007825032070
           H          4.334090105456    -0.680292753754    -0.675883120271     1.007825032070
           H          3.245836105456    -1.015045753754     2.165290879729     1.007825032070
           H          3.890180105456    -2.309663753754     1.172157879729     1.007825032070
           H          4.944165105456    -1.028112753754     1.726636879729     1.007825032070

  Charge       = 0
  Multiplicity = 1
  Basis Set: 6-31G*
  Basis Set:

    Orbital Energies (a.u.)
    -----------------------

    Doubly Occupied:

       1A    -20.562054     2A    -11.326171     3A    -11.235433
       4A    -11.234701     5A    -11.223904     6A    -11.220816
       7A    -11.216854     8A    -11.215881     9A    -11.210956
      10A     -1.402022    11A     -1.103952    12A     -1.069360
      13A     -1.014308    14A     -0.943030    15A     -0.872012
      16A     -0.817936    17A     -0.789755    18A     -0.786088
      19A     -0.664135    20A     -0.662497    21A     -0.631213
      22A     -0.623994    23A     -0.605389    24A     -0.594671
      25A     -0.567610    26A     -0.557746    27A     -0.530979
      28A     -0.521890    29A     -0.514765    30A     -0.497271
      31A     -0.485225    32A     -0.482180    33A     -0.464788
      34A     -0.457139    35A     -0.441070    36A     -0.409593

  @DF-RHF Final Energy:  -387.11914943391156

   => Energetics <=

    Nuclear Repulsion Energy =            437.9958872089351303
    One-Electron Energy =               -1392.3150555248212186
    Two-Electron Energy =                 567.2000188819763480
    DFT Exchange-Correlation Energy =       0.0000000000000000
    Empirical Dispersion Energy =           0.0000000000000000
    PCM Polarization Energy =               0.0000000000000000
    EFP Energy =                            0.0000000000000000
    Total Energy =                       -387.1191494339097972

  Mulliken Charges: (a.u.)
   Center  Symbol    Alpha    Beta     Spin     Total
       1     H     0.43260  0.43260  0.00000  0.13481
       2     C     2.83085  2.83085  0.00000  0.33830
       3     C     3.20809  3.20809  0.00000 -0.41618
       4     O     4.23773  4.23773  0.00000 -0.47547
       5     C     3.16662  3.16662  0.00000 -0.33324
       6     H     0.39968  0.39968  0.00000  0.20064
       7     H     0.40669  0.40669  0.00000  0.18663
       8     C     3.15557  3.15557  0.00000 -0.31113
       9     H     0.41284  0.41284  0.00000  0.17433
      10     H     0.41963  0.41963  0.00000  0.16075
      11     C     3.15397  3.15397  0.00000 -0.30794
      12     H     0.41789  0.41789  0.00000  0.16422
      13     H     0.41814  0.41814  0.00000  0.16372
      14     C     3.15470  3.15470  0.00000 -0.30941
      15     H     0.42209  0.42209  0.00000  0.15581
      16     H     0.42320  0.42320  0.00000  0.15360
      17     C     3.15469  3.15469  0.00000 -0.30938
      18     H     0.42020  0.42020  0.00000  0.15961
      19     H     0.42087  0.42087  0.00000  0.15826
      20     C     3.24007  3.24007  0.00000 -0.48013
      21     H     0.42202  0.42202  0.00000  0.15597
      22     H     0.41956  0.41956  0.00000  0.16087
      23     H     0.42261  0.42261  0.00000  0.15477
      24     H     0.42014  0.42014  0.00000  0.15973
      25     H     0.41956  0.41956  0.00000  0.16088

   Total alpha = 36.00000, Total beta = 36.00000, Total charge =  0.00000
