                              Psi4 1.0.54 Driver

  ==> Input File <==

--------------------------------------------------------------------------
set {
	reference rhf
	basis cc-pvtz
}

set_num_threads( 4 )
memory 2 gb

molecule MOL {
0 1

H	 1.962320	 0.405961	 0.507325
C	 1.120837	 0.447109	 -0.168637
O	 0.000000	 0.000000	 0.518769
H	 0.996034	 1.472542	 -0.510351
H	 1.334657	 -0.178996	 -1.032425
C	 -1.165153	 0.000000	 -0.236961
H	 -1.229451	 0.882440	 -0.870223
H	 -2.002557	 0.000000	 0.445289
H	 -1.229451	 -0.882440	 -0.870223

	symmetry c1
}
set optking {
	frozen_dihedral = ("
		2 3 6 7
	")
}

ee,wfn = optimize('scf', return_wfn=True)
oeprop( wfn, 'DIPOLE', 'QUADRUPOLE', 'MULLIKEN_CHARGES')
f=open( 'psi4out.xyz', 'w' )
f.write( "9  " )
f.write( str(ee) + "\n" )
f.write( MOL.save_string_xyz() )
f.close()
--------------------------------------------------------------------------

    Molecular point group: c1
  Charge       = 0
  Multiplicity = 1
  Basis Set: CC-PVTZ
  Basis Set:
  @DF-RHF Final Energy:  -154.12617231456409
    Total Energy =                       -154.1261723145640303
    Molecular point group: c1
  Basis Set: CC-PVTZ
  Basis Set:
  Basis Set: CC-PVTZ
  Basis Set:
  @DF-RHF Final Energy:  -154.12621628489370
    Total Energy =                       -154.1262162848936157
  Basis Set: CC-PVTZ
  Basis Set:
  Charge       = 0
  Multiplicity = 1
  Basis Set: CC-PVTZ
  Basis Set:

    Orbital Energies (a.u.)
    -----------------------

    Doubly Occupied:

       1A    -20.549473     2A    -11.263411     3A    -11.263125
       4A     -1.381562     5A     -0.975845     6A     -0.872842
       7A     -0.662586     8A     -0.655786     9A     -0.646715
      10A     -0.552883    11A     -0.529784    12A     -0.477014
      13A     -0.418643

  @DF-RHF Final Energy:  -154.12622895348750

   => Energetics <=

    Nuclear Repulsion Energy =             84.7906527536149639
    One-Electron Energy =                -377.3344246503329487
    Two-Electron Energy =                 138.4175429432304441
    DFT Exchange-Correlation Energy =       0.0000000000000000
    Empirical Dispersion Energy =           0.0000000000000000
    PCM Polarization Energy =               0.0000000000000000
    EFP Energy =                            0.0000000000000000
    Total Energy =                       -154.1262289534875549
    Molecular point group: c1
  Basis Set: CC-PVTZ
  Basis Set:

  -Total Gradient:
     Atom            X                  Y                   Z
    ------   -----------------  -----------------  -----------------
       1       -0.000061273598    -0.000024285074     0.000040850999
       2       -0.000360456388     0.001930831977     0.000453753227
       3        0.000941447692    -0.003094249209    -0.001253535806
       4        0.000006775130     0.000008055610     0.000018037449
       5        0.000011957915     0.000003584554     0.000012774353
       6       -0.001614167559     0.002407952296     0.002523726452
       7        0.001139161490    -0.001291319426    -0.001868044772
       8       -0.000049261432     0.000003920267     0.000038075216
       9       -0.000014183250     0.000055509004     0.000034362882

  **** Optimization is complete! (in 3 steps) ****
    Final optimized geometry and variables:
    Molecular point group: c1

    Geometry (in Angstrom), charge = 0, multiplicity = 1:

    H            1.981108036428     0.246010543857     0.478131865609
    C            1.138510131483     0.293531272085    -0.196384996071
    O            0.017536791652    -0.149873620820     0.493459724209
    H            1.016329919629     1.320396195868    -0.533463353870
    H            1.351015789800    -0.329851110965    -1.062929272293
    C           -1.155094938533    -0.156651492756    -0.253593004245
    H           -1.228849583989     0.720185071288    -0.892274461010
    H           -1.992206854665    -0.172173720635     0.429386767499
    H           -1.208246460563    -1.035767939135    -0.892604502828

  Mulliken Charges: (a.u.)
   Center  Symbol    Alpha    Beta     Spin     Total
       1     H     0.44874  0.44874  0.00000  0.10252
       2     C     3.02192  3.02192  0.00000 -0.04384
       3     O     4.16870  4.16870  0.00000 -0.33740
       4     H     0.47203  0.47203  0.00000  0.05595
       5     H     0.47377  0.47377  0.00000  0.05246
       6     C     3.02046  3.02046  0.00000 -0.04092
       7     H     0.47553  0.47553  0.00000  0.04894
       8     H     0.44984  0.44984  0.00000  0.10033
       9     H     0.46902  0.46902  0.00000  0.06196

   Total alpha = 13.00000, Total beta = 13.00000, Total charge =  0.00000

*** Psi4 exiting successfully. Buy a developer a beer!
