                              Psi4 1.0.54 Driver

  ==> Input File <==

--------------------------------------------------------------------------
set {
	reference rhf
	basis cc-pvtz
}

set_num_threads( 4 )
memory 2 gb

molecule MOL {
0 1

H	 -2.123894	 -0.667238	 -0.609809
O	 -2.041679	 -0.058866	 0.103463
C	 -0.959304	 0.780994	 -0.094939
C	 0.354905	 0.037902	 -0.006215
H	 -0.985899	 1.279578	 -1.057596
H	 -0.969809	 1.529522	 0.682889
F	 0.765293	 -0.342195	 -1.203253
F	 1.286244	 0.815310	 0.505489
F	 0.274210	 -1.037501	 0.740089

	symmetry c1
}
set optking {
	frozen_dihedral = ("
		7 4 3 5
	")
}

ee,wfn = optimize('scf', return_wfn=True)
oeprop( wfn, 'DIPOLE', 'QUADRUPOLE', 'MULLIKEN_CHARGES')
f=open( 'psi4out.xyz', 'w' )
f.write( "9  " )
f.write( str(ee) + "\n" )
f.write( MOL.save_string_xyz() )
f.close()
--------------------------------------------------------------------------

    Molecular point group: c1
  Charge       = 0
  Multiplicity = 1
  Basis Set: CC-PVTZ
  Basis Set:
  @DF-RHF Final Energy:  -450.84213742206748
    Total Energy =                       -450.8421374220673670
    Molecular point group: c1
  Basis Set: CC-PVTZ
  Basis Set:
  Basis Set: CC-PVTZ
  Basis Set:
  @DF-RHF Final Energy:  -450.84246904981217
    Total Energy =                       -450.8424690498123937
  Basis Set: CC-PVTZ
  Basis Set:
  Basis Set: CC-PVTZ
  Basis Set:
  @DF-RHF Final Energy:  -450.84266450281120
    Total Energy =                       -450.8426645028109760
  Basis Set: CC-PVTZ
  Basis Set:
  Basis Set: CC-PVTZ
  Basis Set:
  @DF-RHF Final Energy:  -450.84267423277851
    Total Energy =                       -450.8426742327786201
  Basis Set: CC-PVTZ
  Basis Set:
  Basis Set: CC-PVTZ
  Basis Set:
  @DF-RHF Final Energy:  -450.84267669794679
    Total Energy =                       -450.8426766979467857
  Basis Set: CC-PVTZ
  Basis Set:
  Charge       = 0
  Multiplicity = 1
  Basis Set: CC-PVTZ
  Basis Set:

    Orbital Energies (a.u.)
    -----------------------

    Doubly Occupied:

       1A    -26.337269     2A    -26.336441     3A    -26.335255
       4A    -20.582791     5A    -11.493379     6A    -11.310351
       7A     -1.746524     8A     -1.643807     9A     -1.640073
      10A     -1.405476    11A     -1.046923    12A     -0.929163
      13A     -0.836397    14A     -0.833700    15A     -0.808730
      16A     -0.734123    17A     -0.717870    18A     -0.703243
      19A     -0.668871    20A     -0.664758    21A     -0.647274
      22A     -0.631516    23A     -0.614543    24A     -0.532884
      25A     -0.484136

  @DF-RHF Final Energy:  -450.84267708453797

   => Energetics <=

    Nuclear Repulsion Energy =            276.8197557525919592
    One-Electron Energy =               -1175.9538618387659881
    Two-Electron Energy =                 448.2914290016360042
    DFT Exchange-Correlation Energy =       0.0000000000000000
    Empirical Dispersion Energy =           0.0000000000000000
    PCM Polarization Energy =               0.0000000000000000
    EFP Energy =                            0.0000000000000000
    Total Energy =                       -450.8426770845380247
    Molecular point group: c1
  Basis Set: CC-PVTZ
  Basis Set:

  -Total Gradient:
     Atom            X                  Y                   Z
    ------   -----------------  -----------------  -----------------
       1        0.000018688043     0.000004927896    -0.000003587217
       2       -0.000036297461    -0.000006258422     0.000033062756
       3        0.003700045373     0.006788416913     0.002443749030
       4       -0.003553306953    -0.006350732734     0.000326155560
       5       -0.002422345592    -0.004554966747    -0.002200429094
       6       -0.000014986089    -0.000010477574     0.000007043412
       7        0.002307144660     0.004056769723    -0.000559167290
       8        0.000019171453     0.000041928013     0.000006594439
       9       -0.000018113433     0.000030392936    -0.000053421596

  **** Optimization is complete! (in 6 steps) ****
    Final optimized geometry and variables:
    Molecular point group: c1

    Geometry (in Angstrom), charge = 0, multiplicity = 1:

    H           -2.183550890374    -0.622658843600    -0.662557012773
    O           -2.067949678868    -0.063419834719     0.085004909140
    C           -0.974104397653     0.772659543143    -0.084343108096
    C            0.354042696400     0.027324406092    -0.002016330049
    H           -1.005053463111     1.259383962520    -1.051546282832
    H           -0.998147016442     1.508190848270     0.703086101611
    F            0.758743226162    -0.365222056728    -1.198128829653
    F            1.293068020764     0.827376363579     0.466302187947
    F            0.302962008082    -1.027839350273     0.768440004501

  Mulliken Charges: (a.u.)
   Center  Symbol    Alpha    Beta     Spin     Total
       1     H     0.38944  0.38944  0.00000  0.22112
       2     O     4.18786  4.18786  0.00000 -0.37572
       3     C     2.99864  2.99864  0.00000  0.00273
       4     C     2.68492  2.68492  0.00000  0.63016
       5     H     0.46024  0.46024  0.00000  0.07953
       6     H     0.44628  0.44628  0.00000  0.10745
       7     F     4.61577  4.61577  0.00000 -0.23154
       8     F     4.61334  4.61334  0.00000 -0.22667
       9     F     4.60352  4.60352  0.00000 -0.20704

   Total alpha = 25.00000, Total beta = 25.00000, Total charge =  0.00000

*** Psi4 exiting successfully. Buy a developer a beer!
