  ==> Input File <==

--------------------------------------------------------------------------
set {
	reference rhf
	basis cc-pvtz
}

set_num_threads( 4 )
memory 2 gb

molecule MOL {
0 1

H	 -0.000105	 1.988529	 0.748933
O	 -0.000098	 1.879786	 -0.188206
C	 -0.000014	 0.545691	 -0.532416
C	 -1.426633	 -0.005693	 -0.509768
C	 0.990286	 -0.225313	 0.342017
H	 0.351541	 0.465639	 -1.550582
F	 -2.164122	 0.665903	 -1.359432
F	 -1.476950	 -1.269982	 -0.845555
F	 -1.971226	 0.124127	 0.681004
F	 2.191867	 0.270071	 0.175720
F	 1.034924	 -1.498235	 0.039710
F	 0.687177	 -0.117422	 1.617893

	symmetry c1
}
set optking {
	frozen_dihedral = ("
		6 3 2 1
	")
}

ee = optimize('scf')
oeprop('DIPOLE', 'QUADRUPOLE', 'MULLIKEN_CHARGES')
f=open( 'psi4out.xyz', 'w' )
f.write( "12  " )
f.write( str(ee) + "\n" )
f.write( MOL.save_string_xyz() )
f.close()
--------------------------------------------------------------------------

    Molecular point group: c1
  Charge       = 0
  Multiplicity = 1
  Basis Set: CC-PVTZ
  Basis Set:
  @DF-RHF Final Energy:  -786.58863733006694
    Total Energy =                       -786.5886373300668311
    Molecular point group: c1
  Basis Set: CC-PVTZ
  Basis Set:
  Basis Set: CC-PVTZ
  Basis Set:
  @DF-RHF Final Energy:  -786.58873892767497
    Total Energy =                       -786.5887389276754220
  Basis Set: CC-PVTZ
  Basis Set:
  Basis Set: CC-PVTZ
  Basis Set:
  @DF-RHF Final Energy:  -786.58876188962222
    Total Energy =                       -786.5887618896219919
  Basis Set: CC-PVTZ
  Basis Set:
  Basis Set: CC-PVTZ
  Basis Set:
  @DF-RHF Final Energy:  -786.58876366201343
    Total Energy =                       -786.5887636620134344
  Basis Set: CC-PVTZ
  Basis Set:
  Charge       = 0
  Multiplicity = 1
  Basis Set: CC-PVTZ
  Basis Set:

    Orbital Energies (a.u.)
    -----------------------

    Doubly Occupied:

       1A    -26.362317     2A    -26.360682     3A    -26.357250
       4A    -26.354740     5A    -26.354182     6A    -26.350806
       7A    -20.609357     8A    -11.523504     9A    -11.516581
      10A    -11.351675    11A     -1.773847    12A     -1.765064
      13A     -1.669898    14A     -1.665727    15A     -1.661251
      16A     -1.659004    17A     -1.439204    18A     -1.103529
      19A     -1.002245    20A     -0.945284    21A     -0.872339
      22A     -0.869134    23A     -0.860538    24A     -0.851467
      25A     -0.839731    26A     -0.820463    27A     -0.750165
      28A     -0.736313    29A     -0.729723    30A     -0.725509
      31A     -0.697106    32A     -0.694220    33A     -0.690699
      34A     -0.680600    35A     -0.676486    36A     -0.670973
      37A     -0.662181    38A     -0.658057    39A     -0.624753
      40A     -0.553406    41A     -0.509833

  @DF-RHF Final Energy:  -786.58876406285992

   => Energetics <=

    Nuclear Repulsion Energy =            670.8921259347670230
    One-Electron Energy =               -2428.9620935565299078
    Two-Electron Energy =                 971.4812035589030756
    DFT Exchange-Correlation Energy =       0.0000000000000000
    Empirical Dispersion Energy =           0.0000000000000000
    PCM Polarization Energy =               0.0000000000000000
    EFP Energy =                            0.0000000000000000
    Total Energy =                       -786.5887640628596955
    Molecular point group: c1
  Basis Set: CC-PVTZ
  Basis Set:

  -Total Gradient:
     Atom            X                  Y                   Z
    ------   -----------------  -----------------  -----------------
       1        0.002474033386     0.000016278206     0.000054119113
       2       -0.002604623164    -0.000037473779     0.000129666211
       3       -0.001876984700     0.000227849499    -0.000920523804
       4       -0.000009677878     0.000007053624    -0.000012384315
       5       -0.000022426938     0.000002442679     0.000010862929
       6        0.001973667861    -0.000183688921     0.000745986986
       7        0.000002543398    -0.000019127056    -0.000010975235
       8        0.000005497820     0.000033448500     0.000014183388
       9        0.000035309424    -0.000011394753     0.000001831013
      10        0.000016615442     0.000008176244     0.000008124410
      11        0.000006701023    -0.000035990859     0.000011118941
      12       -0.000000655664    -0.000007573386    -0.000032009643

  **** Optimization is complete! (in 5 steps) ****
    Final optimized geometry and variables:
    Molecular point group: c1

    Geometry (in Angstrom), charge = 0, multiplicity = 1:

    H            0.195985796253     1.988495728537     0.780326474396
    O            0.213075032507     1.872242050534    -0.155205041980
    C            0.222476176730     0.536183446452    -0.495324372058
    C           -1.202462651524    -0.018793013925    -0.478303715677
    C            1.207935486882    -0.231557101498     0.387253230536
    H            0.591994585580     0.448188036848    -1.506839493672
    F           -1.955009194987     0.695136435002    -1.277649105489
    F           -1.248450048372    -1.262464670537    -0.889987516360
    F           -1.728674036094     0.034009588242     0.724596947176
    F            2.420983814017     0.219538690033     0.175760468646
    F            1.206190905895    -1.515608133892     0.142015899739
    F            0.939788320267    -0.056670552267     1.664844847297

  Mulliken Charges: (a.u.)
   Center  Symbol    Alpha    Beta     Spin     Total
       1     H     0.38141  0.38141  0.00000  0.23719
       2     O     4.19007  4.19007  0.00000 -0.38014
       3     C     3.00367  3.00367  0.00000 -0.00734
       4     C     2.68368  2.68368  0.00000  0.63264
       5     C     2.68624  2.68624  0.00000  0.62753
       6     H     0.42641  0.42641  0.00000  0.14718
       7     F     4.60163  4.60163  0.00000 -0.20326
       8     F     4.60436  4.60436  0.00000 -0.20872
       9     F     4.60868  4.60868  0.00000 -0.21737
      10     F     4.60275  4.60275  0.00000 -0.20550
      11     F     4.60006  4.60006  0.00000 -0.20013
      12     F     4.61104  4.61104  0.00000 -0.22208

   Total alpha = 41.00000, Total beta = 41.00000, Total charge =  0.00000
