  ==> Input File <==

--------------------------------------------------------------------------
set {
	reference rhf
	basis 6-31G*
}

set_num_threads( 4 )
memory 2 gb

molecule MOL {
0 1

H	 -3.269016	 -0.876744	 0.468090
C	 -2.809304	 0.000122	 0.025886
N	 -1.391456	 0.000019	 0.300661
H	 -3.037557	 -0.000063	 -1.044252
H	 -3.269223	 0.876956	 0.468000
C	 -1.091027	 0.458995	 1.642626
C	 -0.640373	 0.756663	 -0.681771
H	 -1.410703	 1.494512	 1.794351
H	 -1.631047	 -0.159552	 2.352092
C	 0.400797	 0.354233	 1.918406
H	 -0.851753	 0.355208	 -1.667524
H	 -0.930214	 1.811886	 -0.683915
C	 0.851452	 0.651900	 -0.405991
H	 0.612177	 0.755687	 2.904159
H	 0.690639	 -0.700990	 1.920549
N	 1.151880	 1.110877	 0.935974
H	 1.391471	 1.270448	 -1.115456
H	 1.171127	 -0.383616	 -0.557715
C	 2.569728	 1.110775	 1.210749
H	 2.752261	 1.518891	 2.198623
H	 3.083665	 1.737580	 0.490464
H	 3.013392	 0.111417	 1.168988

	symmetry c1
}
set optking {
	frozen_dihedral = ("
		6 3 2 4
	")
}

ee = optimize('scf')
oeprop('DIPOLE', 'QUADRUPOLE', 'MULLIKEN_CHARGES')
f=open( 'psi4out.xyz', 'w' )
f.write( "22  " )
f.write( str(ee) + "\n" )
f.write( MOL.save_string_xyz() )
f.close()
--------------------------------------------------------------------------

    Molecular point group: c1
  Charge       = 0
  Multiplicity = 1
  Basis Set: 6-31G*
  Basis Set:
  @DF-RHF Final Energy:  -344.22773832292273
    Total Energy =                       -344.2277383229230736
    Molecular point group: c1
  Basis Set: 6-31G*
  Basis Set:
  Basis Set: 6-31G*
  Basis Set:
  @DF-RHF Final Energy:  -344.22850054654020
    Total Energy =                       -344.2285005465403174
  Basis Set: 6-31G*
  Basis Set:
  Basis Set: 6-31G*
  Basis Set:
  @DF-RHF Final Energy:  -344.22861480471488
    Total Energy =                       -344.2286148047149936
  Basis Set: 6-31G*
  Basis Set:
  Basis Set: 6-31G*
  Basis Set:
  @DF-RHF Final Energy:  -344.22861682123749
    Total Energy =                       -344.2286168212373241
  Basis Set: 6-31G*
  Basis Set:
  Charge       = 0
  Multiplicity = 1
  Basis Set: 6-31G*
  Basis Set:

    Orbital Energies (a.u.)
    -----------------------

    Doubly Occupied:

       1A    -15.542004     2A    -15.541725     3A    -11.238801
       4A    -11.238607     5A    -11.238094     6A    -11.237975
       7A    -11.235912     8A    -11.235829     9A     -1.254796
      10A     -1.203629    11A     -1.024280    12A     -0.991450
      13A     -0.911430    14A     -0.866358    15A     -0.835597
      16A     -0.755671    17A     -0.665295    18A     -0.635667
      19A     -0.629762    20A     -0.626088    21A     -0.620702
      22A     -0.580793    23A     -0.551194    24A     -0.545660
      25A     -0.541630    26A     -0.518476    27A     -0.496974
      28A     -0.489302    29A     -0.463835    30A     -0.455271
      31A     -0.350363    32A     -0.345274

  @DF-RHF Final Energy:  -344.22861721329150

   => Energetics <=

    Nuclear Repulsion Energy =            421.3477364678482218
    One-Electron Energy =               -1301.4158164003508773
    Two-Electron Energy =                 535.8394627192113830
    DFT Exchange-Correlation Energy =       0.0000000000000000
    Empirical Dispersion Energy =           0.0000000000000000
    PCM Polarization Energy =               0.0000000000000000
    EFP Energy =                            0.0000000000000000
    Total Energy =                       -344.2286172132912725
    Molecular point group: c1
  Basis Set: 6-31G*
  Basis Set:

  -Total Gradient:
     Atom            X                  Y                   Z
    ------   -----------------  -----------------  -----------------
       1        0.000012046571     0.000010442145     0.000000866463
       2        0.000083545363    -0.004660359577    -0.000398832295
       3       -0.000315811130    -0.003302881043     0.001652733689
       4        0.000016381232     0.004676612211    -0.000039773370
       5       -0.000008140546     0.000002598024     0.000005809593
       6        0.000213859389     0.003276153510    -0.001236993507
       7       -0.000016157103    -0.000020139429     0.000031825558
       8        0.000001442790     0.000002561758     0.000001549005
       9       -0.000006347673     0.000000782959    -0.000000413558
      10        0.000001317603     0.000008825971    -0.000000290465
      11        0.000005391286     0.000002081012     0.000002162828
      12       -0.000005673776     0.000005880264    -0.000001469293
      13        0.000019860662    -0.000010558898    -0.000014238959
      14       -0.000000737517     0.000000400145     0.000001951121
      15       -0.000002418906     0.000003207154    -0.000001083249
      16       -0.000000401007     0.000003550750     0.000000971443
      17        0.000001242420     0.000001838624     0.000000547891
      18        0.000001069424    -0.000000789063     0.000000242926
      19        0.000001127121    -0.000000320218    -0.000005963773
      20       -0.000000774936     0.000000548725     0.000000942001
      21       -0.000000739484    -0.000000787566     0.000000281145
      22       -0.000000081785     0.000000352541    -0.000000825195

  **** Optimization is complete! (in 5 steps) ****
    Final optimized geometry and variables:
    Molecular point group: c1

    Geometry (in Angstrom), charge = 0, multiplicity = 1:

    H           -3.165855558334    -1.431189588467    -0.133275963515
    C           -2.695448917025    -0.562554421983    -0.580907194798
    N           -1.269994897349    -0.565647620586    -0.321628357262
    H           -2.879386175949    -0.569128803128    -1.648528783987
    H           -3.187712429221     0.330968330884    -0.187237139359
    C           -0.968335010767    -0.096446554850     1.017687319455
    C           -0.522965770438     0.207510610086    -1.298026993316
    H           -1.288479987382     0.940265979461     1.156374226430
    H           -1.511996806052    -0.706402512574     1.732627822375
    C            0.522036551019    -0.200172145634     1.299214255488
    H           -0.730393523641    -0.185340170919    -2.287578755593
    H           -0.814684928755     1.262087032965    -1.289810795775
    C            0.969490451760     0.103538697492    -1.024835905621
    H            0.729846886007     0.202976557154     2.285131528761
    H            0.813105450629    -1.254966143969     1.303778408733
    N            1.274105461747     0.556993207752     0.318031258327
    H            1.507430107672     0.725146374207    -1.733327778272
    H            1.288650966355    -0.931346827803    -1.181935143986
    C            2.692249722543     0.552214189979     0.590183984999
    H            2.877856971100     0.955980374989     1.579324390116
    H            3.206459050288     1.180534797417    -0.128616821049
    H            3.133445034824    -0.448041352391     0.543577469526

  Mulliken Charges: (a.u.)
   Center  Symbol    Alpha    Beta     Spin     Total
       1     H     0.41487  0.41487  0.00000  0.17025
       2     C     3.14048  3.14048  0.00000 -0.28095
       3     N     3.78611  3.78611  0.00000 -0.57223
       4     H     0.41859  0.41859  0.00000  0.16282
       5     H     0.43199  0.43199  0.00000  0.13601
       6     C     3.05889  3.05889  0.00000 -0.11778
       7     C     3.05852  3.05852  0.00000 -0.11704
       8     H     0.42766  0.42766  0.00000  0.14467
       9     H     0.41756  0.41756  0.00000  0.16488
      10     C     3.05582  3.05582  0.00000 -0.11164
      11     H     0.41750  0.41750  0.00000  0.16500
      12     H     0.42854  0.42854  0.00000  0.14293
      13     C     3.05631  3.05631  0.00000 -0.11261
      14     H     0.41802  0.41802  0.00000  0.16395
      15     H     0.42835  0.42835  0.00000  0.14329
      16     N     3.78705  3.78705  0.00000 -0.57409
      17     H     0.41806  0.41806  0.00000  0.16389
      18     H     0.42835  0.42835  0.00000  0.14330
      19     C     3.14029  3.14029  0.00000 -0.28058
      20     H     0.41681  0.41681  0.00000  0.16637
      21     H     0.41682  0.41682  0.00000  0.16636
      22     H     0.43340  0.43340  0.00000  0.13320

   Total alpha = 32.00000, Total beta = 32.00000, Total charge =  0.00000
