  ==> Input File <==

--------------------------------------------------------------------------
set {
	reference rhf
	basis 6-31G*
}

set_num_threads( 4 )
memory 2 gb

molecule MOL {
0 1

O	 2.992787	 1.137993	 0.354411
C	 2.701189	 0.057885	 -0.047330
C	 1.574967	 -0.251049	 -1.003873
O	 3.347903	 -1.046386	 0.304773
C	 0.807443	 0.992103	 -1.448392
H	 2.008058	 -0.783801	 -1.843990
H	 0.916867	 -0.961118	 -0.509501
C	 -0.403425	 0.685201	 -2.336145
H	 1.483618	 1.664279	 -1.968089
H	 0.474150	 1.526707	 -0.565479
C	 -0.064813	 0.094723	 -3.707928
H	 -0.956415	 1.610059	 -2.482991
H	 -1.077646	 0.011387	 -1.809446
C	 -1.296616	 -0.090687	 -4.596345
H	 0.647165	 0.746486	 -4.212023
H	 0.430940	 -0.866184	 -3.590206
C	 -0.970905	 -0.685004	 -5.967779
H	 -1.791489	 0.869740	 -4.730197
H	 -2.013592	 -0.733687	 -4.088215
C	 -2.205904	 -0.863366	 -6.850200
H	 -0.253793	 -0.044228	 -6.476502
H	 -0.480105	 -1.647066	 -5.836129
H	 -1.942853	 -1.286260	 -7.814861
H	 -2.700113	 0.087297	 -7.029619
H	 -2.928358	 -1.527404	 -6.383952
C	 4.728119	 -1.109107	 -0.004993
H	 4.882018	 -1.033965	 -1.071845
H	 5.068212	 -2.067527	 0.355250
H	 5.265056	 -0.311663	 0.488280

	symmetry c1
}
set optking {
	frozen_dihedral = ("
		1 2 4 26
	")
}

ee = optimize('scf')
oeprop('DIPOLE', 'QUADRUPOLE', 'MULLIKEN_CHARGES')
f=open( 'psi4out.xyz', 'w' )
f.write( "29  " )
f.write( str(ee) + "\n" )
f.write( MOL.save_string_xyz() )
f.close()
--------------------------------------------------------------------------

    Molecular point group: c1
  Charge       = 0
  Multiplicity = 1
  Basis Set: 6-31G*
  Basis Set:
  @DF-RHF Final Energy:  -501.02899621372489
    Total Energy =                       -501.0289962137244402
    Molecular point group: c1
  Basis Set: 6-31G*
  Basis Set:
  Basis Set: 6-31G*
  Basis Set:
  @DF-RHF Final Energy:  -501.02672876343695
    Total Energy =                       -501.0267287634369495
  Basis Set: 6-31G*
  Basis Set:
  Basis Set: 6-31G*
  Basis Set:
  @DF-RHF Final Energy:  -501.02990890992476
    Total Energy =                       -501.0299089099247567
  Basis Set: 6-31G*
  Basis Set:
  Basis Set: 6-31G*
  Basis Set:
  @DF-RHF Final Energy:  -501.03001128870142
    Total Energy =                       -501.0300112887009618
  Basis Set: 6-31G*
  Basis Set:
  Basis Set: 6-31G*
  Basis Set:
  @DF-RHF Final Energy:  -501.03001746540735
    Total Energy =                       -501.0300174654072407
  Basis Set: 6-31G*
  Basis Set:
  Charge       = 0
  Multiplicity = 1
  Basis Set: 6-31G*
  Basis Set:

    Orbital Energies (a.u.)
    -----------------------

    Doubly Occupied:

       1A    -20.589199     2A    -20.553503     3A    -11.374136
       4A    -11.287026     5A    -11.236533     6A    -11.220315
       7A    -11.218758     8A    -11.217406     9A    -11.217014
      10A    -11.215567    11A    -11.209968    12A     -1.460465
      13A     -1.365051    14A     -1.099027    15A     -1.067075
      16A     -1.017336    17A     -0.975741    18A     -0.933067
      19A     -0.864576    20A     -0.801002    21A     -0.791824
      22A     -0.761871    23A     -0.699674    24A     -0.677739
      25A     -0.670616    26A     -0.652557    27A     -0.627204
      28A     -0.613511    29A     -0.596945    30A     -0.585988
      31A     -0.569446    32A     -0.546898    33A     -0.540664
      34A     -0.530477    35A     -0.516116    36A     -0.503665
      37A     -0.501161    38A     -0.479158    39A     -0.472018
      40A     -0.463432    41A     -0.462570    42A     -0.450905
      43A     -0.442019    44A     -0.432829

  @DF-RHF Final Energy:  -501.03001824115836

   => Energetics <=

    Nuclear Repulsion Energy =            610.6308720416946016
    One-Electron Energy =               -1892.2976752948598005
    Two-Electron Energy =                 780.6367850120060439
    DFT Exchange-Correlation Energy =       0.0000000000000000
    Empirical Dispersion Energy =           0.0000000000000000
    PCM Polarization Energy =               0.0000000000000000
    EFP Energy =                            0.0000000000000000
    Total Energy =                       -501.0300182411591550
    Molecular point group: c1
  Basis Set: 6-31G*
  Basis Set:

  -Total Gradient:
     Atom            X                  Y                   Z
    ------   -----------------  -----------------  -----------------
       1       -0.005954298585    -0.000790496266     0.006339840392
       2        0.008239376619    -0.000268677942    -0.012253783340
       3        0.000054967899     0.000015021572    -0.000019057726
       4       -0.001255728064     0.004037063839     0.012023275938
       5       -0.000019107232    -0.000009091098     0.000000428045
       6       -0.000014916872    -0.000006739756     0.000019732546
       7       -0.000003192837     0.000000825405     0.000018905494
       8       -0.000007520714     0.000014335049    -0.000002667108
       9       -0.000001179227     0.000005686301    -0.000003274328
      10        0.000002205286    -0.000007129639    -0.000002185419
      11        0.000007030753    -0.000002780596     0.000006023224
      12       -0.000002529001    -0.000000125346    -0.000005764243
      13       -0.000003679654     0.000002039229     0.000003179863
      14       -0.000001627071    -0.000000411284     0.000001566670
      15       -0.000002131545    -0.000003256060    -0.000001342828
      16        0.000006192483    -0.000002193011     0.000001502617
      17        0.000000588566     0.000005447370    -0.000001992491
      18       -0.000000141565    -0.000000004596     0.000000578037
      19       -0.000000763998    -0.000000530707    -0.000001221749
      20       -0.000000436432    -0.000002700111     0.000000756375
      21       -0.000000009364     0.000000896147    -0.000000827510
      22        0.000000077128     0.000001645790     0.000000271430
      23       -0.000000179110    -0.000001247973     0.000000465586
      24        0.000001255583    -0.000000009170    -0.000000465159
      25       -0.000001201306     0.000000457787     0.000000293752
      26       -0.001049538694    -0.002961643182    -0.006131449824
      27        0.000000713471    -0.000014064991    -0.000000851504
      28        0.000003709914     0.000005618131     0.000001069532
      29        0.000002063564    -0.000017934890     0.000006993729

  **** Optimization is complete! (in 6 steps) ****
    Final optimized geometry and variables:
    Molecular point group: c1

    Geometry (in Angstrom), charge = 0, multiplicity = 1:

    O            1.972753201681     1.258613719078     2.575557328609
    C            1.688492737954     0.180038417366     2.178451372828
    C            0.553292697449    -0.132127934187     1.236303969889
    O            2.301101676365    -0.937232216070     2.615293166574
    C           -0.253994622240     1.096092030265     0.823597657392
    H            0.985279090855    -0.642678290978     0.379992063418
    H           -0.074118502142    -0.870411942250     1.729470391233
    C           -1.471094386151     0.772335961580    -0.049546266146
    H            0.395380130983     1.795101939436     0.304908888538
    H           -0.586667967406     1.606450988179     1.721157242071
    C           -1.139949055009     0.213614332609    -1.436383621942
    H           -2.050195339824     1.684640348429    -0.171904997230
    H           -2.118666373687     0.072550119441     0.476549071921
    C           -2.380980639091     0.010702362687    -2.307992479771
    H           -0.453460193599     0.891947468959    -1.940889274388
    H           -0.617834332803    -0.736026604765    -1.342845048901
    C           -2.062690225911    -0.552198887644    -3.694335679296
    H           -2.902578102129     0.959953561646    -2.417574796280
    H           -3.072551726153    -0.659048657713    -1.799305135303
    C           -3.307160184628    -0.748979955782    -4.559361482909
    H           -1.371348318674     0.115695147327    -4.203898278494
    H           -1.544614831913    -1.502935461460    -3.586871217096
    H           -3.049259345056    -1.149243355059    -5.534999924089
    H           -3.828963045194     0.191041923295    -4.715013073813
    H           -4.004080514754    -1.439255398344    -4.092403196039
    C            3.697570372667    -1.026101872719     2.410704692939
    H            3.919128891155    -1.092743749371     1.351206987404
    H            4.022561631058    -1.930463259937     2.901116931190
    H            4.205253233834    -0.173014048241     2.838490031594

  Mulliken Charges: (a.u.)
   Center  Symbol    Alpha    Beta     Spin     Total
       1     O     4.26426  4.26426  0.00000 -0.52852
       2     C     2.60746  2.60746  0.00000  0.78508
       3     C     3.21257  3.21257  0.00000 -0.42514
       4     O     4.31543  4.31543  0.00000 -0.63085
       5     C     3.15454  3.15454  0.00000 -0.30908
       6     H     0.40421  0.40421  0.00000  0.19157
       7     H     0.39857  0.39857  0.00000  0.20286
       8     C     3.15648  3.15648  0.00000 -0.31296
       9     H     0.41359  0.41359  0.00000  0.17282
      10     H     0.40817  0.40817  0.00000  0.18366
      11     C     3.15498  3.15498  0.00000 -0.30995
      12     H     0.41799  0.41799  0.00000  0.16402
      13     H     0.42328  0.42328  0.00000  0.15343
      14     C     3.15032  3.15032  0.00000 -0.30064
      15     H     0.42294  0.42294  0.00000  0.15413
      16     H     0.42419  0.42419  0.00000  0.15162
      17     C     3.15146  3.15146  0.00000 -0.30293
      18     H     0.42309  0.42309  0.00000  0.15382
      19     H     0.42369  0.42369  0.00000  0.15262
      20     C     3.23937  3.23937  0.00000 -0.47875
      21     H     0.42292  0.42292  0.00000  0.15416
      22     H     0.42367  0.42367  0.00000  0.15267
      23     H     0.41919  0.41919  0.00000  0.16161
      24     H     0.42140  0.42140  0.00000  0.15720
      25     H     0.42167  0.42167  0.00000  0.15666
      26     C     3.09472  3.09472  0.00000 -0.18945
      27     H     0.42066  0.42066  0.00000  0.15868
      28     H     0.40519  0.40519  0.00000  0.18961
      29     H     0.40399  0.40399  0.00000  0.19203

   Total alpha = 44.00000, Total beta = 44.00000, Total charge =  0.00000
