  ==> Input File <==

--------------------------------------------------------------------------
set {
	reference rhf
	basis 6-31G*
}

set_num_threads( 1 )
memory 2 gb

molecule MOL {
0 1

H	 -4.031818	 -0.453427	 -0.000094
C	 -2.967712	 -0.297022	 -0.000064
C	 -2.458620	 0.992929	 0.000032
C	 -2.109895	 -1.385637	 -0.000122
H	 -3.124998	 1.836319	 0.000077
C	 -1.090278	 1.193236	 0.000070
H	 -2.506361	 -2.384847	 -0.000198
C	 -0.739812	 -1.187531	 -0.000085
H	 -0.678594	 2.184290	 0.000146
C	 -0.226438	 0.104061	 0.000012
H	 -0.072310	 -2.027032	 -0.000131
C	 1.239129	 0.373821	 0.000060
O	 1.940739	 -0.570109	 -0.609317
O	 1.738806	 1.335658	 0.494078
C	 3.345501	 -0.393670	 -0.656055
H	 3.595275	 0.515243	 -1.183583
H	 3.731933	 -1.251831	 -1.183390
H	 3.754867	 -0.350660	 0.342689

	symmetry c1
}
set optking {
	frozen_dihedral = ("
		12 13 15 16,
		10 12 13 15
	")
}

ee = energy('scf')
oeprop('DIPOLE', 'QUADRUPOLE', 'MULLIKEN_CHARGES')
f=open( 'psi4out.xyz', 'w' )
f.write( "18  " )
f.write( str(ee) + "\n" )
f.write( MOL.save_string_xyz() )
f.close()
--------------------------------------------------------------------------

    Molecular point group: c1

    Geometry (in Angstrom), charge = 0, multiplicity = 1:

       Center              X                  Y                   Z               Mass
    ------------   -----------------  -----------------  -----------------  -----------------
           H         -4.027626448156    -0.476212865508     0.086324064430     1.007825032070
           C         -2.963520448156    -0.319807865508     0.086354064430    12.000000000000
           C         -2.454428448156     0.970143134492     0.086450064430    12.000000000000
           C         -2.105703448156    -1.408422865508     0.086296064430    12.000000000000
           H         -3.120806448156     1.813533134492     0.086495064430     1.007825032070
           C         -1.086086448156     1.170450134492     0.086488064430    12.000000000000
           H         -2.502169448156    -2.407632865508     0.086220064430     1.007825032070
           C         -0.735620448156    -1.210316865508     0.086333064430    12.000000000000
           H         -0.674402448156     2.161504134492     0.086564064430     1.007825032070
           C         -0.222246448156     0.081275134492     0.086430064430    12.000000000000
           H         -0.068118448156    -2.049817865508     0.086287064430     1.007825032070
           C          1.243320551844     0.351035134492     0.086478064430    12.000000000000
           O          1.944930551844    -0.592894865508    -0.522898935570    15.994914619560
           O          1.742997551844     1.312872134492     0.580496064430    15.994914619560
           C          3.349692551844    -0.416455865508    -0.569636935570    12.000000000000
           H          3.599466551844     0.492457134492    -1.097164935570     1.007825032070
           H          3.736124551844    -1.274616865508    -1.096971935570     1.007825032070
           H          3.759058551844    -0.373445865508     0.429107064430     1.007825032070

  Charge       = 0
  Multiplicity = 1
  Basis Set: 6-31G*
  Basis Set:

    Orbital Energies (a.u.)
    -----------------------

    Doubly Occupied:

       1A    -20.608240     2A    -20.545625     3A    -11.378269
       4A    -11.282958     5A    -11.247300     6A    -11.244970
       7A    -11.244334     8A    -11.242649     9A    -11.238418
      10A    -11.237679    11A     -1.473120    12A     -1.364198
      13A     -1.165834    14A     -1.048447    15A     -1.025503
      16A     -0.978511    17A     -0.860529    18A     -0.835793
      19A     -0.778348    20A     -0.739009    21A     -0.683772
      22A     -0.677720    23A     -0.673626    24A     -0.630772
      25A     -0.626046    26A     -0.597645    27A     -0.587264
      28A     -0.557006    29A     -0.531286    30A     -0.516360
      31A     -0.505244    32A     -0.500533    33A     -0.458291
      34A     -0.444873    35A     -0.344142    36A     -0.341735

  @DF-RHF Final Energy:  -457.34808372047070

   => Energetics <=

    Nuclear Repulsion Energy =            492.6002089772813974
    One-Electron Energy =               -1599.4647774349934934
    Two-Electron Energy =                 649.5164847372399208
    DFT Exchange-Correlation Energy =       0.0000000000000000
    Empirical Dispersion Energy =           0.0000000000000000
    PCM Polarization Energy =               0.0000000000000000
    EFP Energy =                            0.0000000000000000
    Total Energy =                       -457.3480837204721183

  Mulliken Charges: (a.u.)
   Center  Symbol    Alpha    Beta     Spin     Total
       1     H     0.39562  0.39562  0.00000  0.20876
       2     C     3.09165  3.09165  0.00000 -0.18331
       3     C     3.10551  3.10551  0.00000 -0.21103
       4     C     3.10595  3.10595  0.00000 -0.21190
       5     H     0.39529  0.39529  0.00000  0.20941
       6     C     3.09039  3.09039  0.00000 -0.18077
       7     H     0.39602  0.39602  0.00000  0.20795
       8     C     3.08920  3.08920  0.00000 -0.17840
       9     H     0.37980  0.37980  0.00000  0.24039
      10     C     3.05099  3.05099  0.00000 -0.10198
      11     H     0.38437  0.38437  0.00000  0.23127
      12     C     2.60425  2.60425  0.00000  0.79150
      13     O     4.30707  4.30707  0.00000 -0.61415
      14     O     4.28775  4.28775  0.00000 -0.57550
      15     C     3.09331  3.09331  0.00000 -0.18662
      16     H     0.40746  0.40746  0.00000  0.18508
      17     H     0.40757  0.40757  0.00000  0.18486
      18     H     0.40779  0.40779  0.00000  0.18443

   Total alpha = 36.00000, Total beta = 36.00000, Total charge = -0.00000
