                              Psi4 1.0.54 Driver

  ==> Input File <==

--------------------------------------------------------------------------
set {
	reference rhf
	basis cc-pvtz
}

set_num_threads( 4 )
memory 2 gb

molecule MOL {
0 1

O	 -2.374409	 1.338660	 -0.336961
C	 -2.104891	 0.204655	 -0.107126
C	 -0.881910	 -0.448129	 -0.720509
C	 -2.949910	 -0.638219	 0.818225
C	 0.228014	 0.582085	 -0.964578
H	 -1.183072	 -0.887766	 -1.662916
H	 -0.514985	 -1.240001	 -0.076171
C	 1.470051	 -0.042615	 -1.596717
H	 -0.168344	 1.364228	 -1.599701
H	 0.504803	 1.052412	 -0.024111
C	 2.632349	 0.928810	 -1.809562
H	 1.198283	 -0.490958	 -2.549141
H	 1.811760	 -0.856983	 -0.963753
C	 2.364488	 2.028484	 -2.834182
H	 3.498742	 0.358367	 -2.129350
H	 2.902065	 1.379403	 -0.857957
H	 2.086693	 1.606236	 -3.794456
H	 3.249726	 2.635461	 -2.984861
H	 1.566271	 2.690463	 -2.521271
H	 -3.440322	 -1.417144	 0.243099
H	 -3.694377	 -0.025850	 1.303346
H	 -2.331085	 -1.129829	 1.560495

	symmetry c1
}
set optking {
	frozen_dihedral = ("
		6 3 2 1
	")
}

ee,wfn = optimize('scf', return_wfn=True)
oeprop( wfn, 'DIPOLE', 'QUADRUPOLE', 'MULLIKEN_CHARGES')
f=open( 'psi4out.xyz', 'w' )
f.write( "22  " )
f.write( str(ee) + "\n" )
f.write( MOL.save_string_xyz() )
f.close()
--------------------------------------------------------------------------

    Molecular point group: c1
  Charge       = 0
  Multiplicity = 1
  Basis Set: CC-PVTZ
  Basis Set:
  @DF-RHF Final Energy:  -348.22330555260550
    Total Energy =                       -348.2233055526052681
    Molecular point group: c1
  Basis Set: CC-PVTZ
  Basis Set:
  Basis Set: CC-PVTZ
  Basis Set:
  @DF-RHF Final Energy:  -348.22187547934828
    Total Energy =                       -348.2218754793482844
  Basis Set: CC-PVTZ
  Basis Set:
  Basis Set: CC-PVTZ
  Basis Set:
  @DF-RHF Final Energy:  -348.22404133399232
    Total Energy =                       -348.2240413339921474
  Basis Set: CC-PVTZ
  Basis Set:
  Basis Set: CC-PVTZ
  Basis Set:
  @DF-RHF Final Energy:  -348.22425965061859
    Total Energy =                       -348.2242596506180803
  Basis Set: CC-PVTZ
  Basis Set:
  @DF-RHF Final Energy:  -348.22440194472108
    Total Energy =                       -348.2244019447209666
  @DF-RHF Final Energy:  -348.22444588817899
    Total Energy =                       -348.2244458881785931
  @DF-RHF Final Energy:  -348.22445498427481
    Total Energy =                       -348.2244549842752122
  Basis Set: CC-PVTZ
  Basis Set:
  @DF-RHF Final Energy:  -348.22445976910882
    Total Energy =                       -348.2244597691085346
  Basis Set: CC-PVTZ
  Basis Set:
  Basis Set: CC-PVTZ
  Basis Set:
  @DF-RHF Final Energy:  -348.22446276177277
    Total Energy =                       -348.2244627617727133
  Basis Set: CC-PVTZ
  Basis Set:
  Basis Set: CC-PVTZ
  Basis Set:
  @DF-RHF Final Energy:  -348.22446412681893
    Total Energy =                       -348.2244641268190435
  Basis Set: CC-PVTZ
  Basis Set:
  Charge       = 0
  Multiplicity = 1
  Basis Set: CC-PVTZ
  Basis Set:

    Orbital Energies (a.u.)
    -----------------------

    Doubly Occupied:

       1A    -20.537917     2A    -11.320797     3A    -11.229818
       4A    -11.227204     5A    -11.216753     6A    -11.215995
       7A    -11.214936     8A    -11.205730     9A     -1.398460
      10A     -1.092386    11A     -1.043856    12A     -1.002055
      13A     -0.935919    14A     -0.855048    15A     -0.782494
      16A     -0.732299    17A     -0.661169    18A     -0.647626
      19A     -0.629968    20A     -0.618031    21A     -0.599496
      22A     -0.581568    23A     -0.563020    24A     -0.546896
      25A     -0.527233    26A     -0.511700    27A     -0.500204
      28A     -0.486170    29A     -0.466933    30A     -0.462164
      31A     -0.458237    32A     -0.400445

  @DF-RHF Final Energy:  -348.22446414456795

   => Energetics <=

    Nuclear Repulsion Energy =            373.0389239135281514
    One-Electron Energy =               -1211.1817194848085819
    Two-Electron Energy =                 489.9183314267120863
    DFT Exchange-Correlation Energy =       0.0000000000000000
    Empirical Dispersion Energy =           0.0000000000000000
    PCM Polarization Energy =               0.0000000000000000
    EFP Energy =                            0.0000000000000000
    Total Energy =                       -348.2244641445683442
    Molecular point group: c1
  Basis Set: CC-PVTZ
  Basis Set:

  -Total Gradient:
     Atom            X                  Y                   Z
    ------   -----------------  -----------------  -----------------
       1       -0.000736377095    -0.000482010327    -0.001089157463
       2        0.001078180329     0.000935434874     0.001381990581
       3       -0.000536112349    -0.001582143331     0.000384174817
       4        0.000013284641     0.000012481031     0.000001726249
       5       -0.000007512814    -0.000008394918     0.000013045666
       6        0.000203736421     0.001150578470    -0.000686693597
       7        0.000001778107    -0.000005164253     0.000005543633
       8       -0.000008265186    -0.000000180648    -0.000024668033
       9       -0.000004800944    -0.000004322850     0.000009138157
      10       -0.000002717750     0.000001119068     0.000002017283
      11       -0.000009568606     0.000012316317     0.000016057052
      12       -0.000001631671    -0.000000429843    -0.000006103989
      13        0.000002213185    -0.000000937816    -0.000004661549
      14        0.000004858320    -0.000000927140    -0.000007005333
      15       -0.000001204277    -0.000003170262     0.000006000044
      16       -0.000002216598     0.000004625500     0.000003080124
      17       -0.000004285584     0.000000270738    -0.000003591508
      18        0.000002022547    -0.000003366673    -0.000002546737
      19        0.000014096543     0.000000688884    -0.000002676849
      20       -0.000004140377    -0.000026158232    -0.000007500827
      21       -0.000009733825     0.000004725254     0.000000855344
      22        0.000008396979    -0.000005033844     0.000010976935

  **** Optimization is complete! (in 11 steps) ****
    Final optimized geometry and variables:
    Molecular point group: c1

    Geometry (in Angstrom), charge = 0, multiplicity = 1:

    O           -2.253697700416     0.741918098823     0.643993900717
    C           -1.877859931176    -0.354308197037     0.903711380639
    C           -0.611093107836    -0.930850163390     0.299459284911
    C           -2.661962324433    -1.261505050266     1.821570915087
    C            0.454718808714     0.114689168173    -0.013244834657
    H           -0.919237433108    -1.424236648326    -0.620893146733
    H           -0.218008424245    -1.707776692508     0.946547594216
    C            1.680674304638    -0.491758301204    -0.692647058752
    H            0.012848231686     0.882225584537    -0.632457142116
    H            0.756785489958     0.602404140347     0.909554214820
    C            2.815583318926     0.499379277818    -0.956009837057
    H            1.381202024013    -0.949298177537    -1.633174924790
    H            2.065169251155    -1.297895045167    -0.073108202356
    C            2.484709970736     1.590837625708    -1.970909568409
    H            3.679194413375    -0.055376251136    -1.309644786670
    H            3.114580709675     0.958295105374    -0.017355863047
    H            2.176698097342     1.160565770644    -2.918541107756
    H            3.350998835979     2.214686915305    -2.158836613795
    H            1.686876389663     2.237106233746    -1.626406962357
    H           -2.820308147228    -2.227595527562     1.354708072675
    H           -3.610212868230    -0.809891597010     2.069467933803
    H           -2.093145945912    -1.433464502710     2.729672357665

  Mulliken Charges: (a.u.)
   Center  Symbol    Alpha    Beta     Spin     Total
       1     O     4.17314  4.17314  0.00000 -0.34628
       2     C     2.86025  2.86025  0.00000  0.27950
       3     C     3.11027  3.11027  0.00000 -0.22053
       4     C     3.15275  3.15275  0.00000 -0.30549
       5     C     3.09084  3.09084  0.00000 -0.18167
       6     H     0.44413  0.44413  0.00000  0.11175
       7     H     0.44450  0.44450  0.00000  0.11100
       8     C     3.09629  3.09629  0.00000 -0.19257
       9     H     0.43732  0.43732  0.00000  0.12536
      10     H     0.45198  0.45198  0.00000  0.09604
      11     C     3.09021  3.09021  0.00000 -0.18042
      12     H     0.45400  0.45400  0.00000  0.09201
      13     H     0.45069  0.45069  0.00000  0.09863
      14     C     3.15245  3.15245  0.00000 -0.30490
      15     H     0.44853  0.44853  0.00000  0.10293
      16     H     0.45435  0.45435  0.00000  0.09131
      17     H     0.45527  0.45527  0.00000  0.08946
      18     H     0.44673  0.44673  0.00000  0.10654
      19     H     0.45074  0.45074  0.00000  0.09853
      20     H     0.45023  0.45023  0.00000  0.09954
      21     H     0.43609  0.43609  0.00000  0.12782
      22     H     0.44927  0.44927  0.00000  0.10147

   Total alpha = 32.00000, Total beta = 32.00000, Total charge =  0.00000

*** Psi4 exiting successfully. Buy a developer a beer!
