                              Psi4 1.0.54 Driver

  ==> Input File <==

--------------------------------------------------------------------------
set {
	reference rhf
	basis cc-pvtz
}

set_num_threads( 4 )
memory 2 gb

molecule MOL {
0 1

O	 2.868453	 1.353349	 -0.000734
C	 2.841259	 0.166180	 -0.000295
C	 1.542794	 -0.614730	 -0.000853
C	 4.113372	 -0.651103	 0.000743
C	 0.288398	 0.247429	 0.000314
H	 1.557171	 -1.273139	 -0.866508
H	 1.557484	 -1.274998	 0.863344
C	 -0.993089	 -0.581367	 -0.000217
H	 0.305153	 0.900562	 -0.864701
H	 0.305567	 0.898805	 0.866656
C	 -2.258482	 0.271340	 0.000669
H	 -1.002280	 -1.233920	 -0.870484
H	 -1.002061	 -1.235367	 0.868958
C	 -1.983613	 1.765806	 0.141220
H	 -2.907445	 -0.051316	 0.811134
H	 -2.811031	 0.093615	 -0.918695
C	 -3.252854	 2.611274	 0.141369
H	 -1.432360	 1.944533	 1.060522
H	 -1.336031	 2.089468	 -0.669211
H	 -3.906738	 2.335146	 0.961875
H	 -3.022846	 3.665720	 0.242673
H	 -3.809553	 2.481359	 -0.780722
H	 4.145311	 -1.294584	 -0.871587
H	 4.970080	 0.004978	 -0.000091
H	 4.145223	 -1.291980	 0.874988

	symmetry c1
}
set optking {
	frozen_dihedral = ("
		15 11 8 12
	")
}

ee,wfn = optimize('scf', return_wfn=True)
oeprop( wfn, 'DIPOLE', 'QUADRUPOLE', 'MULLIKEN_CHARGES')
f=open( 'psi4out.xyz', 'w' )
f.write( "25  " )
f.write( str(ee) + "\n" )
f.write( MOL.save_string_xyz() )
f.close()
--------------------------------------------------------------------------

    Molecular point group: c1
  Charge       = 0
  Multiplicity = 1
  Basis Set: CC-PVTZ
  Basis Set:
  @DF-RHF Final Energy:  -387.26009504984057
    Total Energy =                       -387.2600950498409702
    Molecular point group: c1
  Basis Set: CC-PVTZ
  Basis Set:
  Basis Set: CC-PVTZ
  Basis Set:
  @DF-RHF Final Energy:  -387.25557226362878
    Total Energy =                       -387.2555722636285509
  Basis Set: CC-PVTZ
  Basis Set:
  Basis Set: CC-PVTZ
  Basis Set:
  @DF-RHF Final Energy:  -387.26386198525051
    Total Energy =                       -387.2638619852504007
  Basis Set: CC-PVTZ
  Basis Set:
  Basis Set: CC-PVTZ
  Basis Set:
  @DF-RHF Final Energy:  -387.26449175260001
    Total Energy =                       -387.2644917525998380
  Basis Set: CC-PVTZ
  Basis Set:
  @DF-RHF Final Energy:  -387.26445390346220
    Total Energy =                       -387.2644539034619129
  Basis Set: CC-PVTZ
  Basis Set:
  @DF-RHF Final Energy:  -387.26333129673225
    Total Energy =                       -387.2633312967323036
  Basis Set: CC-PVTZ
  Basis Set:
  Basis Set: CC-PVTZ
  Basis Set:
  @DF-RHF Final Energy:  -387.26456175153533
    Total Energy =                       -387.2645617515355525
  Basis Set: CC-PVTZ
  Basis Set:
  Basis Set: CC-PVTZ
  Basis Set:
  @DF-RHF Final Energy:  -387.26457645225332
    Total Energy =                       -387.2645764522533227
  Basis Set: CC-PVTZ
  Basis Set:
  Charge       = 0
  Multiplicity = 1
  Basis Set: CC-PVTZ
  Basis Set:

    Orbital Energies (a.u.)
    -----------------------

    Doubly Occupied:

       1A    -20.538775     2A    -11.320372     3A    -11.229794
       4A    -11.226440     5A    -11.215809     6A    -11.214241
       7A    -11.212292     8A    -11.210504     9A    -11.204514
      10A     -1.398898    11A     -1.092292    12A     -1.054834
      13A     -1.013647    14A     -0.967754    15A     -0.889810
      16A     -0.835543    17A     -0.767864    18A     -0.731902
      19A     -0.661593    20A     -0.653355    21A     -0.631333
      22A     -0.627397    23A     -0.595721    24A     -0.580978
      25A     -0.569542    26A     -0.561016    27A     -0.553303
      28A     -0.514220    29A     -0.506017    30A     -0.496689
      31A     -0.492280    32A     -0.486978    33A     -0.460452
      34A     -0.448064    35A     -0.445059    36A     -0.401765

  @DF-RHF Final Energy:  -387.26457667339849

   => Energetics <=

    Nuclear Repulsion Energy =            446.6402223088226151
    One-Electron Energy =               -1410.1875083246507074
    Two-Electron Energy =                 576.2827093424302802
    DFT Exchange-Correlation Energy =       0.0000000000000000
    Empirical Dispersion Energy =           0.0000000000000000
    PCM Polarization Energy =               0.0000000000000000
    EFP Energy =                            0.0000000000000000
    Total Energy =                       -387.2645766733978689
    Molecular point group: c1
  Basis Set: CC-PVTZ
  Basis Set:

  -Total Gradient:
     Atom            X                  Y                   Z
    ------   -----------------  -----------------  -----------------
       1       -0.000023514097    -0.000254179271    -0.000003565791
       2        0.000106185424     0.000136646133    -0.000018315111
       3        0.000049810825     0.000053539723    -0.000043182276
       4       -0.000027497148    -0.000008054095     0.000047709745
       5       -0.000006675521     0.000000833544     0.000171040426
       6        0.000006663957    -0.000017639826     0.000000027801
       7        0.000000508844     0.000023476656    -0.000012959390
       8       -0.000933410143    -0.001549934469     0.001489713418
       9       -0.000030677291     0.000023559872    -0.000011569503
      10        0.000043578897    -0.000038543272    -0.000033717948
      11       -0.000714836901    -0.001263581886    -0.001847908841
      12        0.000892965336     0.001497323476    -0.000976583877
      13       -0.000008081285     0.000018126073     0.000001638037
      14       -0.000024328149     0.000007025936    -0.000065278683
      15        0.000761901555     0.001320683320     0.001306966432
      16        0.000010286838     0.000009622258     0.000018201040
      17        0.000011064558     0.000001076000     0.000029667607
      18       -0.000037366203     0.000000459053    -0.000012731766
      19        0.000020575226    -0.000011814146     0.000001900748
      20       -0.000002168049     0.000009799762    -0.000013122425
      21       -0.000002869183    -0.000035919269     0.000006265978
      22        0.000016701843     0.000004864028     0.000012389745
      23       -0.000001087965     0.000025175142     0.000063001565
      24       -0.000102511143    -0.000030955989     0.000003884318
      25       -0.000005220226     0.000078411254    -0.000113471247

  **** Optimization is complete! (in 9 steps) ****
    Final optimized geometry and variables:
    Molecular point group: c1

    Geometry (in Angstrom), charge = 0, multiplicity = 1:

    O            2.628584254671     0.848078512663     0.061498806780
    C            2.578739202251    -0.337508188139     0.019561651037
    C            1.266299399888    -1.092743648530    -0.035196933498
    C            3.834765858790    -1.179098586648     0.018104966607
    C            0.028542421062    -0.205947764340    -0.029203878445
    H            1.287480724192    -1.721032923988    -0.922844867924
    H            1.250779403224    -1.783008750805     0.805246470984
    C           -1.255318575401    -1.036107088294    -0.092187993914
    H            0.083484728357     0.474438639660    -0.869501410109
    H            0.045972473231     0.410938508448     0.859578034703
    C           -2.598830048420    -0.259564781185    -0.108962729637
    H           -1.201889222204    -1.649940637434    -0.986145674064
    H           -1.256294583077    -1.726233222329     0.745581615549
    C           -2.540740880115     1.255709391830     0.095549517840
    H           -3.239880575818    -0.663564851905     0.668120148071
    H           -3.107484029411    -0.452604116047    -1.047749101936
    C           -3.928737104943     1.888037829293     0.063319382987
    H           -2.070585362174     1.484920834589     1.046065557126
    H           -1.924926005807     1.715922115425    -0.669044105408
    H           -4.565359800012     1.478225040739     0.840592604607
    H           -3.873503675418     2.960141302471     0.212694054943
    H           -4.417967822757     1.711692086266    -0.889010441054
    H            3.873441801745    -1.791778568872    -0.875733069433
    H            4.703376773905    -0.540310006730     0.058704847818
    H            3.835503201777    -1.850870273503     0.869176535075

  Mulliken Charges: (a.u.)
   Center  Symbol    Alpha    Beta     Spin     Total
       1     O     4.17086  4.17086  0.00000 -0.34172
       2     C     2.86086  2.86086  0.00000  0.27828
       3     C     3.11577  3.11577  0.00000 -0.23154
       4     C     3.15175  3.15175  0.00000 -0.30349
       5     C     3.08467  3.08467  0.00000 -0.16933
       6     H     0.44567  0.44567  0.00000  0.10866
       7     H     0.44583  0.44583  0.00000  0.10833
       8     C     3.10051  3.10051  0.00000 -0.20103
       9     H     0.44422  0.44422  0.00000  0.11155
      10     H     0.44318  0.44318  0.00000  0.11364
      11     C     3.09155  3.09155  0.00000 -0.18311
      12     H     0.45240  0.45240  0.00000  0.09519
      13     H     0.45230  0.45230  0.00000  0.09540
      14     C     3.08868  3.08868  0.00000 -0.17736
      15     H     0.45216  0.45216  0.00000  0.09568
      16     H     0.45201  0.45201  0.00000  0.09598
      17     C     3.15150  3.15150  0.00000 -0.30300
      18     H     0.45147  0.45147  0.00000  0.09705
      19     H     0.44978  0.44978  0.00000  0.10043
      20     H     0.45568  0.45568  0.00000  0.08865
      21     H     0.44733  0.44733  0.00000  0.10535
      22     H     0.45566  0.45566  0.00000  0.08868
      23     H     0.45036  0.45036  0.00000  0.09928
      24     H     0.43539  0.43539  0.00000  0.12922
      25     H     0.45039  0.45039  0.00000  0.09921

   Total alpha = 36.00000, Total beta = 36.00000, Total charge = -0.00000

*** Psi4 exiting successfully. Buy a developer a beer!
