  ==> Input File <==

--------------------------------------------------------------------------
set {
	reference rhf
	basis 6-31G*
}

set_num_threads( 1 )
memory 2 gb

molecule MOL {
0 1

O	 0.625848	 1.349995	 -0.000749
C	 0.486307	 0.169203	 0.000779
C	 1.608116	 -0.841643	 0.000302
O	 -0.698257	 -0.426125	 0.001050
C	 2.990107	 -0.200498	 -0.000684
H	 1.468623	 -1.481519	 -0.865924
H	 1.469683	 -1.481289	 0.866878
H	 3.129736	 0.423364	 -0.875135
H	 3.757882	 -0.966877	 -0.001197
H	 3.130964	 0.423383	 0.873533
C	 -0.795150	 -1.698589	 -0.630494
C	 -2.229623	 -2.163905	 -0.496037
H	 -0.106684	 -2.382430	 -0.153044
H	 -0.501889	 -1.601119	 -1.666877
H	 -2.509550	 -2.251241	 0.547597
H	 -2.348648	 -3.134793	 -0.965991
H	 -2.907010	 -1.465743	 -0.974549

	symmetry c1
}
set optking {
	frozen_dihedral = ("
		2 4 11 13,
		4 2 3 6
	")
}

ee = energy('scf')
oeprop('DIPOLE', 'QUADRUPOLE', 'MULLIKEN_CHARGES')
f=open( 'psi4out.xyz', 'w' )
f.write( "17  " )
f.write( str(ee) + "\n" )
f.write( MOL.save_string_xyz() )
f.close()
--------------------------------------------------------------------------

    Molecular point group: c1

    Geometry (in Angstrom), charge = 0, multiplicity = 1:

       Center              X                  Y                   Z               Mass
    ------------   -----------------  -----------------  -----------------  -----------------
           O          0.349778553920     1.899384557778     0.163344003454    15.994914619560
           C          0.210237553920     0.718592557778     0.164872003454    12.000000000000
           C          1.332046553920    -0.292253442222     0.164395003454    12.000000000000
           O         -0.974326446080     0.123264557778     0.165143003454    15.994914619560
           C          2.714037553920     0.348891557778     0.163409003454    12.000000000000
           H          1.192553553920    -0.932129442222    -0.701830996546     1.007825032070
           H          1.193613553920    -0.931899442222     1.030971003454     1.007825032070
           H          2.853666553920     0.972753557778    -0.711041996546     1.007825032070
           H          3.481812553920    -0.417487442222     0.162896003454     1.007825032070
           H          2.854894553920     0.972772557778     1.037626003454     1.007825032070
           C         -1.071219446080    -1.149199442222    -0.466400996546    12.000000000000
           C         -2.505692446080    -1.614515442222    -0.331943996546    12.000000000000
           H         -0.382753446080    -1.833040442222     0.011049003454     1.007825032070
           H         -0.777958446080    -1.051729442222    -1.502783996546     1.007825032070
           H         -2.785619446080    -1.701851442222     0.711690003454     1.007825032070
           H         -2.624717446080    -2.585403442222    -0.801897996546     1.007825032070
           H         -3.183079446080    -0.916353442222    -0.810455996546     1.007825032070

  Charge       = 0
  Multiplicity = 1
  Basis Set: 6-31G*
  Basis Set:

    Orbital Energies (a.u.)
    -----------------------

    Doubly Occupied:

       1A    -20.599731     2A    -20.545712     3A    -11.373378
       4A    -11.301043     5A    -11.242681     6A    -11.229654
       7A    -11.218844     8A     -1.465280     9A     -1.368262
      10A     -1.064280    11A     -1.049766    12A     -0.905012
      13A     -0.886097    14A     -0.769559    15A     -0.707105
      16A     -0.697508    17A     -0.659205    18A     -0.635624
      19A     -0.597739    20A     -0.572692    21A     -0.560126
      22A     -0.543268    23A     -0.528078    24A     -0.516842
      25A     -0.512891    26A     -0.494138    27A     -0.450160
      28A     -0.429774

  @DF-RHF Final Energy:  -344.88661243735464

   => Energetics <=

    Nuclear Repulsion Energy =            318.3581090682727108
    One-Electron Energy =               -1100.6405204104801214
    Two-Electron Energy =                 437.3957989048529384
    DFT Exchange-Correlation Energy =       0.0000000000000000
    Empirical Dispersion Energy =           0.0000000000000000
    PCM Polarization Energy =               0.0000000000000000
    EFP Energy =                            0.0000000000000000
    Total Energy =                       -344.8866124373544721

  Mulliken Charges: (a.u.)
   Center  Symbol    Alpha    Beta     Spin     Total
       1     O     4.26970  4.26970  0.00000 -0.53940
       2     C     2.59461  2.59461  0.00000  0.81077
       3     C     3.23997  3.23997  0.00000 -0.47994
       4     O     4.30596  4.30596  0.00000 -0.61191
       5     C     3.23460  3.23460  0.00000 -0.46920
       6     H     0.40149  0.40149  0.00000  0.19701
       7     H     0.39888  0.39888  0.00000  0.20224
       8     H     0.40918  0.40918  0.00000  0.18164
       9     H     0.41958  0.41958  0.00000  0.16085
      10     H     0.40798  0.40798  0.00000  0.18405
      11     C     3.01571  3.01571  0.00000 -0.03141
      12     C     3.24464  3.24464  0.00000 -0.48928
      13     H     0.41355  0.41355  0.00000  0.17290
      14     H     0.41288  0.41288  0.00000  0.17424
      15     H     0.40822  0.40822  0.00000  0.18356
      16     H     0.41736  0.41736  0.00000  0.16529
      17     H     0.40571  0.40571  0.00000  0.18859

   Total alpha = 28.00000, Total beta = 28.00000, Total charge = -0.00000
