                              Psi4 1.0.54 Driver

  ==> Input File <==

--------------------------------------------------------------------------
set {
	reference rhf
	basis cc-pvtz
}

set_num_threads( 4 )
memory 2 gb

molecule MOL {
0 1

H	 2.627905	 0.060166	 -0.984643
O	 1.782022	 -0.359528	 -1.030195
C	 1.050374	 0.054877	 0.000135
C	 -0.318151	 -0.570512	 0.000144
O	 1.464480	 0.823599	 0.797350
C	 -1.454884	 0.441630	 -0.000560
H	 -0.371613	 -1.223646	 -0.864985
H	 -0.371920	 -1.222758	 0.865929
C	 -2.822577	 -0.232186	 0.000063
H	 -1.359760	 1.084704	 -0.867077
H	 -1.359641	 1.085996	 0.864983
H	 -2.954352	 -0.858985	 -0.875745
H	 -3.615886	 0.505352	 0.000019
H	 -2.953878	 -0.858359	 0.876394

	symmetry c1
}
set optking {
	frozen_dihedral = ("
		2 3 4 7
	")
}

ee,wfn = optimize('scf', return_wfn=True)
oeprop( wfn, 'DIPOLE', 'QUADRUPOLE', 'MULLIKEN_CHARGES')
f=open( 'psi4out.xyz', 'w' )
f.write( "14  " )
f.write( str(ee) + "\n" )
f.write( MOL.save_string_xyz() )
f.close()
--------------------------------------------------------------------------

    Molecular point group: c1
  Charge       = 0
  Multiplicity = 1
  Basis Set: CC-PVTZ
  Basis Set:
  @DF-RHF Final Energy:  -305.99881765870430
    Total Energy =                       -305.9988176587041835
    Molecular point group: c1
  Basis Set: CC-PVTZ
  Basis Set:
  Basis Set: CC-PVTZ
  Basis Set:
  @DF-RHF Final Energy:  -305.99937317547881
    Total Energy =                       -305.9993731754792066
  Basis Set: CC-PVTZ
  Basis Set:
  Basis Set: CC-PVTZ
  Basis Set:
  @DF-RHF Final Energy:  -305.99904465010252
    Total Energy =                       -305.9990446501025758
  Basis Set: CC-PVTZ
  Basis Set:
  Basis Set: CC-PVTZ
  Basis Set:
  @DF-RHF Final Energy:  -305.99943308292052
    Total Energy =                       -305.9994330829203477
  Basis Set: CC-PVTZ
  Basis Set:
  Basis Set: CC-PVTZ
  Basis Set:
  @DF-RHF Final Energy:  -305.99944068493016
    Total Energy =                       -305.9994406849302209
  Basis Set: CC-PVTZ
  Basis Set:
  Charge       = 0
  Multiplicity = 1
  Basis Set: CC-PVTZ
  Basis Set:

    Orbital Energies (a.u.)
    -----------------------

    Doubly Occupied:

       1A    -20.606702     2A    -20.538196     3A    -11.373681
       4A    -11.238493     5A    -11.230082     6A    -11.217493
       7A     -1.478534     8A     -1.368597     9A     -1.085623
      10A     -0.980338    11A     -0.857279    12A     -0.802681
      13A     -0.706258    14A     -0.690683    15A     -0.654480
      16A     -0.629538    17A     -0.596589    18A     -0.572719
      19A     -0.550939    20A     -0.513279    21A     -0.496203
      22A     -0.488131    23A     -0.475222    24A     -0.444409

  @DF-RHF Final Energy:  -305.99944103299424

   => Energetics <=

    Nuclear Repulsion Energy =            240.4910284159981302
    One-Electron Energy =                -893.7886410775952299
    Two-Electron Energy =                 347.2981716286029723
    DFT Exchange-Correlation Energy =       0.0000000000000000
    Empirical Dispersion Energy =           0.0000000000000000
    PCM Polarization Energy =               0.0000000000000000
    EFP Energy =                            0.0000000000000000
    Total Energy =                       -305.9994410329941275
    Molecular point group: c1
  Basis Set: CC-PVTZ
  Basis Set:

  -Total Gradient:
     Atom            X                  Y                   Z
    ------   -----------------  -----------------  -----------------
       1       -0.000015458040    -0.000005904037     0.000005869688
       2       -0.000162471244     0.000285863133    -0.000195050786
       3        0.000233615280    -0.000485790011     0.000331092060
       4       -0.000226150338     0.000589017398    -0.000403628264
       5        0.000000115770     0.000027009541     0.000027850951
       6        0.000022365659    -0.000022463143    -0.000015126072
       7        0.000136099203    -0.000389574138     0.000231147804
       8        0.000002028158    -0.000004629947    -0.000013598122
       9        0.000005941734    -0.000008075619     0.000019984582
      10        0.000007807220    -0.000010244976     0.000006404702
      11       -0.000011427066     0.000020263831     0.000007488820
      12        0.000007180448     0.000002464291    -0.000005908544
      13        0.000002293800     0.000006518651     0.000005258519
      14       -0.000001940589    -0.000004454973    -0.000001785341

  **** Optimization is complete! (in 6 steps) ****
    Final optimized geometry and variables:
    Molecular point group: c1

    Geometry (in Angstrom), charge = 0, multiplicity = 1:

    H            2.674953432613     0.041645809015    -0.851115055335
    O            1.835874593116    -0.384797992866    -0.944711265549
    C            1.056438850383     0.002159574219     0.058453545989
    C           -0.313432893964    -0.623756455362     0.020219743993
    O            1.426320303967     0.764035348458     0.884874487007
    C           -1.421868421375     0.430566373426     0.012938812893
    H           -0.389877023142    -1.278304249630    -0.836555007458
    H           -0.398288307306    -1.234454896352     0.912744919635
    C           -2.810634079281    -0.196433823595     0.041312004726
    H           -1.320776450446     1.050016180310    -0.872769577379
    H           -1.289720609156     1.082949572494     0.866372631556
    H           -2.971642529985    -0.838537611977    -0.817995066404
    H           -3.578602661408     0.567521735174     0.031989041817
    H           -2.950608639813    -0.796137164057     0.934276634370

  Mulliken Charges: (a.u.)
   Center  Symbol    Alpha    Beta     Spin     Total
       1     H     0.38046  0.38046  0.00000  0.23909
       2     O     4.15787  4.15787  0.00000 -0.31574
       3     C     2.80840  2.80840  0.00000  0.38319
       4     C     3.09026  3.09026  0.00000 -0.18051
       5     O     4.19869  4.19869  0.00000 -0.39738
       6     C     3.08887  3.08887  0.00000 -0.17773
       7     H     0.43849  0.43849  0.00000  0.12301
       8     H     0.44339  0.44339  0.00000  0.11321
       9     C     3.14991  3.14991  0.00000 -0.29983
      10     H     0.45055  0.45055  0.00000  0.09891
      11     H     0.43935  0.43935  0.00000  0.12130
      12     H     0.45469  0.45469  0.00000  0.09063
      13     H     0.44552  0.44552  0.00000  0.10895
      14     H     0.45355  0.45355  0.00000  0.09290

   Total alpha = 24.00000, Total beta = 24.00000, Total charge = -0.00000

*** Psi4 exiting successfully. Buy a developer a beer!
