  ==> Input File <==

--------------------------------------------------------------------------
set {
	reference rhf
	basis 6-31G*
}

set_num_threads( 1 )
memory 2 gb

molecule MOL {
0 1

O	 -0.381637	 0.232298	 -0.809428
C	 0.486307	 0.169203	 0.000779
C	 1.608116	 -0.841643	 0.000302
O	 0.582718	 0.994978	 1.033450
C	 2.990107	 -0.200498	 -0.000684
H	 1.468623	 -1.481519	 -0.865924
H	 1.469683	 -1.481289	 0.866878
H	 3.129736	 0.423364	 -0.875135
H	 3.757882	 -0.966877	 -0.001197
H	 3.130964	 0.423383	 0.873533
C	 -0.412665	 2.004789	 1.163431
C	 -0.086518	 2.806250	 2.405847
H	 -1.384205	 1.535045	 1.234389
H	 -0.406133	 2.622676	 0.275870
H	 -0.091710	 2.172173	 3.285095
H	 -0.823759	 3.590561	 2.543623
H	 0.891688	 3.265857	 2.321408

	symmetry c1
}
set optking {
	frozen_dihedral = ("
		2 4 11 13,
		11 4 2 3
	")
}

ee = energy('scf')
oeprop('DIPOLE', 'QUADRUPOLE', 'MULLIKEN_CHARGES')
f=open( 'psi4out.xyz', 'w' )
f.write( "17  " )
f.write( str(ee) + "\n" )
f.write( MOL.save_string_xyz() )
f.close()
--------------------------------------------------------------------------

    Molecular point group: c1

    Geometry (in Angstrom), charge = 0, multiplicity = 1:

       Center              X                  Y                   Z               Mass
    ------------   -----------------  -----------------  -----------------  -----------------
           O         -1.062265059732    -0.522784493886    -1.359584634575    15.994914619560
           C         -0.194321059732    -0.585879493886    -0.549377634575    12.000000000000
           C          0.927487940268    -1.596725493886    -0.549854634575    12.000000000000
           O         -0.097910059732     0.239895506114     0.483293365425    15.994914619560
           C          2.309478940268    -0.955580493886    -0.550840634575    12.000000000000
           H          0.787994940268    -2.236601493886    -1.416080634575     1.007825032070
           H          0.789054940268    -2.236371493886     0.316721365425     1.007825032070
           H          2.449107940268    -0.331718493886    -1.425291634575     1.007825032070
           H          3.077253940268    -1.721959493886    -0.551353634575     1.007825032070
           H          2.450335940268    -0.331699493886     0.323376365425     1.007825032070
           C         -1.093293059732     1.249706506114     0.613274365425    12.000000000000
           C         -0.767146059732     2.051167506114     1.855690365425    12.000000000000
           H         -2.064833059732     0.779962506114     0.684232365425     1.007825032070
           H         -1.086761059732     1.867593506114    -0.274286634575     1.007825032070
           H         -0.772338059732     1.417090506114     2.734938365425     1.007825032070
           H         -1.504387059732     2.835478506114     1.993466365425     1.007825032070
           H          0.211059940268     2.510774506114     1.771251365425     1.007825032070

  Charge       = 0
  Multiplicity = 1
  Basis Set: 6-31G*
  Basis Set:

    Orbital Energies (a.u.)
    -----------------------

    Doubly Occupied:

       1A    -20.601683     2A    -20.543210     3A    -11.370578
       4A    -11.285101     5A    -11.236421     6A    -11.223931
       7A    -11.222799     8A     -1.467592     9A     -1.361078
      10A     -1.074178    11A     -1.030624    12A     -0.907029
      13A     -0.857469    14A     -0.777930    15A     -0.692595
      16A     -0.678698    17A     -0.671917    18A     -0.620324
      19A     -0.590179    20A     -0.573468    21A     -0.553085
      22A     -0.544131    23A     -0.527361    24A     -0.509107
      25A     -0.503948    26A     -0.495068    27A     -0.452088
      28A     -0.431182

  @DF-RHF Final Energy:  -344.91014593488467

   => Energetics <=

    Nuclear Repulsion Energy =            317.5131779241431786
    One-Electron Energy =               -1099.2411941442060197
    Two-Electron Energy =                 436.8178702851798221
    DFT Exchange-Correlation Energy =       0.0000000000000000
    Empirical Dispersion Energy =           0.0000000000000000
    PCM Polarization Energy =               0.0000000000000000
    EFP Energy =                            0.0000000000000000
    Total Energy =                       -344.9101459348830190

  Mulliken Charges: (a.u.)
   Center  Symbol    Alpha    Beta     Spin     Total
       1     O     4.28607  4.28607  0.00000 -0.57213
       2     C     2.61216  2.61216  0.00000  0.77568
       3     C     3.19779  3.19779  0.00000 -0.39558
       4     O     4.30900  4.30900  0.00000 -0.61801
       5     C     3.24854  3.24854  0.00000 -0.49709
       6     H     0.39899  0.39899  0.00000  0.20202
       7     H     0.40360  0.40360  0.00000  0.19279
       8     H     0.41327  0.41327  0.00000  0.17345
       9     H     0.41321  0.41321  0.00000  0.17357
      10     H     0.40622  0.40622  0.00000  0.18757
      11     C     3.00221  3.00221  0.00000 -0.00442
      12     C     3.24871  3.24871  0.00000 -0.49741
      13     H     0.40999  0.40999  0.00000  0.18001
      14     H     0.41011  0.41011  0.00000  0.17978
      15     H     0.41186  0.41186  0.00000  0.17627
      16     H     0.41610  0.41610  0.00000  0.16780
      17     H     0.41216  0.41216  0.00000  0.17569

   Total alpha = 28.00000, Total beta = 28.00000, Total charge =  0.00000
