  ==> Input File <==

--------------------------------------------------------------------------
set {
	reference rhf
	basis 6-31G*
}

set_num_threads( 1 )
memory 2 gb

molecule MOL {
0 1

H	 -3.049198	 -0.349700	 2.055460
C	 -3.223630	 -0.452866	 0.977243
C	 -2.724589	 0.695840	 0.138169
O	 -3.770664	 -1.417369	 0.550349
C	 -1.252525	 1.031212	 0.415312
H	 -2.888565	 0.453699	 -0.905473
H	 -3.340764	 1.560699	 0.381073
C	 -0.283014	 -0.070186	 -0.020887
H	 -1.006732	 1.953836	 -0.102023
H	 -1.122270	 1.235700	 1.476903
C	 1.180775	 0.282413	 0.250794
H	 -0.418901	 -0.263829	 -1.082906
H	 -0.528073	 -1.000445	 0.488136
C	 2.148627	 -0.814315	 -0.201312
H	 1.416755	 1.217268	 -0.251293
H	 1.316114	 0.463973	 1.316206
C	 3.580890	 -0.659131	 0.322722
H	 2.166869	 -0.852443	 -1.289387
H	 1.762857	 -1.776509	 0.128956
C	 4.324889	 0.564933	 -0.213704
H	 4.142010	 -1.551473	 0.056605
H	 3.564836	 -0.624694	 1.410140
H	 4.342616	 0.565491	 -1.300421
H	 3.866655	 1.493402	 0.110242
H	 5.353900	 0.572371	 0.132816

	symmetry c1
}
set optking {
	frozen_dihedral = ("
		6 3 5 8,
		6 3 2 4,
		3 5 8 12,
		12 8 11 14,
		20 17 14 18
	")
}

ee = energy('scf')
oeprop('DIPOLE', 'QUADRUPOLE', 'MULLIKEN_CHARGES')
f=open( 'psi4out.xyz', 'w' )
f.write( "25  " )
f.write( str(ee) + "\n" )
f.write( MOL.save_string_xyz() )
f.close()
--------------------------------------------------------------------------

    Molecular point group: c1

    Geometry (in Angstrom), charge = 0, multiplicity = 1:

       Center              X                  Y                   Z               Mass
    ------------   -----------------  -----------------  -----------------  -----------------
           H         -3.052364056033    -0.251243069216     1.809843578187     1.007825032070
           C         -3.226796056033    -0.354409069216     0.731626578187    12.000000000000
           C         -2.727755056033     0.794296930784    -0.107447421813    12.000000000000
           O         -3.773830056033    -1.318912069216     0.304732578187    15.994914619560
           C         -1.255691056033     1.129668930784     0.169695578187    12.000000000000
           H         -2.891731056033     0.552155930784    -1.151089421813     1.007825032070
           H         -3.343930056033     1.659155930784     0.135456578187     1.007825032070
           C         -0.286180056033     0.028270930784    -0.266503421813    12.000000000000
           H         -1.009898056033     2.052292930784    -0.347639421813     1.007825032070
           H         -1.125436056033     1.334156930784     1.231286578187     1.007825032070
           C          1.177608943967     0.380869930784     0.005177578187    12.000000000000
           H         -0.422067056033    -0.165372069216    -1.328522421813     1.007825032070
           H         -0.531239056033    -0.901988069216     0.242519578187     1.007825032070
           C          2.145460943967    -0.715858069216    -0.446928421813    12.000000000000
           H          1.413588943967     1.315724930784    -0.496909421813     1.007825032070
           H          1.312947943967     0.562429930784     1.070589578187     1.007825032070
           C          3.577723943967    -0.560674069216     0.077105578187    12.000000000000
           H          2.163702943967    -0.753986069216    -1.535003421813     1.007825032070
           H          1.759690943967    -1.678052069216    -0.116660421813     1.007825032070
           C          4.321722943967     0.663389930784    -0.459320421813    12.000000000000
           H          4.138843943967    -1.453016069216    -0.189011421813     1.007825032070
           H          3.561669943967    -0.526237069216     1.164523578187     1.007825032070
           H          4.339449943967     0.663947930784    -1.546037421813     1.007825032070
           H          3.863488943967     1.591858930784    -0.135374421813     1.007825032070
           H          5.350733943967     0.670827930784    -0.112800421813     1.007825032070

  Charge       = 0
  Multiplicity = 1
  Basis Set: 6-31G*
  Basis Set:

    Orbital Energies (a.u.)
    -----------------------

    Doubly Occupied:

       1A    -20.562032     2A    -11.326216     3A    -11.235365
       4A    -11.234667     5A    -11.224083     6A    -11.219869
       7A    -11.217977     8A    -11.216853     9A    -11.210671
      10A     -1.402025    11A     -1.104068    12A     -1.069714
      13A     -1.013445    14A     -0.942424    15A     -0.875120
      16A     -0.820981    17A     -0.788141    18A     -0.781308
      19A     -0.664808    20A     -0.661506    21A     -0.633452
      22A     -0.625437    23A     -0.600879    24A     -0.594836
      25A     -0.575728    26A     -0.550214    27A     -0.534884
      28A     -0.525478    29A     -0.508698    30A     -0.494654
      31A     -0.491741    32A     -0.479930    33A     -0.464063
      34A     -0.459180    35A     -0.441129    36A     -0.409586

  @DF-RHF Final Energy:  -387.12173671559702

   => Energetics <=

    Nuclear Repulsion Energy =            439.0973262693781294
    One-Electron Energy =               -1394.5159252165162798
    Two-Electron Energy =                 568.2968622315420362
    DFT Exchange-Correlation Energy =       0.0000000000000000
    Empirical Dispersion Energy =           0.0000000000000000
    PCM Polarization Energy =               0.0000000000000000
    EFP Energy =                            0.0000000000000000
    Total Energy =                       -387.1217367155961711

  Mulliken Charges: (a.u.)
   Center  Symbol    Alpha    Beta     Spin     Total
       1     H     0.43259  0.43259  0.00000  0.13482
       2     C     2.83087  2.83087  0.00000  0.33826
       3     C     3.20815  3.20815  0.00000 -0.41629
       4     O     4.23777  4.23777  0.00000 -0.47553
       5     C     3.16663  3.16663  0.00000 -0.33325
       6     H     0.39967  0.39967  0.00000  0.20065
       7     H     0.40668  0.40668  0.00000  0.18663
       8     C     3.15522  3.15522  0.00000 -0.31044
       9     H     0.41284  0.41284  0.00000  0.17432
      10     H     0.41960  0.41960  0.00000  0.16081
      11     C     3.15401  3.15401  0.00000 -0.30802
      12     H     0.41792  0.41792  0.00000  0.16416
      13     H     0.41832  0.41832  0.00000  0.16337
      14     C     3.15341  3.15341  0.00000 -0.30681
      15     H     0.42074  0.42074  0.00000  0.15852
      16     H     0.42381  0.42381  0.00000  0.15238
      17     C     3.15288  3.15288  0.00000 -0.30576
      18     H     0.42260  0.42260  0.00000  0.15481
      19     H     0.42049  0.42049  0.00000  0.15903
      20     C     3.24124  3.24124  0.00000 -0.48249
      21     H     0.42014  0.42014  0.00000  0.15971
      22     H     0.42317  0.42317  0.00000  0.15365
      23     H     0.42195  0.42195  0.00000  0.15610
      24     H     0.42052  0.42052  0.00000  0.15895
      25     H     0.41879  0.41879  0.00000  0.16243

   Total alpha = 36.00000, Total beta = 36.00000, Total charge = -0.00000
