  ==> Input File <==

--------------------------------------------------------------------------
set {
	reference rhf
	basis 6-31G*
}

set_num_threads( 1 )
memory 2 gb

molecule MOL {
0 1

H	 -2.753005	 -0.654483	 1.146013
C	 -2.706639	 -0.477341	 0.073347
O	 -1.393972	 -0.322926	 -0.360703
H	 -3.121650	 -1.333115	 -0.441006
H	 -3.310914	 0.398864	 -0.158053
C	 -0.725790	 0.754374	 0.215670
C	 0.712736	 0.754527	 -0.245683
H	 -1.196844	 1.692962	 -0.079046
H	 -0.754066	 0.691293	 1.301591
O	 1.392611	 -0.295398	 0.366430
H	 0.741905	 0.655310	 -1.328878
H	 1.173392	 1.707605	 0.017248
C	 2.706965	 -0.449871	 -0.062409
H	 2.756559	 -0.644779	 -1.131878
H	 3.305899	 0.433456	 0.155466
H	 3.125548	 -1.294566	 0.467107

	symmetry c1
}
set optking {
	frozen_dihedral = ("
		3 6 7 11,
		2 3 6 7
	")
}

ee = energy('scf')
oeprop('DIPOLE', 'QUADRUPOLE', 'MULLIKEN_CHARGES')
f=open( 'psi4out.xyz', 'w' )
f.write( "16  " )
f.write( str(ee) + "\n" )
f.write( MOL.save_string_xyz() )
f.close()
--------------------------------------------------------------------------

    Molecular point group: c1

    Geometry (in Angstrom), charge = 0, multiplicity = 1:

       Center              X                  Y                   Z               Mass
    ------------   -----------------  -----------------  -----------------  -----------------
           H         -2.750696294373    -0.640667968526     1.148112918342     1.007825032070
           C         -2.704330294373    -0.463525968526     0.075446918342    12.000000000000
           O         -1.391663294373    -0.309110968526    -0.358603081658    15.994914619560
           H         -3.119341294373    -1.319299968526    -0.438906081658     1.007825032070
           H         -3.308605294373     0.412679031474    -0.155953081658     1.007825032070
           C         -0.723481294373     0.768189031474     0.217769918342    12.000000000000
           C          0.715044705627     0.768342031474    -0.243583081658    12.000000000000
           H         -1.194535294373     1.706777031474    -0.076946081658     1.007825032070
           H         -0.751757294373     0.705108031474     1.303690918342     1.007825032070
           O          1.394919705627    -0.281582968526     0.368529918342    15.994914619560
           H          0.744213705627     0.669125031474    -1.326778081658     1.007825032070
           H          1.175700705627     1.721420031474     0.019347918342     1.007825032070
           C          2.709273705627    -0.436055968526    -0.060309081658    12.000000000000
           H          2.758867705627    -0.630963968526    -1.129778081658     1.007825032070
           H          3.308207705627     0.447271031474     0.157565918342     1.007825032070
           H          3.127856705627    -1.280750968526     0.469206918342     1.007825032070

  Charge       = 0
  Multiplicity = 1
  Basis Set: 6-31G*
  Basis Set:

    Orbital Energies (a.u.)
    -----------------------

    Doubly Occupied:

       1A    -20.553620     2A    -20.553590     3A    -11.269062
       4A    -11.268403     5A    -11.263549     6A    -11.263548
       7A     -1.388328     8A     -1.370717     9A     -1.030842
      10A     -0.936063    11A     -0.891952    12A     -0.824031
      13A     -0.684153    14A     -0.680524    15A     -0.656945
      16A     -0.635789    17A     -0.629904    18A     -0.597124
      19A     -0.550603    20A     -0.535394    21A     -0.508944
      22A     -0.477541    23A     -0.462665    24A     -0.419804
      25A     -0.410555

  @DF-RHF Final Energy:  -306.97772887619664

   => Energetics <=

    Nuclear Repulsion Energy =            258.8372027581805810
    One-Electron Energy =                -931.9025546725835056
    Two-Electron Energy =                 366.0876230382057770
    DFT Exchange-Correlation Energy =       0.0000000000000000
    Empirical Dispersion Energy =           0.0000000000000000
    PCM Polarization Energy =               0.0000000000000000
    EFP Energy =                            0.0000000000000000
    Total Energy =                       -306.9777288761972045

  Mulliken Charges: (a.u.)
   Center  Symbol    Alpha    Beta     Spin     Total
       1     H     0.42807  0.42807  0.00000  0.14387
       2     C     3.07953  3.07953  0.00000 -0.15905
       3     O     4.30086  4.30086  0.00000 -0.60173
       4     H     0.41129  0.41129  0.00000  0.17742
       5     H     0.43188  0.43188  0.00000  0.13624
       6     C     2.99338  2.99338  0.00000  0.01325
       7     C     2.99336  2.99336  0.00000  0.01327
       8     H     0.43227  0.43227  0.00000  0.13547
       9     H     0.42274  0.42274  0.00000  0.15452
      10     O     4.30087  4.30087  0.00000 -0.60173
      11     H     0.42272  0.42272  0.00000  0.15457
      12     H     0.43229  0.43229  0.00000  0.13542
      13     C     3.07952  3.07952  0.00000 -0.15904
      14     H     0.42820  0.42820  0.00000  0.14360
      15     H     0.43179  0.43179  0.00000  0.13643
      16     H     0.41126  0.41126  0.00000  0.17749

   Total alpha = 25.00000, Total beta = 25.00000, Total charge = -0.00000
