  ==> Input File <==

--------------------------------------------------------------------------
set {
	reference rhf
	basis 6-31G*
}

set_num_threads( 4 )
memory 2 gb

molecule MOL {
0 1

H	 2.652209	 0.763231	 0.000000
O	 2.263154	 -0.100023	 0.000000
C	 0.912879	 -0.015685	 0.000000
C	 0.202369	 -1.131929	 -0.421610
C	 0.239577	 1.127065	 0.399841
H	 0.743726	 -2.007812	 -0.727503
C	 -1.178309	 -1.094166	 -0.439219
H	 0.791440	 1.992563	 0.726765
C	 -1.147297	 1.151127	 0.377115
H	 -1.723979	 -1.961215	 -0.766566
C	 -1.864747	 0.045554	 -0.040777
H	 -1.662329	 2.042237	 0.689136
H	 -2.938998	 0.067475	 -0.057188

	symmetry c1
}
set optking {
	frozen_dihedral = ("
		4 3 2 1
	")
}

ee = optimize('scf')
oeprop('DIPOLE', 'QUADRUPOLE', 'MULLIKEN_CHARGES')
f=open( 'psi4out.xyz', 'w' )
f.write( "13  " )
f.write( str(ee) + "\n" )
f.write( MOL.save_string_xyz() )
f.close()
--------------------------------------------------------------------------

    Molecular point group: c1
  Charge       = 0
  Multiplicity = 1
  Basis Set: 6-31G*
  Basis Set:
  @DF-RHF Final Energy:  -305.55703127419349
    Total Energy =                       -305.5570312741934913
    Molecular point group: c1
  Basis Set: 6-31G*
  Basis Set:
  Basis Set: 6-31G*
  Basis Set:
  @DF-RHF Final Energy:  -305.55704755317100
    Total Energy =                       -305.5570475531710599
  Basis Set: 6-31G*
  Basis Set:
  Basis Set: 6-31G*
  Basis Set:
  @DF-RHF Final Energy:  -305.55705117515015
    Total Energy =                       -305.5570511751501499
  Basis Set: 6-31G*
  Basis Set:
  Charge       = 0
  Multiplicity = 1
  Basis Set: 6-31G*
  Basis Set:

    Orbital Energies (a.u.)
    -----------------------

    Doubly Occupied:

       1A    -20.588952     2A    -11.297097     3A    -11.236744
       4A    -11.234741     5A    -11.228040     6A    -11.222363
       7A    -11.222209     8A     -1.407135     9A     -1.147325
      10A     -1.018576    11A     -1.003985    12A     -0.845321
      13A     -0.822138    14A     -0.735590    15A     -0.683484
      16A     -0.649418    17A     -0.611140    18A     -0.591656
      19A     -0.588310    20A     -0.554629    21A     -0.513941
      22A     -0.490050    23A     -0.477952    24A     -0.337987
      25A     -0.310786

  @DF-RHF Final Energy:  -305.55705143255949

   => Energetics <=

    Nuclear Repulsion Energy =            273.0941160204452558
    One-Electron Energy =                -955.6631987142224034
    Two-Electron Energy =                 377.0120312612174303
    DFT Exchange-Correlation Energy =       0.0000000000000000
    Empirical Dispersion Energy =           0.0000000000000000
    PCM Polarization Energy =               0.0000000000000000
    EFP Energy =                            0.0000000000000000
    Total Energy =                       -305.5570514325596605
    Molecular point group: c1
  Basis Set: 6-31G*
  Basis Set:

  -Total Gradient:
     Atom            X                  Y                   Z
    ------   -----------------  -----------------  -----------------
       1       -0.000007010629    -0.000000161262    -0.001853552795
       2        0.000035520869     0.000196626700     0.001710557936
       3       -0.000071749186    -0.000585769273     0.001406058094
       4       -0.000044364617     0.000431542962    -0.001259283438
       5        0.000070801314    -0.000052247749     0.000005922533
       6        0.000010457491    -0.000000591953    -0.000007583862
       7        0.000082928040    -0.000060594455    -0.000005875611
       8       -0.000004886184     0.000001419196     0.000002228888
       9       -0.000091770815    -0.000039941924    -0.000019817144
      10        0.000000732867     0.000004385828     0.000003159771
      11        0.000015047421     0.000106445603     0.000017657009
      12        0.000006728813     0.000005766116    -0.000005161464
      13       -0.000002435383    -0.000006879788     0.000005690084

  **** Optimization is complete! (in 4 steps) ****
    Final optimized geometry and variables:
    Molecular point group: c1

    Geometry (in Angstrom), charge = 0, multiplicity = 1:

    H            2.650928007693     0.762316581357     0.022944727086
    O            2.264636745767    -0.102125321286     0.021705248835
    C            0.911919397085    -0.019582983409     0.015573373927
    C            0.201677578718    -1.134274279665    -0.407642824273
    C            0.239441323476     1.124194182942     0.414496785024
    H            0.742880820789    -2.008253530092    -0.719097532738
    C           -1.179928869739    -1.099141412304    -0.418053529930
    H            0.792925946630     1.986305456054     0.746821479661
    C           -1.146998976706     1.149543856144     0.390884517738
    H           -1.726159486747    -1.966179362204    -0.744592698843
    C           -1.864875912929     0.041558903739    -0.021739909480
    H           -1.662051132795     2.041273645941     0.701119056493
    H           -2.939258710742     0.063565370479    -0.036361362186

  Mulliken Charges: (a.u.)
   Center  Symbol    Alpha    Beta     Spin     Total
       1     H     0.27201  0.27201  0.00000  0.45599
       2     O     4.37975  4.37975  0.00000 -0.75950
       3     C     2.79645  2.79645  0.00000  0.40711
       4     C     3.12279  3.12279  0.00000 -0.24559
       5     C     3.14195  3.14195  0.00000 -0.28391
       6     H     0.39172  0.39172  0.00000  0.21655
       7     C     3.09160  3.09160  0.00000 -0.18320
       8     H     0.40362  0.40362  0.00000  0.19277
       9     C     3.09096  3.09096  0.00000 -0.18192
      10     H     0.39801  0.39801  0.00000  0.20398
      11     C     3.11235  3.11235  0.00000 -0.22470
      12     H     0.39834  0.39834  0.00000  0.20332
      13     H     0.40045  0.40045  0.00000  0.19909

   Total alpha = 25.00000, Total beta = 25.00000, Total charge =  0.00000
