  ==> Input File <==

--------------------------------------------------------------------------
set {
	reference rhf
	basis 6-31G*
}

set_num_threads( 4 )
memory 2 gb

molecule MOL {
0 1

O	 -2.821601	 1.309235	 -0.001213
C	 -2.668563	 0.129746	 -0.000350
C	 -3.801572	 -0.864014	 -0.000442
O	 -1.481751	 -0.454642	 0.000584
H	 -4.417280	 -0.689587	 -0.874708
H	 -3.443784	 -1.883046	 -0.000565
H	 -4.417179	 -0.689832	 0.873954
C	 -0.334255	 0.388708	 0.000906
C	 0.891947	 -0.504646	 0.000751
H	 -0.365390	 1.025305	 -0.873475
H	 -0.365484	 1.024911	 0.875569
C	 2.191998	 0.301789	 0.000897
H	 0.855148	 -1.151283	 -0.871571
H	 0.855132	 -1.151660	 0.872805
C	 3.441114	 -0.581407	 0.000108
H	 2.215074	 0.954890	 -0.869742
H	 2.215465	 0.953923	 0.872248
C	 4.149736	 -0.611318	 1.353558
H	 4.131596	 -0.226397	 -0.761651
H	 3.165012	 -1.593876	 -0.285802
H	 4.468498	 0.383487	 1.651499
H	 5.030541	 -1.244865	 1.321385
H	 3.494789	 -0.994575	 2.130840

	symmetry c1
}
set optking {
	frozen_dihedral = ("
		19 15 12 16
	")
}

ee = optimize('scf')
oeprop('DIPOLE', 'QUADRUPOLE', 'MULLIKEN_CHARGES')
f=open( 'psi4out.xyz', 'w' )
f.write( "23  " )
f.write( str(ee) + "\n" )
f.write( MOL.save_string_xyz() )
f.close()
--------------------------------------------------------------------------

    Molecular point group: c1
  Charge       = 0
  Multiplicity = 1
  Basis Set: 6-31G*
  Basis Set:
  @DF-RHF Final Energy:  -422.97423094187565
    Total Energy =                       -422.9742309418752484
    Molecular point group: c1
  Basis Set: 6-31G*
  Basis Set:
  Basis Set: 6-31G*
  Basis Set:
  @DF-RHF Final Energy:  -422.97451671245693
    Total Energy =                       -422.9745167124567615
  Basis Set: 6-31G*
  Basis Set:
  Basis Set: 6-31G*
  Basis Set:
  @DF-RHF Final Energy:  -422.97460262838678
    Total Energy =                       -422.9746026283869469
  Basis Set: 6-31G*
  Basis Set:
  Basis Set: 6-31G*
  Basis Set:
  @DF-RHF Final Energy:  -422.97445413986202
    Total Energy =                       -422.9744541398613364
  Basis Set: 6-31G*
  Basis Set:
  Basis Set: 6-31G*
  Basis Set:
  @DF-RHF Final Energy:  -422.97460821085167
    Total Energy =                       -422.9746082108516703
  Basis Set: 6-31G*
  Basis Set:
  Charge       = 0
  Multiplicity = 1
  Basis Set: 6-31G*
  Basis Set:

    Orbital Energies (a.u.)
    -----------------------

    Doubly Occupied:

       1A    -20.603090     2A    -20.540593     3A    -11.374142
       4A    -11.281400     5A    -11.232433     6A    -11.224816
       7A    -11.223626     8A    -11.221393     9A    -11.213616
      10A     -1.468017    11A     -1.360801    12A     -1.092921
      13A     -1.041085    14A     -1.002877    15A     -0.930609
      16A     -0.846404    17A     -0.800381    18A     -0.773937
      19A     -0.691259    20A     -0.685383    21A     -0.669276
      22A     -0.634472    23A     -0.613976    24A     -0.595494
      25A     -0.580076    26A     -0.571183    27A     -0.548408
      28A     -0.531901    29A     -0.529098    30A     -0.504965
      31A     -0.500315    32A     -0.474318    33A     -0.464790
      34A     -0.464087    35A     -0.451380    36A     -0.435347

  @DF-RHF Final Energy:  -422.97460837629882

   => Energetics <=

    Nuclear Repulsion Energy =            451.7660498329896086
    One-Electron Energy =               -1471.1255715620004594
    Two-Electron Energy =                 596.3849133527121467
    DFT Exchange-Correlation Energy =       0.0000000000000000
    Empirical Dispersion Energy =           0.0000000000000000
    PCM Polarization Energy =               0.0000000000000000
    EFP Energy =                            0.0000000000000000
    Total Energy =                       -422.9746083762986473
    Molecular point group: c1
  Basis Set: 6-31G*
  Basis Set:

  -Total Gradient:
     Atom            X                  Y                   Z
    ------   -----------------  -----------------  -----------------
       1       -0.000001190680     0.000000434944    -0.000018145217
       2       -0.000005642375    -0.000007371484     0.000047316296
       3       -0.000001506020     0.000002364540    -0.000011544870
       4       -0.000015359651     0.000004280425    -0.000014225931
       5       -0.000001787628    -0.000002931686    -0.000001022277
       6        0.000000612569     0.000000311256    -0.000001070569
       7        0.000001134289     0.000002685872    -0.000000759737
       8        0.000013744977     0.000003901789     0.000012685310
       9        0.000013810982    -0.000021596514    -0.000019491094
      10       -0.000000407985     0.000001103078     0.000000762693
      11        0.000000349857     0.000001579402    -0.000004745814
      12       -0.001910995762    -0.002906573438    -0.002306486276
      13       -0.000003394403     0.000004962962    -0.000002341539
      14        0.000010905798     0.000004783876    -0.000007235807
      15        0.001728849031     0.002663376155     0.002727064051
      16        0.001341186662     0.001971919299     0.001503140443
      17        0.000005183011     0.000000922589     0.000006299862
      18       -0.000007919753     0.000015737894     0.000019028605
      19       -0.001157817355    -0.001732677892    -0.001899033816
      20       -0.000005944339    -0.000004279042     0.000001952503
      21        0.000005685832    -0.000003060703    -0.000008814024
      22       -0.000006533089    -0.000011361033    -0.000012473205
      23       -0.000002963950     0.000011487705    -0.000010859587

  **** Optimization is complete! (in 6 steps) ****
    Final optimized geometry and variables:
    Molecular point group: c1

    Geometry (in Angstrom), charge = 0, multiplicity = 1:

    O           -2.754045147146     1.402758783091    -0.120679101475
    C           -2.599284712156     0.223671452669    -0.140707087202
    C           -3.730819242790    -0.771759963668    -0.144186997526
    O           -1.411708506737    -0.358807965505    -0.162602088804
    H           -4.356900133721    -0.583815635970    -1.008217060662
    H           -3.371629376126    -1.790082073521    -0.165379780337
    H           -4.336454355575    -0.613099727122     0.740072529553
    C           -0.265413081217     0.486215648260    -0.161645051429
    C            0.961828160647    -0.404741745681    -0.190106607507
    H           -0.306915921420     1.136755531472    -1.025382912200
    H           -0.287601112974     1.108412644172     0.723314646352
    C            2.261071467583     0.402956849771    -0.201927041184
    H            0.913825648103    -1.042355936826    -1.068277330717
    H            0.940253991270    -1.061375116616     0.675673128266
    C            3.528119288826    -0.477354917197    -0.155876696880
    H            2.287342317394     1.048722479802    -1.075813837939
    H            2.266270422955     1.078842843658     0.651337240711
    C            4.192296698512    -0.519816738749     1.219721370535
    H            4.242202931155    -0.137069455207    -0.899822488479
    H            3.269688304346    -1.491078274591    -0.453346280638
    H            4.533176922773     0.466655594645     1.520076182711
    H            5.051758277932    -1.182990904896     1.220974437381
    H            3.500022747757    -0.874664918314     1.978395800548

  Mulliken Charges: (a.u.)
   Center  Symbol    Alpha    Beta     Spin     Total
       1     O     4.28388  4.28388  0.00000 -0.56775
       2     C     2.61534  2.61534  0.00000  0.76933
       3     C     3.28774  3.28774  0.00000 -0.57548
       4     O     4.31261  4.31261  0.00000 -0.62522
       5     H     0.39748  0.39748  0.00000  0.20504
       6     H     0.39988  0.39988  0.00000  0.20025
       7     H     0.39750  0.39750  0.00000  0.20501
       8     C     2.99631  2.99631  0.00000  0.00738
       9     C     3.16607  3.16607  0.00000 -0.33213
      10     H     0.41062  0.41062  0.00000  0.17877
      11     H     0.41056  0.41056  0.00000  0.17889
      12     C     3.16449  3.16449  0.00000 -0.32899
      13     H     0.41356  0.41356  0.00000  0.17287
      14     H     0.41418  0.41418  0.00000  0.17163
      15     C     3.15528  3.15528  0.00000 -0.31057
      16     H     0.41753  0.41753  0.00000  0.16494
      17     H     0.41907  0.41907  0.00000  0.16186
      18     C     3.24008  3.24008  0.00000 -0.48017
      19     H     0.41793  0.41793  0.00000  0.16414
      20     H     0.41955  0.41955  0.00000  0.16091
      21     H     0.42020  0.42020  0.00000  0.15961
      22     H     0.41872  0.41872  0.00000  0.16255
      23     H     0.42143  0.42143  0.00000  0.15714

   Total alpha = 36.00000, Total beta = 36.00000, Total charge =  0.00000
