  ==> Input File <==

--------------------------------------------------------------------------
set {
	reference rhf
	basis 6-31G*
}

set_num_threads( 4 )
memory 2 gb

molecule MOL {
0 1

H	 -3.650283	 0.221984	 0.000000
C	 -2.577024	 0.154109	 0.000000
C	 -1.960329	 -1.089307	 0.000000
C	 -1.811733	 1.307557	 0.000000
H	 -2.554473	 -1.985285	 0.000000
C	 -0.581547	 -1.175855	 0.000000
H	 -2.287118	 2.271701	 0.000000
C	 -0.428719	 1.219221	 0.000000
H	 -0.090826	 -2.129898	 0.000000
C	 0.198341	 -0.021559	 0.000000
H	 0.149947	 2.124040	 0.000000
C	 1.691355	 -0.173192	 0.000000
C	 2.338123	 -1.093858	 1.013710
O	 2.362696	 0.423891	 -0.788775
H	 2.113145	 -0.774513	 2.026224
H	 3.407711	 -1.074325	 0.861754
H	 1.977412	 -2.110971	 0.899034

	symmetry c1
}
set optking {
	frozen_dihedral = ("
		13 12 10 8
	")
}

ee = optimize('scf')
oeprop('DIPOLE', 'QUADRUPOLE', 'MULLIKEN_CHARGES')
f=open( 'psi4out.xyz', 'w' )
f.write( "17  " )
f.write( str(ee) + "\n" )
f.write( MOL.save_string_xyz() )
f.close()
--------------------------------------------------------------------------

    Molecular point group: c1
  Charge       = 0
  Multiplicity = 1
  Basis Set: 6-31G*
  Basis Set:
  @DF-RHF Final Energy:  -382.46912977741027
    Total Energy =                       -382.4691297774098757
    Molecular point group: c1
  Basis Set: 6-31G*
  Basis Set:
  Basis Set: 6-31G*
  Basis Set:
  @DF-RHF Final Energy:  -382.46895001751722
    Total Energy =                       -382.4689500175170451
  Basis Set: 6-31G*
  Basis Set:
  Basis Set: 6-31G*
  Basis Set:
  @DF-RHF Final Energy:  -382.47012841111865
    Total Energy =                       -382.4701284111180257
  Basis Set: 6-31G*
  Basis Set:
  Basis Set: 6-31G*
  Basis Set:
  @DF-RHF Final Energy:  -382.47093479640603
    Total Energy =                       -382.4709347964057997
  Basis Set: 6-31G*
  Basis Set:
  Basis Set: 6-31G*
  Basis Set:
  @DF-RHF Final Energy:  -382.47094580463647
    Total Energy =                       -382.4709458046365853
  Basis Set: 6-31G*
  Basis Set:
  Basis Set: 6-31G*
  Basis Set:
  @DF-RHF Final Energy:  -382.47094962720308
    Total Energy =                       -382.4709496272024580
  Basis Set: 6-31G*
  Basis Set:
  Basis Set: 6-31G*
  Basis Set:
  @DF-RHF Final Energy:  -382.47095107786316
    Total Energy =                       -382.4709510778632193
  Basis Set: 6-31G*
  Basis Set:
  Charge       = 0
  Multiplicity = 1
  Basis Set: 6-31G*
  Basis Set:

    Orbital Energies (a.u.)
    -----------------------

    Doubly Occupied:

       1A    -20.553259     2A    -11.332536     3A    -11.247199
       4A    -11.245287     5A    -11.243355     6A    -11.241978
       7A    -11.241042     8A    -11.239289     9A    -11.230667
      10A     -1.398898    11A     -1.165994    12A     -1.050188
      13A     -1.026395    14A     -0.997322    15A     -0.860314
      16A     -0.836597    17A     -0.760800    18A     -0.705345
      19A     -0.659393    20A     -0.645424    21A     -0.624036
      22A     -0.616965    23A     -0.599878    24A     -0.589611
      25A     -0.558332    26A     -0.525451    27A     -0.514268
      28A     -0.502443    29A     -0.490617    30A     -0.410258
      31A     -0.344436    32A     -0.342020

  @DF-RHF Final Energy:  -382.47095125214770

   => Energetics <=

    Nuclear Repulsion Energy =            403.1654563937258331
    One-Electron Energy =               -1317.6736173306151159
    Two-Electron Energy =                 532.0372096847423791
    DFT Exchange-Correlation Energy =       0.0000000000000000
    Empirical Dispersion Energy =           0.0000000000000000
    PCM Polarization Energy =               0.0000000000000000
    EFP Energy =                            0.0000000000000000
    Total Energy =                       -382.4709512521468469
    Molecular point group: c1
  Basis Set: 6-31G*
  Basis Set:

  -Total Gradient:
     Atom            X                  Y                   Z
    ------   -----------------  -----------------  -----------------
       1        0.000001301598     0.000007516271     0.000006793857
       2       -0.000017610512    -0.000085226000    -0.000036099950
       3       -0.000068133850     0.000042979353     0.000021249539
       4        0.000086655278     0.000027359854    -0.000017226207
       5        0.000005155640    -0.000004625448    -0.000004972546
       6        0.000086238251     0.000042092211     0.000081934355
       7       -0.000005332291    -0.000000735417     0.000002883909
       8       -0.000130700072    -0.000033366871     0.004122652753
       9       -0.000005958478    -0.000010161948     0.000006325096
      10        0.000117408114     0.001332342586    -0.004888875310
      11        0.000004906839    -0.000001861664     0.000014826349
      12       -0.000150666262    -0.004025740864    -0.001662116088
      13        0.000102652481     0.002735632789     0.002379828848
      14       -0.000008972314    -0.000041095067    -0.000038164342
      15        0.000000799388     0.000000763725     0.000007474064
      16       -0.000004275217     0.000016234294    -0.000002100654
      17       -0.000013468598    -0.000002107803     0.000005586324

  **** Optimization is complete! (in 8 steps) ****
    Final optimized geometry and variables:
    Molecular point group: c1

    Geometry (in Angstrom), charge = 0, multiplicity = 1:

    H           -3.638998494150     0.304613338506     0.001833009959
    C           -2.567821729341     0.212292385335    -0.016131008076
    C           -1.980860386724    -1.042146132444    -0.029357751525
    C           -1.773333623413     1.348726381281    -0.022956502835
    H           -2.594073440791    -1.925242955246    -0.027326403101
    C           -0.600555492315    -1.161009166846    -0.036826504336
    H           -2.226702146452     2.323444300317    -0.006617099191
    C           -0.395366313291     1.230039704593    -0.055127231697
    H           -0.156591582777    -2.140352951386    -0.037589925670
    C            0.200566005702    -0.026260174192    -0.068403164939
    H            0.226478881185     2.105659839882    -0.078019707872
    C            1.701426190537    -0.103510832277    -0.047585952596
    C            2.348236441463    -1.016673913193     0.971202695469
    O            2.357072128744     0.610493876434    -0.744628037623
    H            2.063460816964    -0.695869413239     1.968650872215
    H            3.422764777796    -0.965709976540     0.864483625336
    H            2.021900431599    -2.045062122715     0.859334784013

  Mulliken Charges: (a.u.)
   Center  Symbol    Alpha    Beta     Spin     Total
       1     H     0.39599  0.39599  0.00000  0.20802
       2     C     3.09546  3.09546  0.00000 -0.19091
       3     C     3.10184  3.10184  0.00000 -0.20369
       4     C     3.10143  3.10143  0.00000 -0.20286
       5     H     0.39631  0.39631  0.00000  0.20738
       6     C     3.10399  3.10399  0.00000 -0.20799
       7     H     0.39548  0.39548  0.00000  0.20905
       8     C     3.09636  3.09636  0.00000 -0.19271
       9     H     0.39530  0.39530  0.00000  0.20939
      10     C     3.03793  3.03793  0.00000 -0.07586
      11     H     0.38354  0.38354  0.00000  0.23293
      12     C     2.74257  2.74257  0.00000  0.51487
      13     C     3.28706  3.28706  0.00000 -0.57411
      14     O     4.25857  4.25857  0.00000 -0.51714
      15     H     0.40247  0.40247  0.00000  0.19506
      16     H     0.39646  0.39646  0.00000  0.20708
      17     H     0.40926  0.40926  0.00000  0.18149

   Total alpha = 32.00000, Total beta = 32.00000, Total charge =  0.00000
