  ==> Input File <==

--------------------------------------------------------------------------
set {
	reference rhf
	basis cc-pvtz
}

set_num_threads( 4 )
memory 2 gb

molecule MOL {
0 1

O	 -0.694481	 1.313155	 -0.204815
C	 -0.862519	 0.151932	 -0.046791
C	 -2.171428	 -0.477048	 0.339095
O	 0.085519	 -0.757083	 -0.192238
H	 -2.467997	 -1.191667	 -0.417688
H	 -2.923379	 0.287970	 0.444097
H	 -2.053854	 -1.015120	 1.270901
C	 1.392036	 -0.330828	 -0.560749
C	 1.817193	 0.901616	 0.210109
H	 1.421198	 -0.153440	 -1.624468
H	 2.029798	 -1.169962	 -0.326514
H	 2.839064	 1.156436	 -0.047371
H	 1.185530	 1.745490	 -0.031263
H	 1.769964	 0.720710	 1.277178

	symmetry c1
}
set optking {
	frozen_dihedral = ("
		10 8 4 2
	")
}

ee = optimize('scf')
oeprop('DIPOLE', 'QUADRUPOLE', 'MULLIKEN_CHARGES')
f=open( 'psi4out.xyz', 'w' )
f.write( "14  " )
f.write( str(ee) + "\n" )
f.write( MOL.save_string_xyz() )
f.close()
--------------------------------------------------------------------------

    Molecular point group: c1
  Charge       = 0
  Multiplicity = 1
  Basis Set: CC-PVTZ
  Basis Set:
  @DF-RHF Final Energy:  -305.97636486727475
    Total Energy =                       -305.9763648672749241
    Molecular point group: c1
  Basis Set: CC-PVTZ
  Basis Set:
  Basis Set: CC-PVTZ
  Basis Set:
  @DF-RHF Final Energy:  -305.98475754441449
    Total Energy =                       -305.9847575444146059
  Basis Set: CC-PVTZ
  Basis Set:
  Basis Set: CC-PVTZ
  Basis Set:
  @DF-RHF Final Energy:  -305.98558582335698
    Total Energy =                       -305.9855858233571553
  Basis Set: CC-PVTZ
  Basis Set:
  Basis Set: CC-PVTZ
  Basis Set:
  @DF-RHF Final Energy:  -305.98252605403025
    Total Energy =                       -305.9825260540299041
  Basis Set: CC-PVTZ
  Basis Set:
  @DF-RHF Final Energy:  -305.98595804379170
    Total Energy =                       -305.9859580437918680
  Basis Set: CC-PVTZ
  Basis Set:
  @DF-RHF Final Energy:  -305.98601143889061
    Total Energy =                       -305.9860114388906709
  Basis Set: CC-PVTZ
  Basis Set:
  Basis Set: CC-PVTZ
  Basis Set:
  @DF-RHF Final Energy:  -305.98601523495063
    Total Energy =                       -305.9860152349509121
  Basis Set: CC-PVTZ
  Basis Set:
  Basis Set: CC-PVTZ
  Basis Set:
  @DF-RHF Final Energy:  -305.98601687958973
    Total Energy =                       -305.9860168795896129
  Basis Set: CC-PVTZ
  Basis Set:
  Charge       = 0
  Multiplicity = 1
  Basis Set: CC-PVTZ
  Basis Set:

    Orbital Energies (a.u.)
    -----------------------

    Doubly Occupied:

       1A    -20.593177     2A    -20.531780     3A    -11.367569
       4A    -11.287146     5A    -11.230535     6A    -11.215061
       7A     -1.467952     8A     -1.365483     9A     -1.055548
      10A     -0.998586    11A     -0.891204    12A     -0.755022
      13A     -0.698108    14A     -0.684817    15A     -0.665956
      16A     -0.614021    17A     -0.588875    18A     -0.570968
      19A     -0.552438    20A     -0.533148    21A     -0.515337
      22A     -0.495894    23A     -0.454642    24A     -0.436369

  @DF-RHF Final Energy:  -305.98601787204660

   => Energetics <=

    Nuclear Repulsion Energy =            249.9420183336977175
    One-Electron Energy =                -912.7167963222753997
    Two-Electron Energy =                 356.7887601165309661
    DFT Exchange-Correlation Energy =       0.0000000000000000
    Empirical Dispersion Energy =           0.0000000000000000
    PCM Polarization Energy =               0.0000000000000000
    EFP Energy =                            0.0000000000000000
    Total Energy =                       -305.9860178720466592
    Molecular point group: c1
  Basis Set: CC-PVTZ
  Basis Set:

  -Total Gradient:
     Atom            X                  Y                   Z
    ------   -----------------  -----------------  -----------------
       1       -0.000069267818    -0.000020105957    -0.000035843606
       2        0.001149554784     0.000477250230     0.005576873899
       3        0.000007237186     0.000009502235     0.000082457865
       4       -0.001262941741    -0.002052949625    -0.008532120237
       5       -0.000009605238     0.000005112147    -0.000029461033
       6       -0.000006033920    -0.000003195611    -0.000004076727
       7       -0.000004062244    -0.000018707636    -0.000025971346
       8       -0.001592313980     0.007400960547     0.003809405084
       9        0.000000688170     0.000009409302     0.000041209906
      10        0.001714521462    -0.005834419861    -0.000958851236
      11        0.000014337682     0.000039939029     0.000100056867
      12        0.000016821657     0.000012345904    -0.000010250250
      13        0.000026206447    -0.000011936045    -0.000007131823
      14        0.000014857554    -0.000013204663    -0.000006297362

  **** Optimization is complete! (in 9 steps) ****
    Final optimized geometry and variables:
    Molecular point group: c1

    Geometry (in Angstrom), charge = 0, multiplicity = 1:

    O           -0.785916365403     1.159048513359    -0.295086389140
    C           -0.842863277574     0.010227582038    -0.016494529024
    C           -2.074024044664    -0.677212100826     0.505176340784
    O            0.158023767966    -0.840808363409    -0.147213377571
    H           -2.330479749042    -1.505577356584    -0.142209477018
    H           -2.889006570347     0.026672995287     0.551049881385
    H           -1.874004353800    -1.079914512373     1.489900293294
    C            1.480458004373    -0.404856295472    -0.451453136645
    C            2.018055840730     0.735379674197     0.390326113394
    H            1.546204992915    -0.213102320688    -1.514641380719
    H            2.071276864821    -1.289980977339    -0.263792543619
    H            3.084254513342     0.812059931883     0.207525356649
    H            1.554759179071     1.678464172165     0.156123398803
    H            1.876778929141     0.526861100209     1.444841118286

  Mulliken Charges: (a.u.)
   Center  Symbol    Alpha    Beta     Spin     Total
       1     O     4.19935  4.19935  0.00000 -0.39870
       2     C     2.80066  2.80066  0.00000  0.39868
       3     C     3.13835  3.13835  0.00000 -0.27670
       4     O     4.15560  4.15560  0.00000 -0.31119
       5     H     0.44468  0.44468  0.00000  0.11063
       6     H     0.43854  0.43854  0.00000  0.12293
       7     H     0.44704  0.44704  0.00000  0.10591
       8     C     2.98112  2.98112  0.00000  0.03776
       9     C     3.15618  3.15618  0.00000 -0.31236
      10     H     0.45486  0.45486  0.00000  0.09028
      11     H     0.44768  0.44768  0.00000  0.10465
      12     H     0.45006  0.45006  0.00000  0.09988
      13     H     0.43239  0.43239  0.00000  0.13522
      14     H     0.45350  0.45350  0.00000  0.09301

   Total alpha = 24.00000, Total beta = 24.00000, Total charge = -0.00000
