                              Psi4 1.0.54 Driver

  ==> Input File <==

--------------------------------------------------------------------------
set {
	reference rhf
	basis cc-pvtz
}

set_num_threads( 4 )
memory 2 gb

molecule MOL {
0 1

H	 -3.144994	 -1.202467	 -0.018751
O	 -2.321472	 -0.864941	 -0.318626
C	 -2.021813	 0.336996	 0.342658
C	 -0.669613	 0.837286	 -0.127252
H	 -2.780861	 1.084746	 0.127159
H	 -2.006390	 0.184138	 1.420053
C	 0.490865	 -0.082543	 0.241244
H	 -0.708709	 0.967192	 -1.204587
H	 -0.507562	 1.822272	 0.303070
C	 1.237447	 0.370008	 1.492812
H	 1.180881	 -0.137326	 -0.592982
H	 0.112407	 -1.091074	 0.395374
C	 2.392593	 -0.553012	 1.866250
H	 1.617220	 1.376331	 1.338578
H	 0.542580	 0.431783	 2.326499
H	 3.122733	 -0.607863	 1.065749
H	 2.903241	 -0.204093	 2.756642
H	 2.041151	 -1.561089	 2.060453

	symmetry c1
}
set optking {
	frozen_dihedral = ("
		10 7 4 8
	")
}

ee,wfn = optimize('scf', return_wfn=True)
oeprop( wfn, 'DIPOLE', 'QUADRUPOLE', 'MULLIKEN_CHARGES')
f=open( 'psi4out.xyz', 'w' )
f.write( "18  " )
f.write( str(ee) + "\n" )
f.write( MOL.save_string_xyz() )
f.close()
--------------------------------------------------------------------------

    Molecular point group: c1
  Charge       = 0
  Multiplicity = 1
  Basis Set: CC-PVTZ
  Basis Set:
  @DF-RHF Final Energy:  -271.28295574525134
    Total Energy =                       -271.2829557452512290
    Molecular point group: c1
  Basis Set: CC-PVTZ
  Basis Set:
  Basis Set: CC-PVTZ
  Basis Set:
  @DF-RHF Final Energy:  -271.28320394043556
    Total Energy =                       -271.2832039404354987
  Basis Set: CC-PVTZ
  Basis Set:
  Basis Set: CC-PVTZ
  Basis Set:
  @DF-RHF Final Energy:  -271.28325774730615
    Total Energy =                       -271.2832577473062088
  Basis Set: CC-PVTZ
  Basis Set:
  Charge       = 0
  Multiplicity = 1
  Basis Set: CC-PVTZ
  Basis Set:

    Orbital Energies (a.u.)
    -----------------------

    Doubly Occupied:

       1A    -20.546413     2A    -11.266246     3A    -11.210724
       4A    -11.210196     5A    -11.205120     6A    -11.203719
       7A     -1.364371     8A     -1.076062     9A     -1.009352
      10A     -0.914620    11A     -0.825714    12A     -0.780481
      13A     -0.705667    14A     -0.652413    15A     -0.619697
      16A     -0.583021    17A     -0.570313    18A     -0.559409
      19A     -0.529331    20A     -0.505959    21A     -0.485624
      22A     -0.470515    23A     -0.455805    24A     -0.450365
      25A     -0.430953

  @DF-RHF Final Energy:  -271.28325859366879

   => Energetics <=

    Nuclear Repulsion Energy =            250.9452483910851583
    One-Electron Energy =                -865.1928374405081286
    Two-Electron Energy =                 342.9643304557540660
    DFT Exchange-Correlation Energy =       0.0000000000000000
    Empirical Dispersion Energy =           0.0000000000000000
    PCM Polarization Energy =               0.0000000000000000
    EFP Energy =                            0.0000000000000000
    Total Energy =                       -271.2832585936688474
    Molecular point group: c1
  Basis Set: CC-PVTZ
  Basis Set:

  -Total Gradient:
     Atom            X                  Y                   Z
    ------   -----------------  -----------------  -----------------
       1       -0.000000265429     0.000016767132    -0.000006700862
       2        0.000004970611     0.000027740921     0.000009571353
       3        0.000005126427    -0.000043670549     0.000044880161
       4       -0.001778517299    -0.002592240685    -0.000765370813
       5        0.000018142343    -0.000032857460    -0.000015923757
       6       -0.000009451314     0.000008448758    -0.000016455280
       7       -0.001424012170    -0.001147665367     0.001812156713
       8        0.001844771467     0.002404941306     0.000260796932
       9        0.000039999477    -0.000010590161     0.000003943330
      10        0.001366501065     0.001316759999    -0.001282382270
      11       -0.000002033895     0.000036175442    -0.000025743658
      12       -0.000006007287     0.000071320432    -0.000025902536
      13       -0.000072031396    -0.000072001448     0.000017747468
      14        0.000001849334    -0.000017869489    -0.000024330888
      15        0.000028450295     0.000016756463     0.000007835105
      16       -0.000024373561     0.000029412547     0.000010578434
      17       -0.000022515227    -0.000002918719     0.000005609075
      18        0.000029396559    -0.000008509123    -0.000010308508

  **** Optimization is complete! (in 4 steps) ****
    Final optimized geometry and variables:
    Molecular point group: c1

    Geometry (in Angstrom), charge = 0, multiplicity = 1:

    H           -2.950799386836    -1.180148644231    -0.567791782981
    O           -2.141064088926    -0.832153676144    -0.892112863309
    C           -1.822532523433     0.358549481912    -0.219684842721
    C           -0.477189505363     0.856512237220    -0.710443235545
    H           -2.581578020681     1.113036982097    -0.409591678828
    H           -1.788777614565     0.189616521630     0.854887036384
    C            0.703652749352    -0.055556127519    -0.343297200881
    H           -0.527838310744     0.996766452165    -1.783988028490
    H           -0.315779640290     1.845929490683    -0.290544097811
    C            1.453951017712     0.391756045847     0.909695225847
    H            1.407021747845    -0.080228371803    -1.169820987463
    H            0.349915602450    -1.072939927606    -0.222609204164
    C            2.588964077844    -0.550797591008     1.294542987194
    H            1.852516946554     1.389385730568     0.747259402285
    H            0.760055188722     0.474672492790     1.742815436517
    H            3.317775759726    -0.630590819932     0.494701592619
    H            3.107452883251    -0.202274030342     2.180571478590
    H            2.216101719891    -1.548697161874     1.499559223966

  Mulliken Charges: (a.u.)
   Center  Symbol    Alpha    Beta     Spin     Total
       1     H     0.39562  0.39562  0.00000  0.20876
       2     O     4.19872  4.19872  0.00000 -0.39744
       3     C     2.97245  2.97245  0.00000  0.05510
       4     C     3.09746  3.09746  0.00000 -0.19492
       5     H     0.46415  0.46415  0.00000  0.07170
       6     H     0.47333  0.47333  0.00000  0.05334
       7     C     3.09673  3.09673  0.00000 -0.19346
       8     H     0.44576  0.44576  0.00000  0.10847
       9     H     0.45588  0.45588  0.00000  0.08824
      10     C     3.08256  3.08256  0.00000 -0.16511
      11     H     0.44989  0.44989  0.00000  0.10022
      12     H     0.44565  0.44565  0.00000  0.10870
      13     C     3.14997  3.14997  0.00000 -0.29994
      14     H     0.45536  0.45536  0.00000  0.08927
      15     H     0.45746  0.45746  0.00000  0.08508
      16     H     0.45485  0.45485  0.00000  0.09030
      17     H     0.44948  0.44948  0.00000  0.10104
      18     H     0.45468  0.45468  0.00000  0.09065

   Total alpha = 25.00000, Total beta = 25.00000, Total charge = -0.00000

*** Psi4 exiting successfully. Buy a developer a beer!
