  ==> Input File <==

--------------------------------------------------------------------------
set {
	reference rhf
	basis 6-31G*
}

set_num_threads( 4 )
memory 2 gb

molecule MOL {
0 1

H	 -2.798360	 -0.862255	 -0.071053
N	 -1.863561	 -0.715187	 0.256814
C	 -1.344686	 0.554728	 -0.219830
H	 -1.300452	 -1.461917	 -0.101532
C	 -1.446368	 1.597794	 0.873244
H	 -0.307479	 0.507328	 -0.554427
H	 -1.944746	 0.879723	 -1.064275
O	 -0.610005	 1.212416	 1.926367
H	 -1.143741	 2.573034	 0.492506
H	 -2.476244	 1.669087	 1.216040
C	 -0.670789	 2.043269	 3.041517
H	 0.012558	 1.649550	 3.781598
H	 -0.374112	 3.061422	 2.795898
H	 -1.672940	 2.068368	 3.464449

	symmetry c1
}
set optking {
	frozen_dihedral = ("
		6 3 2 4
	")
}

ee = optimize('scf')
oeprop('DIPOLE', 'QUADRUPOLE', 'MULLIKEN_CHARGES')
f=open( 'psi4out.xyz', 'w' )
f.write( "14  " )
f.write( str(ee) + "\n" )
f.write( MOL.save_string_xyz() )
f.close()
--------------------------------------------------------------------------

    Molecular point group: c1
  Charge       = 0
  Multiplicity = 1
  Basis Set: 6-31G*
  Basis Set:
  @DF-RHF Final Energy:  -248.11662385965823
    Total Energy =                       -248.1166238596581479
    Molecular point group: c1
  Basis Set: 6-31G*
  Basis Set:
  Basis Set: 6-31G*
  Basis Set:
  @DF-RHF Final Energy:  -248.11848897043532
    Total Energy =                       -248.1184889704353509
  Basis Set: 6-31G*
  Basis Set:
  Basis Set: 6-31G*
  Basis Set:
  @DF-RHF Final Energy:  -248.11878986900675
    Total Energy =                       -248.1187898690068323
  Basis Set: 6-31G*
  Basis Set:
  Basis Set: 6-31G*
  Basis Set:
  @DF-RHF Final Energy:  -248.11882013301556
    Total Energy =                       -248.1188201330154470
  Basis Set: 6-31G*
  Basis Set:
  Charge       = 0
  Multiplicity = 1
  Basis Set: 6-31G*
  Basis Set:

    Orbital Energies (a.u.)
    -----------------------

    Doubly Occupied:

       1A    -20.546787     2A    -15.530527     3A    -11.260295
       4A    -11.258751     5A    -11.242786     6A     -1.373106
       7A     -1.173145     8A     -0.996561     9A     -0.900876
      10A     -0.814915    11A     -0.680060    12A     -0.667068
      13A     -0.637699    14A     -0.624784    15A     -0.597660
      16A     -0.533753    17A     -0.518217    18A     -0.505595
      19A     -0.464083    20A     -0.408202    21A     -0.378241

  @DF-RHF Final Energy:  -248.11882212742935

   => Energetics <=

    Nuclear Repulsion Energy =            193.1763169021063220
    One-Electron Energy =                -720.3640561287442097
    Two-Electron Energy =                 279.0689170992084200
    DFT Exchange-Correlation Energy =       0.0000000000000000
    Empirical Dispersion Energy =           0.0000000000000000
    PCM Polarization Energy =               0.0000000000000000
    EFP Energy =                            0.0000000000000000
    Total Energy =                       -248.1188221274294392
    Molecular point group: c1
  Basis Set: 6-31G*
  Basis Set:

  -Total Gradient:
     Atom            X                  Y                   Z
    ------   -----------------  -----------------  -----------------
       1       -0.000004711448     0.000010353234    -0.000014727845
       2       -0.000618926997    -0.000085858600    -0.000903677829
       3        0.000365559827     0.000296429172     0.000943451254
       4        0.000436475147     0.000031614775     0.000626722544
       5       -0.000113261892    -0.000103285595     0.000089639806
       6       -0.000129699193    -0.000158859189    -0.000672637743
       7        0.000006223100    -0.000051333442     0.000039374606
       8        0.000017744426     0.000029122097    -0.000113121787
       9        0.000061376088    -0.000011104091     0.000047895247
      10       -0.000033852775     0.000019508432    -0.000036837020
      11        0.000022448656     0.000047341694    -0.000006948888
      12       -0.000004915628    -0.000007596637    -0.000008675044
      13       -0.000000061624     0.000000484022     0.000021532717
      14       -0.000004397689    -0.000016815874    -0.000011990020

  **** Optimization is complete! (in 5 steps) ****
    Final optimized geometry and variables:
    Molecular point group: c1

    Geometry (in Angstrom), charge = 0, multiplicity = 1:

    H           -1.655585777842    -1.789919124860    -1.334889233554
    N           -0.729128894892    -1.669958128087    -0.978923593674
    C           -0.156267394813    -0.393196518558    -1.380995770591
    H           -0.177041950678    -2.440362749054    -1.293934114087
    C           -0.261044389644     0.644959359217    -0.278719328302
    H            0.893301762304    -0.526818638779    -1.616355603015
    H           -0.630840271526     0.007604388591    -2.276772152203
    O            0.632269706380     0.321706865566     0.740108553956
    H           -0.027782050736     1.633370471208    -0.679139434382
    H           -1.281478029947     0.674714623814     0.101901260998
    C            0.536215837393     1.133899999172     1.864046804948
    H            1.276704075227     0.796138540839     2.576332287933
    H            0.731882353592     2.178213605970     1.623240900262
    H           -0.448737109184     1.065470586696     2.322120931014

  Mulliken Charges: (a.u.)
   Center  Symbol    Alpha    Beta     Spin     Total
       1     H     0.33335  0.33335  0.00000  0.33331
       2     N     3.92131  3.92131  0.00000 -0.84262
       3     C     3.07712  3.07712  0.00000 -0.15424
       4     H     0.32873  0.32873  0.00000  0.34254
       5     C     2.97537  2.97537  0.00000  0.04927
       6     H     0.41249  0.41249  0.00000  0.17502
       7     H     0.42928  0.42928  0.00000  0.14143
       8     O     4.30016  4.30016  0.00000 -0.60031
       9     H     0.43627  0.43627  0.00000  0.12746
      10     H     0.43255  0.43255  0.00000  0.13491
      11     C     3.07790  3.07790  0.00000 -0.15580
      12     H     0.41298  0.41298  0.00000  0.17404
      13     H     0.43315  0.43315  0.00000  0.13370
      14     H     0.42935  0.42935  0.00000  0.14130

   Total alpha = 21.00000, Total beta = 21.00000, Total charge =  0.00000
