                              Psi4 1.0.54 Driver

  ==> Input File <==

--------------------------------------------------------------------------
set {
	reference rhf
	basis cc-pvtz
}

set_num_threads( 4 )
memory 2 gb

molecule MOL {
0 1

O	 -0.131320	 -1.358127	 -2.763986
C	 -0.584668	 -0.411977	 -2.206574
C	 -0.881910	 -0.448129	 -0.720509
C	 -0.870139	 0.877287	 -2.939426
C	 0.376695	 -0.140025	 0.100361
H	 -1.237070	 -1.442533	 -0.481481
H	 -1.664772	 0.261935	 -0.475965
C	 1.630207	 -0.772146	 -0.501001
H	 0.486632	 0.935267	 0.162725
H	 0.248225	 -0.501310	 1.117842
C	 2.907848	 -0.545876	 0.309149
H	 1.772784	 -0.391628	 -1.509394
H	 1.468529	 -1.842059	 -0.599744
C	 3.373802	 0.906639	 0.372125
H	 3.699140	 -1.146831	 -0.127906
H	 2.764321	 -0.923458	 1.318191
H	 3.519798	 1.311927	 -0.623875
H	 4.316899	 0.983758	 0.900700
H	 2.661122	 1.540651	 0.885346
H	 -1.942989	 1.037866	 -2.974158
H	 -0.480627	 0.827942	 -3.944620
H	 -0.437068	 1.720719	 -2.413440

	symmetry c1
}
set optking {
	frozen_dihedral = ("
		6 3 5 8
	")
}

ee,wfn = optimize('scf', return_wfn=True)
oeprop( wfn, 'DIPOLE', 'QUADRUPOLE', 'MULLIKEN_CHARGES')
f=open( 'psi4out.xyz', 'w' )
f.write( "22  " )
f.write( str(ee) + "\n" )
f.write( MOL.save_string_xyz() )
f.close()
--------------------------------------------------------------------------

    Molecular point group: c1
  Charge       = 0
  Multiplicity = 1
  Basis Set: CC-PVTZ
  Basis Set:
  @DF-RHF Final Energy:  -348.21640748104227
    Total Energy =                       -348.2164074810424381
    Molecular point group: c1
  Basis Set: CC-PVTZ
  Basis Set:
  Basis Set: CC-PVTZ
  Basis Set:
  @DF-RHF Final Energy:  -348.14690570670496
    Total Energy =                       -348.1469057067047288
  Basis Set: CC-PVTZ
  Basis Set:
  Basis Set: CC-PVTZ
  Basis Set:
  @DF-RHF Final Energy:  -348.21312550914968
    Total Energy =                       -348.2131255091499611
  Basis Set: CC-PVTZ
  Basis Set:
  Basis Set: CC-PVTZ
  Basis Set:
  @DF-RHF Final Energy:  -348.21917693014001
    Total Energy =                       -348.2191769301394970
  Basis Set: CC-PVTZ
  Basis Set:
  @DF-RHF Final Energy:  -348.21709999919813
    Total Energy =                       -348.2170999991984672
  @DF-RHF Final Energy:  -348.22002877839611
    Total Energy =                       -348.2200287783962267
  @DF-RHF Final Energy:  -348.22023368501948
    Total Energy =                       -348.2202336850194797
  @DF-RHF Final Energy:  -348.22037240224779
    Total Energy =                       -348.2203724022471079
  Basis Set: CC-PVTZ
  Basis Set:
  @DF-RHF Final Energy:  -348.22043612826218
    Total Energy =                       -348.2204361282625769
  Basis Set: CC-PVTZ
  Basis Set:
  Basis Set: CC-PVTZ
  Basis Set:
  @DF-RHF Final Energy:  -348.22044517565371
    Total Energy =                       -348.2204451756535946
  Basis Set: CC-PVTZ
  Basis Set:
  Basis Set: CC-PVTZ
  Basis Set:
  @DF-RHF Final Energy:  -348.22047075285479
    Total Energy =                       -348.2204707528542826
  Basis Set: CC-PVTZ
  Basis Set:
  Charge       = 0
  Multiplicity = 1
  Basis Set: CC-PVTZ
  Basis Set:

    Orbital Energies (a.u.)
    -----------------------

    Doubly Occupied:

       1A    -20.537160     2A    -11.319296     3A    -11.229870
       4A    -11.228027     5A    -11.226319     6A    -11.218905
       7A    -11.218219     8A    -11.211608     9A     -1.396920
      10A     -1.097354    11A     -1.045086    12A     -0.997678
      13A     -0.940409    14A     -0.862605    15A     -0.792211
      16A     -0.728219    17A     -0.659516    18A     -0.646353
      19A     -0.629071    20A     -0.623082    21A     -0.600264
      22A     -0.578048    23A     -0.571733    24A     -0.544293
      25A     -0.536576    26A     -0.518752    27A     -0.505130
      28A     -0.491373    29A     -0.471910    30A     -0.463670
      31A     -0.454875    32A     -0.400113

  @DF-RHF Final Energy:  -348.22047113559989

   => Energetics <=

    Nuclear Repulsion Energy =            383.0737453968143313
    One-Electron Energy =               -1231.0991371308978160
    Two-Electron Energy =                 499.8049205984834771
    DFT Exchange-Correlation Energy =       0.0000000000000000
    Empirical Dispersion Energy =           0.0000000000000000
    PCM Polarization Energy =               0.0000000000000000
    EFP Energy =                            0.0000000000000000
    Total Energy =                       -348.2204711356000644
    Molecular point group: c1
  Basis Set: CC-PVTZ
  Basis Set:

  -Total Gradient:
     Atom            X                  Y                   Z
    ------   -----------------  -----------------  -----------------
       1       -0.000016525531     0.000049908114     0.000004746096
       2        0.000027682951    -0.000092620952    -0.000005128665
       3        0.004265051568    -0.000581833355    -0.004553560309
       4       -0.000022799022     0.000018309127    -0.000007771698
       5       -0.000589360596    -0.003234130867     0.003996836332
       6       -0.003505948146     0.001298204974     0.002889598378
       7        0.000002310074    -0.000005534369    -0.000000151378
       8       -0.000176348665     0.002558648371    -0.002348724960
       9        0.000009415826    -0.000003144172    -0.000001265099
      10        0.000006068800     0.000005020744     0.000004175958
      11        0.000001917605    -0.000012140182     0.000023574423
      12        0.000010614415    -0.000007000188     0.000004564131
      13       -0.000020104328    -0.000003732725     0.000001666130
      14       -0.000010963589    -0.000003379354    -0.000003697535
      15       -0.000005838098     0.000001910191    -0.000008083438
      16        0.000014458770    -0.000000483326     0.000015042176
      17        0.000005856069     0.000000034354    -0.000003182979
      18        0.000002685642     0.000007086635     0.000007832097
      19       -0.000006281731     0.000001225305    -0.000000990277
      20       -0.000005880046    -0.000001107618    -0.000002590468
      21        0.000002001389     0.000006896280    -0.000016593848
      22        0.000011986646    -0.000002136991     0.000003704932

  **** Optimization is complete! (in 12 steps) ****
    Final optimized geometry and variables:
    Molecular point group: c1

    Geometry (in Angstrom), charge = 0, multiplicity = 1:

    O           -0.726609043754    -1.768126230919    -1.783817785546
    C           -1.124047574014    -0.772684916947    -1.272051642594
    C           -1.436188220002    -0.711161050460     0.208415509253
    C           -1.367408764879     0.482228010043    -2.079709626721
    C           -0.440937675196     0.117582999087     1.043376302701
    H           -1.497101673538    -1.721279508500     0.589801719358
    H           -2.424520702462    -0.274880161969     0.326453310911
    C            1.028078767624    -0.113328301620     0.686936378152
    H           -0.677345262888     1.170202985423     0.935792580108
    H           -0.606086646859    -0.123444577958     2.087868308196
    C            2.017954791626     0.562671984080     1.637209663851
    H            1.220011090998     0.230293000125    -0.325725213546
    H            1.224843919105    -1.180888551953     0.680607999513
    C            1.980087474697     2.089035522502     1.620570639763
    H            3.018848200298     0.236721354180     1.373233212537
    H            1.841786734148     0.208528024840     2.649400804938
    H            2.145095825765     2.471930354185     0.618368606285
    H            2.753380581728     2.498847261783     2.259890315744
    H            1.031080610599     2.476784061223     1.971427016485
    H           -2.436401494947     0.656365080110    -2.149431514679
    H           -0.960352777424     0.364477264249    -3.072249361572
    H           -0.930627435734     1.349796267411    -1.600044208688

  Mulliken Charges: (a.u.)
   Center  Symbol    Alpha    Beta     Spin     Total
       1     O     4.17818  4.17818  0.00000 -0.35636
       2     C     2.85196  2.85196  0.00000  0.29609
       3     C     3.10569  3.10569  0.00000 -0.21139
       4     C     3.15634  3.15634  0.00000 -0.31267
       5     C     3.12036  3.12036  0.00000 -0.24072
       6     H     0.43719  0.43719  0.00000  0.12562
       7     H     0.44387  0.44387  0.00000  0.11225
       8     C     3.09745  3.09745  0.00000 -0.19489
       9     H     0.44814  0.44814  0.00000  0.10373
      10     H     0.44075  0.44075  0.00000  0.11850
      11     C     3.09175  3.09175  0.00000 -0.18351
      12     H     0.44928  0.44928  0.00000  0.10144
      13     H     0.43839  0.43839  0.00000  0.12321
      14     C     3.15454  3.15454  0.00000 -0.30908
      15     H     0.44589  0.44589  0.00000  0.10822
      16     H     0.45386  0.45386  0.00000  0.09228
      17     H     0.45433  0.45433  0.00000  0.09135
      18     H     0.44460  0.44460  0.00000  0.11080
      19     H     0.45436  0.45436  0.00000  0.09127
      20     H     0.44724  0.44724  0.00000  0.10552
      21     H     0.43516  0.43516  0.00000  0.12967
      22     H     0.45068  0.45068  0.00000  0.09863

   Total alpha = 32.00000, Total beta = 32.00000, Total charge =  0.00000

*** Psi4 exiting successfully. Buy a developer a beer!
