                              Psi4 1.0.54 Driver

  ==> Input File <==

--------------------------------------------------------------------------
set {
	reference rhf
	basis cc-pvtz
}

set_num_threads( 4 )
memory 2 gb

molecule MOL {
0 1

H	 -0.758702	 3.342132	 3.173655
O	 -0.076605	 2.761498	 2.891162
C	 -0.535214	 1.952907	 1.840317
C	 0.590412	 1.032704	 1.413332
H	 -1.393625	 1.365199	 2.158913
H	 -0.852045	 2.565622	 0.998873
C	 0.196029	 0.106276	 0.266738
H	 0.901977	 0.448722	 2.273629
H	 1.441562	 1.641425	 1.125375
C	 1.330220	 -0.826136	 -0.155230
H	 -0.671027	 -0.476587	 0.562035
H	 -0.112173	 0.701218	 -0.590372
C	 2.719700	 -0.407669	 0.328325
H	 1.339388	 -0.911200	 -1.239363
H	 1.119001	 -1.821953	 0.224128
C	 3.241564	 0.893452	 -0.276737
H	 3.418299	 -1.204729	 0.093035
H	 2.711776	 -0.323368	 1.411960
H	 3.254204	 0.841071	 -1.360784
H	 2.634460	 1.745075	 0.005842
H	 4.254264	 1.092401	 0.054971

	symmetry c1
}
set optking {
	frozen_dihedral = ("
		4 7 10 14
	")
}

ee,wfn = optimize('scf', return_wfn=True)
oeprop( wfn, 'DIPOLE', 'QUADRUPOLE', 'MULLIKEN_CHARGES')
f=open( 'psi4out.xyz', 'w' )
f.write( "21  " )
f.write( str(ee) + "\n" )
f.write( MOL.save_string_xyz() )
f.close()
--------------------------------------------------------------------------

    Molecular point group: c1
  Charge       = 0
  Multiplicity = 1
  Basis Set: CC-PVTZ
  Basis Set:
  @DF-RHF Final Energy:  -310.31504754269793
    Total Energy =                       -310.3150475426980961
    Molecular point group: c1
  Basis Set: CC-PVTZ
  Basis Set:
  Basis Set: CC-PVTZ
  Basis Set:
  @DF-RHF Final Energy:  -310.32234377943035
    Total Energy =                       -310.3223437794302413
  Basis Set: CC-PVTZ
  Basis Set:
  Basis Set: CC-PVTZ
  Basis Set:
  @DF-RHF Final Energy:  -310.32340385255020
    Total Energy =                       -310.3234038525502001
  Basis Set: CC-PVTZ
  Basis Set:
  Basis Set: CC-PVTZ
  Basis Set:
  @DF-RHF Final Energy:  -310.32388081838508
    Total Energy =                       -310.3238808183850210
  Basis Set: CC-PVTZ
  Basis Set:
  Basis Set: CC-PVTZ
  Basis Set:
  @DF-RHF Final Energy:  -310.32391802262475
    Total Energy =                       -310.3239180226245253
  Basis Set: CC-PVTZ
  Basis Set:
  Basis Set: CC-PVTZ
  Basis Set:
  @DF-RHF Final Energy:  -310.32393685245694
    Total Energy =                       -310.3239368524571091
  Basis Set: CC-PVTZ
  Basis Set:
  Basis Set: CC-PVTZ
  Basis Set:
  @DF-RHF Final Energy:  -310.32393845945029
    Total Energy =                       -310.3239384594505168
  Basis Set: CC-PVTZ
  Basis Set:
  Charge       = 0
  Multiplicity = 1
  Basis Set: CC-PVTZ
  Basis Set:

    Orbital Energies (a.u.)
    -----------------------

    Doubly Occupied:

       1A    -20.545519     2A    -11.265013     3A    -11.214318
       4A    -11.212142     5A    -11.210622     6A    -11.208746
       7A    -11.204336     8A     -1.363345     9A     -1.084262
      10A     -1.030519    11A     -0.956213    12A     -0.874719
      13A     -0.821154    14A     -0.764176    15A     -0.692200
      16A     -0.662502    17A     -0.627249    18A     -0.618033
      19A     -0.571889    20A     -0.567218    21A     -0.544717
      22A     -0.527647    23A     -0.504129    24A     -0.495198
      25A     -0.478668    26A     -0.451078    27A     -0.448484
      28A     -0.445612    29A     -0.437681

  @DF-RHF Final Energy:  -310.32393873265391

   => Energetics <=

    Nuclear Repulsion Energy =            320.1882428773154743
    One-Electron Energy =               -1055.3695827233777891
    Two-Electron Energy =                 424.8574011134082866
    DFT Exchange-Correlation Energy =       0.0000000000000000
    Empirical Dispersion Energy =           0.0000000000000000
    PCM Polarization Energy =               0.0000000000000000
    EFP Energy =                            0.0000000000000000
    Total Energy =                       -310.3239387326540282
    Molecular point group: c1
  Basis Set: CC-PVTZ
  Basis Set:

  -Total Gradient:
     Atom            X                  Y                   Z
    ------   -----------------  -----------------  -----------------
       1       -0.000001697781     0.000010570680     0.000010413009
       2       -0.000006880710     0.000010896046     0.000006120505
       3        0.000027232390    -0.000000471960     0.000002116351
       4        0.001873706096     0.003944632202    -0.003317930132
       5       -0.000003183099    -0.000004140031    -0.000003801874
       6       -0.000014697093     0.000005461319    -0.000009915291
       7       -0.001689548416    -0.004548760969     0.004799907945
       8       -0.000009046001    -0.000002820101     0.000012514501
       9       -0.000021295325    -0.000023173714     0.000006760175
      10       -0.004817047147    -0.004921614200    -0.001579492154
      11       -0.000002097886     0.000008141849     0.000018578805
      12       -0.000007446597     0.000005671401     0.000000701526
      13        0.000013706171    -0.000008341930    -0.000060108510
      14        0.004646977143     0.005526162051     0.000060711876
      15       -0.000006279427    -0.000013346178     0.000002974525
      16       -0.000039534818     0.000016005729     0.000067616355
      17        0.000021623470    -0.000007534888    -0.000003783256
      18        0.000000609202     0.000034881447    -0.000003863464
      19       -0.000009295635    -0.000033968470    -0.000003640812
      20        0.000022152355    -0.000009346884    -0.000007695103
      21        0.000022043104     0.000011096601     0.000001815021

  **** Optimization is complete! (in 8 steps) ****
    Final optimized geometry and variables:
    Molecular point group: c1

    Geometry (in Angstrom), charge = 0, multiplicity = 1:

    H           -2.059891877677     2.391844436896     2.350415208440
    O           -1.334340886465     1.856119850579     2.088285192123
    C           -1.687893400583     1.073237189914     0.978805427716
    C           -0.491289178544     0.229743142887     0.584854284403
    H           -2.532398589348     0.431164171744     1.219616910590
    H           -1.985375862789     1.706725572510     0.145667911272
    C           -0.791273350781    -0.645335520380    -0.631389922177
    H           -0.213084006247    -0.378586744169     1.439530542785
    H            0.339454754266     0.894726665160     0.391648363572
    C            0.336520356714    -1.585428627851    -1.126781039648
    H           -1.671346250377    -1.246319410936    -0.426223707593
    H           -1.074640341814     0.015140353898    -1.446256890832
    C            1.775335507630    -1.246324690648    -0.712102847045
    H            0.334876290668    -1.573267780129    -2.212051240416
    H            0.119327081992    -2.598669064791    -0.810085165945
    C            2.377368461742    -0.062007792066    -1.465931871831
    H            2.390512999543    -2.119242765095    -0.908261112840
    H            1.836732478447    -1.074042882608     0.356083887029
    H            2.417350282306    -0.266735730520    -2.530975382892
    H            1.802665010332     0.846209088760    -1.330737258389
    H            3.389061102718     0.138138786429    -1.131475102892

  Mulliken Charges: (a.u.)
   Center  Symbol    Alpha    Beta     Spin     Total
       1     H     0.39775  0.39775  0.00000  0.20450
       2     O     4.19468  4.19468  0.00000 -0.38936
       3     C     2.96755  2.96755  0.00000  0.06490
       4     C     3.09066  3.09066  0.00000 -0.18132
       5     H     0.47262  0.47262  0.00000  0.05476
       6     H     0.47457  0.47457  0.00000  0.05086
       7     C     3.11157  3.11157  0.00000 -0.22315
       8     H     0.44951  0.44951  0.00000  0.10099
       9     H     0.44566  0.44566  0.00000  0.10868
      10     C     3.09568  3.09568  0.00000 -0.19137
      11     H     0.44816  0.44816  0.00000  0.10367
      12     H     0.45235  0.45235  0.00000  0.09529
      13     C     3.10067  3.10067  0.00000 -0.20133
      14     H     0.45291  0.45291  0.00000  0.09419
      15     H     0.44597  0.44597  0.00000  0.10807
      16     C     3.14828  3.14828  0.00000 -0.29657
      17     H     0.44441  0.44441  0.00000  0.11119
      18     H     0.44910  0.44910  0.00000  0.10180
      19     H     0.45481  0.45481  0.00000  0.09038
      20     H     0.45524  0.45524  0.00000  0.08952
      21     H     0.44784  0.44784  0.00000  0.10432

   Total alpha = 29.00000, Total beta = 29.00000, Total charge =  0.00000

*** Psi4 exiting successfully. Buy a developer a beer!
