                              Psi4 1.0.54 Driver

  ==> Input File <==

--------------------------------------------------------------------------
set {
	reference rhf
	basis cc-pvtz
}

set_num_threads( 4 )
memory 2 gb

molecule MOL {
0 1

H	 -2.434082	 -1.557925	 0.305176
O	 -2.321472	 -0.864941	 -0.318626
C	 -2.021813	 0.336996	 0.342658
C	 -0.669613	 0.837286	 -0.127252
H	 -2.780861	 1.084746	 0.127159
H	 -2.006390	 0.184138	 1.420053
C	 0.490865	 -0.082543	 0.241244
H	 -0.708709	 0.967192	 -1.204587
H	 -0.507562	 1.822272	 0.303070
C	 1.839800	 0.429565	 -0.255472
H	 0.305636	 -1.070211	 -0.165276
H	 0.527397	 -0.195943	 1.322876
C	 3.001144	 -0.485193	 0.119072
H	 1.804373	 0.541073	 -1.335756
H	 2.020437	 1.423114	 0.146921
H	 2.866892	 -1.477297	 -0.298806
H	 3.943543	 -0.095749	 -0.249061
H	 3.085064	 -0.590459	 1.195790

	symmetry c1
}
set optking {
	frozen_dihedral = ("
		1 2 3 4
	")
}

ee,wfn = optimize('scf', return_wfn=True)
oeprop( wfn, 'DIPOLE', 'QUADRUPOLE', 'MULLIKEN_CHARGES')
f=open( 'psi4out.xyz', 'w' )
f.write( "18  " )
f.write( str(ee) + "\n" )
f.write( MOL.save_string_xyz() )
f.close()
--------------------------------------------------------------------------

    Molecular point group: c1
  Charge       = 0
  Multiplicity = 1
  Basis Set: CC-PVTZ
  Basis Set:
  @DF-RHF Final Energy:  -271.28495103334888
    Total Energy =                       -271.2849510333491025
    Molecular point group: c1
  Basis Set: CC-PVTZ
  Basis Set:
  Basis Set: CC-PVTZ
  Basis Set:
  @DF-RHF Final Energy:  -271.28528444156018
    Total Energy =                       -271.2852844415604068
  Basis Set: CC-PVTZ
  Basis Set:
  Basis Set: CC-PVTZ
  Basis Set:
  @DF-RHF Final Energy:  -271.28539402275896
    Total Energy =                       -271.2853940227591920
  Basis Set: CC-PVTZ
  Basis Set:
  Charge       = 0
  Multiplicity = 1
  Basis Set: CC-PVTZ
  Basis Set:

    Orbital Energies (a.u.)
    -----------------------

    Doubly Occupied:

       1A    -20.545278     2A    -11.266349     3A    -11.211986
       4A    -11.210472     5A    -11.209274     6A    -11.205524
       7A     -1.362556     8A     -1.078891     9A     -1.011457
      10A     -0.917769    11A     -0.822785    12A     -0.787059
      13A     -0.707771    14A     -0.639520    15A     -0.628457
      16A     -0.585869    17A     -0.574243    18A     -0.566099
      19A     -0.525188    20A     -0.501216    21A     -0.481654
      22A     -0.478509    23A     -0.463316    24A     -0.460288
      25A     -0.424727

  @DF-RHF Final Energy:  -271.28539479825395

   => Energetics <=

    Nuclear Repulsion Energy =            249.0311213156244037
    One-Electron Energy =                -861.3005164852820599
    Two-Electron Energy =                 340.9840003714037948
    DFT Exchange-Correlation Energy =       0.0000000000000000
    Empirical Dispersion Energy =           0.0000000000000000
    PCM Polarization Energy =               0.0000000000000000
    EFP Energy =                            0.0000000000000000
    Total Energy =                       -271.2853947982538330
    Molecular point group: c1
  Basis Set: CC-PVTZ
  Basis Set:

  -Total Gradient:
     Atom            X                  Y                   Z
    ------   -----------------  -----------------  -----------------
       1        0.000100341992    -0.000069472620    -0.000045233552
       2       -0.000153035712    -0.000155727950     0.000039833619
       3        0.000011119659     0.000182643668    -0.000103257988
       4        0.000016922003     0.000014688089     0.000087617772
       5        0.000027949080     0.000049783347     0.000029829090
       6       -0.000000946849    -0.000003274649    -0.000013419034
       7       -0.000006583464    -0.000001904452     0.000007416656
       8       -0.000026621406    -0.000019548017     0.000013915560
       9        0.000034955540    -0.000008452653    -0.000006542572
      10        0.000011234840     0.000014732469     0.000004537767
      11       -0.000011246141    -0.000006606557    -0.000017030677
      12       -0.000003656999     0.000001633485    -0.000004560545
      13        0.000001488923     0.000003410054     0.000003152163
      14       -0.000004372071    -0.000010141342     0.000006988269
      15        0.000003601790     0.000007681099    -0.000003751743
      16       -0.000000695785    -0.000001254416    -0.000001512536
      17       -0.000001629243     0.000002238670    -0.000000493713
      18        0.000001173838    -0.000000428226     0.000002511463

  **** Optimization is complete! (in 4 steps) ****
    Final optimized geometry and variables:
    Molecular point group: c1

    Geometry (in Angstrom), charge = 0, multiplicity = 1:

    H           -2.482544799527    -1.578870628174     0.276598880221
    O           -2.364443974584    -0.882343388465    -0.339361043082
    C           -2.027401652930     0.315032252081     0.319657804406
    C           -0.675260007610     0.831894053636    -0.140048532244
    H           -2.792988753600     1.050659871108     0.099049730085
    H           -2.022525520367     0.168805825098     1.396381940877
    C            0.493673639725    -0.070024306287     0.242757693048
    H           -0.706505104500     0.953743996818    -1.218699756406
    H           -0.529193723393     1.822710088496     0.283834250604
    C            1.842114475357     0.452486413865    -0.244564781622
    H            0.325579979817    -1.061917324488    -0.163528515240
    H            0.523790947078    -0.178523384288     1.325598810491
    C            3.009225369341    -0.449067897416     0.143482214316
    H            1.813967375855     0.559179292527    -1.325347033730
    H            2.008931751416     1.449197687163     0.155334600095
    H            2.888259943805    -1.444530859212    -0.270602376212
    H            3.950393795980    -0.052221045355    -0.219524672843
    H            3.086245329789    -0.547994949974     1.221331879431

  Mulliken Charges: (a.u.)
   Center  Symbol    Alpha    Beta     Spin     Total
       1     H     0.39034  0.39034  0.00000  0.21932
       2     O     4.20855  4.20855  0.00000 -0.41710
       3     C     2.98141  2.98141  0.00000  0.03719
       4     C     3.08143  3.08143  0.00000 -0.16285
       5     H     0.45494  0.45494  0.00000  0.09011
       6     H     0.47061  0.47061  0.00000  0.05878
       7     C     3.09321  3.09321  0.00000 -0.18641
       8     H     0.45225  0.45225  0.00000  0.09550
       9     H     0.45537  0.45537  0.00000  0.08925
      10     C     3.08379  3.08379  0.00000 -0.16759
      11     H     0.44988  0.44988  0.00000  0.10025
      12     H     0.45945  0.45945  0.00000  0.08110
      13     C     3.14999  3.14999  0.00000 -0.29999
      14     H     0.45332  0.45332  0.00000  0.09335
      15     H     0.45598  0.45598  0.00000  0.08804
      16     H     0.45480  0.45480  0.00000  0.09040
      17     H     0.44859  0.44859  0.00000  0.10282
      18     H     0.45609  0.45609  0.00000  0.08781

   Total alpha = 25.00000, Total beta = 25.00000, Total charge = -0.00000

*** Psi4 exiting successfully. Buy a developer a beer!
