  ==> Input File <==

--------------------------------------------------------------------------
set {
	reference rhf
	basis cc-pvtz
}

set_num_threads( 4 )
memory 2 gb

molecule MOL {
0 1

O	 -1.510770	 1.240811	 -0.054933
C	 -1.081510	 0.147522	 0.122720
C	 0.327029	 -0.064006	 0.641890
C	 -1.903028	 -1.084121	 -0.174656
C	 1.349460	 -0.017068	 -0.500215
H	 0.399029	 -1.014606	 1.159950
H	 0.538021	 0.726928	 1.350471
C	 1.123408	 -1.118615	 -1.529410
H	 1.304980	 0.950101	 -0.992599
H	 2.343736	 -0.105843	 -0.078480
H	 1.864832	 -1.069838	 -2.318043
H	 0.144399	 -1.032983	 -1.988713
H	 1.190009	 -2.099181	 -1.071235
H	 -1.341891	 -1.779207	 -0.789259
H	 -2.820449	 -0.808163	 -0.671328
H	 -2.133314	 -1.593056	 0.755831

	symmetry c1
}
set optking {
	frozen_dihedral = ("
		9 5 3 2
	")
}

ee = optimize('scf')
oeprop('DIPOLE', 'QUADRUPOLE', 'MULLIKEN_CHARGES')
f=open( 'psi4out.xyz', 'w' )
f.write( "16  " )
f.write( str(ee) + "\n" )
f.write( MOL.save_string_xyz() )
f.close()
--------------------------------------------------------------------------

    Molecular point group: c1
  Charge       = 0
  Multiplicity = 1
  Basis Set: CC-PVTZ
  Basis Set:
  @DF-RHF Final Energy:  -270.12494209444014
    Total Energy =                       -270.1249420944404278
    Molecular point group: c1
  Basis Set: CC-PVTZ
  Basis Set:
  Basis Set: CC-PVTZ
  Basis Set:
  @DF-RHF Final Energy:  -270.12728656342466
    Total Energy =                       -270.1272865634247751
  Basis Set: CC-PVTZ
  Basis Set:
  Basis Set: CC-PVTZ
  Basis Set:
  @DF-RHF Final Energy:  -270.12618668182250
    Total Energy =                       -270.1261866818225599
  Basis Set: CC-PVTZ
  Basis Set:
  Basis Set: CC-PVTZ
  Basis Set:
  @DF-RHF Final Energy:  -270.12798040038342
    Total Energy =                       -270.1279804003831941
  Basis Set: CC-PVTZ
  Basis Set:
  @DF-RHF Final Energy:  -270.12827836817229
    Total Energy =                       -270.1282783681723458
  @DF-RHF Final Energy:  -270.12865908235540
    Total Energy =                       -270.1286590823554548
  @DF-RHF Final Energy:  -270.12876965123996
    Total Energy =                       -270.1287696512400203
  @DF-RHF Final Energy:  -270.12886325422801
    Total Energy =                       -270.1288632542281789
  @DF-RHF Final Energy:  -270.12895742660680
    Total Energy =                       -270.1289574266068030
  @DF-RHF Final Energy:  -270.12905286354095
    Total Energy =                       -270.1290528635410055
  @DF-RHF Final Energy:  -270.12822210599853
    Total Energy =                       -270.1282221059984749
  @DF-RHF Final Energy:  -270.12911906370425
    Total Energy =                       -270.1291190637043087
  @DF-RHF Final Energy:  -270.12942898874115
    Total Energy =                       -270.1294289887410400
  @DF-RHF Final Energy:  -270.12343409081672
    Total Energy =                       -270.1234340908163745
  @DF-RHF Final Energy:  -270.12945996359707
    Total Energy =                       -270.1294599635970144
  @DF-RHF Final Energy:  -270.13003692958625
    Total Energy =                       -270.1300369295865949
  @DF-RHF Final Energy:  -270.13004139273903
    Total Energy =                       -270.1300413927389741
  @DF-RHF Final Energy:  -270.13012219723356
    Total Energy =                       -270.1301221972339022
  @DF-RHF Final Energy:  -270.13014752585633
    Total Energy =                       -270.1301475258566711
  @DF-RHF Final Energy:  -270.13016675949063
    Total Energy =                       -270.1301667594904075
  Basis Set: CC-PVTZ
  Basis Set:
  @DF-RHF Final Energy:  -270.13017797146932
    Total Energy =                       -270.1301779714689246
  Basis Set: CC-PVTZ
  Basis Set:
  Basis Set: CC-PVTZ
  Basis Set:
  @DF-RHF Final Energy:  -270.13018634036018
    Total Energy =                       -270.1301863403601828
  Basis Set: CC-PVTZ
  Basis Set:
  Basis Set: CC-PVTZ
  Basis Set:
  @DF-RHF Final Energy:  -270.13018742530744
    Total Energy =                       -270.1301874253071560
  Basis Set: CC-PVTZ
  Basis Set:
  Charge       = 0
  Multiplicity = 1
  Basis Set: CC-PVTZ
  Basis Set:

    Orbital Energies (a.u.)
    -----------------------

    Doubly Occupied:

       1A    -20.539153     2A    -11.321689     3A    -11.231359
       4A    -11.227413     5A    -11.219802     6A    -11.205218
       7A     -1.399723     8A     -1.077021     9A     -1.015992
      10A     -0.945861    11A     -0.828205    12A     -0.727926
      13A     -0.665112    14A     -0.638764    15A     -0.625746
      16A     -0.595872    17A     -0.583621    18A     -0.551884
      19A     -0.547678    20A     -0.504751    21A     -0.488260
      22A     -0.479775    23A     -0.478806    24A     -0.402196

  @DF-RHF Final Energy:  -270.13018823066841

   => Energetics <=

    Nuclear Repulsion Energy =            241.8600130555132921
    One-Electron Energy =                -845.3767467802058491
    Two-Electron Energy =                 333.3865454940241193
    DFT Exchange-Correlation Energy =       0.0000000000000000
    Empirical Dispersion Energy =           0.0000000000000000
    PCM Polarization Energy =               0.0000000000000000
    EFP Energy =                            0.0000000000000000
    Total Energy =                       -270.1301882306684661
    Molecular point group: c1
  Basis Set: CC-PVTZ
  Basis Set:

  -Total Gradient:
     Atom            X                  Y                   Z
    ------   -----------------  -----------------  -----------------
       1       -0.000034504463    -0.000007393752    -0.000021993366
       2        0.000133727891    -0.001552617176    -0.000656390027
       3        0.000170606874     0.002427267649     0.001406699240
       4       -0.000022646862    -0.000020578557     0.000053798420
       5       -0.001447330062    -0.001357136712    -0.002629499412
       6        0.000001154008    -0.000009525082    -0.000010268267
       7        0.000003038147    -0.000018251225    -0.000010070820
       8        0.000038616749     0.000005582030    -0.000030361284
       9        0.001171818707     0.000514805025     0.001905892134
      10        0.000030587325     0.000018807226     0.000025418391
      11       -0.000016265298    -0.000002169933     0.000015579650
      12       -0.000016100644    -0.000012053516    -0.000006920407
      13       -0.000012093678     0.000006046582     0.000002219934
      14        0.000002472704    -0.000004240736    -0.000032535917
      15        0.000004927088     0.000002365177     0.000000690259
      16       -0.000008008488     0.000009093003    -0.000012258531

  **** Optimization is complete! (in 24 steps) ****
    Final optimized geometry and variables:
    Molecular point group: c1

    Geometry (in Angstrom), charge = 0, multiplicity = 1:

    O           -1.039394303613     0.828286907625    -0.697479763223
    C           -0.883525911434     0.115191206624     0.239328012310
    C            0.474011607411    -0.096610902375     0.881484828540
    C           -2.043665545161    -0.615188937237     0.875208301072
    C            1.672373932851     0.309538536821     0.029439569616
    H            0.553926770197    -1.138032348433     1.181703574670
    H            0.460815678074     0.474254087415     1.807538184812
    C            1.839720486394    -0.508161325792    -1.247277201944
    H            1.603342714373     1.364737113898    -0.204391108458
    H            2.562057571588     0.193827145981     0.641339780096
    H            2.737319443280    -0.208704550201    -1.775408321281
    H            1.000618680082    -0.374489666468    -1.915902840859
    H            1.930922689001    -1.566579868896    -1.021703546582
    H           -1.956179103612    -1.675966563700     0.663501989711
    H           -2.975452788214    -0.246857584733     0.474264385338
    H           -2.029744162957    -0.499017756711     1.952870160287

  Mulliken Charges: (a.u.)
   Center  Symbol    Alpha    Beta     Spin     Total
       1     O     4.17324  4.17324  0.00000 -0.34648
       2     C     2.85999  2.85999  0.00000  0.28003
       3     C     3.11709  3.11709  0.00000 -0.23418
       4     C     3.15106  3.15106  0.00000 -0.30213
       5     C     3.08220  3.08220  0.00000 -0.16440
       6     H     0.44527  0.44527  0.00000  0.10946
       7     H     0.43705  0.43705  0.00000  0.12590
       8     C     3.15463  3.15463  0.00000 -0.30926
       9     H     0.44634  0.44634  0.00000  0.10732
      10     H     0.44879  0.44879  0.00000  0.10241
      11     H     0.44779  0.44779  0.00000  0.10442
      12     H     0.44162  0.44162  0.00000  0.11676
      13     H     0.45904  0.45904  0.00000  0.08192
      14     H     0.44931  0.44931  0.00000  0.10139
      15     H     0.43589  0.43589  0.00000  0.12823
      16     H     0.45069  0.45069  0.00000  0.09863

   Total alpha = 24.00000, Total beta = 24.00000, Total charge = -0.00000
