                              Psi4 1.0.54 Driver

  ==> Input File <==

--------------------------------------------------------------------------
set {
	reference rhf
	basis cc-pvtz
}

set_num_threads( 4 )
memory 2 gb

molecule MOL {
0 1

O	 0.623971	 1.347241	 -0.000777
C	 0.485107	 0.171416	 -0.000134
C	 1.606966	 -0.836201	 0.000174
O	 -0.695554	 -0.422406	 0.000602
C	 2.988788	 -0.202529	 -0.000115
H	 1.465110	 -1.474645	 -0.864821
H	 1.465209	 -1.474077	 0.865596
H	 3.131767	 0.419673	 -0.873407
H	 3.750876	 -0.972315	 0.000098
H	 3.131883	 0.420264	 0.872742
C	 -1.569751	 -0.158312	 1.088868
C	 -2.840644	 -0.942798	 0.861052
H	 -1.762449	 0.904181	 1.137049
H	 -1.084244	 -0.447990	 2.010113
H	 -3.317261	 -0.644973	 -0.064426
H	 -3.532034	 -0.763375	 1.675926
H	 -2.635228	 -2.004839	 0.813674

	symmetry c1
}
set optking {
	frozen_dihedral = ("
		11 4 2 3
	")
}

ee,wfn = optimize('scf', return_wfn=True)
oeprop( wfn, 'DIPOLE', 'QUADRUPOLE', 'MULLIKEN_CHARGES')
f=open( 'psi4out.xyz', 'w' )
f.write( "17  " )
f.write( str(ee) + "\n" )
f.write( MOL.save_string_xyz() )
f.close()
--------------------------------------------------------------------------

    Molecular point group: c1
  Charge       = 0
  Multiplicity = 1
  Basis Set: CC-PVTZ
  Basis Set:
  @DF-RHF Final Energy:  -345.02664785876300
    Total Energy =                       -345.0266478587626580
    Molecular point group: c1
  Basis Set: CC-PVTZ
  Basis Set:
  Basis Set: CC-PVTZ
  Basis Set:
  @DF-RHF Final Energy:  -345.02301738904282
    Total Energy =                       -345.0230173890431047
  Basis Set: CC-PVTZ
  Basis Set:
  Basis Set: CC-PVTZ
  Basis Set:
  @DF-RHF Final Energy:  -345.02708744031281
    Total Energy =                       -345.0270874403124139
  Basis Set: CC-PVTZ
  Basis Set:
  Basis Set: CC-PVTZ
  Basis Set:
  @DF-RHF Final Energy:  -345.02695194123243
    Total Energy =                       -345.0269519412329373
  Basis Set: CC-PVTZ
  Basis Set:
  Basis Set: CC-PVTZ
  Basis Set:
  @DF-RHF Final Energy:  -345.02745743125405
    Total Energy =                       -345.0274574312541063
  Basis Set: CC-PVTZ
  Basis Set:
  Basis Set: CC-PVTZ
  Basis Set:
  @DF-RHF Final Energy:  -345.02746710266939
    Total Energy =                       -345.0274671026695046
  Basis Set: CC-PVTZ
  Basis Set:
  Charge       = 0
  Multiplicity = 1
  Basis Set: CC-PVTZ
  Basis Set:

    Orbital Energies (a.u.)
    -----------------------

    Doubly Occupied:

       1A    -20.578880     2A    -20.541067     3A    -11.366065
       4A    -11.288308     5A    -11.238774     6A    -11.221129
       7A    -11.215743     8A     -1.462504     9A     -1.366738
      10A     -1.068205    11A     -1.034490    12A     -0.908327
      13A     -0.856484    14A     -0.771105    15A     -0.702377
      16A     -0.684659    17A     -0.662340    18A     -0.633906
      19A     -0.600168    20A     -0.564817    21A     -0.558082
      22A     -0.528540    23A     -0.523737    24A     -0.519306
      25A     -0.504269    26A     -0.495523    27A     -0.453268
      28A     -0.436419

  @DF-RHF Final Energy:  -345.02746776280702

   => Energetics <=

    Nuclear Repulsion Energy =            314.7857656930279404
    One-Electron Energy =               -1094.0560148373397169
    Two-Electron Energy =                 434.2427813815049831
    DFT Exchange-Correlation Energy =       0.0000000000000000
    Empirical Dispersion Energy =           0.0000000000000000
    PCM Polarization Energy =               0.0000000000000000
    EFP Energy =                            0.0000000000000000
    Total Energy =                       -345.0274677628067366
    Molecular point group: c1
  Basis Set: CC-PVTZ
  Basis Set:

  -Total Gradient:
     Atom            X                  Y                   Z
    ------   -----------------  -----------------  -----------------
       1       -0.000031250930    -0.000017887472    -0.000160563132
       2        0.001850209288    -0.001240696244    -0.006781520179
       3       -0.000524479795    -0.001067457677     0.005781630639
       4       -0.003478555280     0.008035543279    -0.001331668589
       5        0.000035439165    -0.000012869647    -0.000009246725
       6       -0.000015457114     0.000003909032    -0.000015183680
       7       -0.000025760429    -0.000002711484    -0.000003558070
       8        0.000006437125     0.000014366117    -0.000008138166
       9        0.000025532695     0.000002415816     0.000006462078
      10        0.000011984688     0.000004927352     0.000007699692
      11        0.002176479306    -0.005730208740     0.002510828384
      12        0.000002665559     0.000003974600    -0.000004787942
      13       -0.000011636472     0.000006584919    -0.000003557656
      14       -0.000018152041    -0.000004450022     0.000017305681
      15       -0.000009908261     0.000007863948    -0.000015483767
      16        0.000001185256     0.000002039600     0.000008216050
      17        0.000005267243    -0.000005343380     0.000001565382

  **** Optimization is complete! (in 7 steps) ****
    Final optimized geometry and variables:
    Molecular point group: c1

    Geometry (in Angstrom), charge = 0, multiplicity = 1:

    O            0.595076528482     1.468628932818     0.109261074386
    C            0.449411208562     0.333741701981    -0.175440421202
    C            1.557563276367    -0.681459909102    -0.270568716891
    O           -0.758543845511    -0.209488791279    -0.385714770591
    C            2.952468778332    -0.084368607156    -0.182293564092
    H            1.418909978455    -1.242950162194    -1.187512239102
    H            1.379056237184    -1.388259557224     0.535034121722
    H            3.128547561164     0.611174310849    -0.992606123385
    H            3.698826799896    -0.867430147702    -0.237878131956
    H            3.087709712003     0.453231473761     0.746277017759
    C           -1.706324616674    -0.110494833692     0.667269085360
    C           -2.999626200068    -0.732644508094     0.197110467394
    H           -1.843939158807     0.928783057171     0.930386809526
    H           -1.319265118000    -0.635198439488     1.534740350124
    H           -3.382162521592    -0.205048627403    -0.667118658840
    H           -3.739732346743    -0.683040877466     0.987224871336
    H           -2.851897330317    -1.770829438796    -0.071953856824

  Mulliken Charges: (a.u.)
   Center  Symbol    Alpha    Beta     Spin     Total
       1     O     4.18020  4.18020  0.00000 -0.36040
       2     C     2.80180  2.80180  0.00000  0.39641
       3     C     3.09665  3.09665  0.00000 -0.19330
       4     O     4.16975  4.16975  0.00000 -0.33950
       5     C     3.13922  3.13922  0.00000 -0.27844
       6     H     0.43885  0.43885  0.00000  0.12230
       7     H     0.44652  0.44652  0.00000  0.10696
       8     H     0.44871  0.44871  0.00000  0.10258
       9     H     0.45064  0.45064  0.00000  0.09873
      10     H     0.44712  0.44712  0.00000  0.10575
      11     C     2.97690  2.97690  0.00000  0.04621
      12     C     3.13482  3.13482  0.00000 -0.26964
      13     H     0.44665  0.44665  0.00000  0.10670
      14     H     0.46668  0.46668  0.00000  0.06664
      15     H     0.44781  0.44781  0.00000  0.10437
      16     H     0.45623  0.45623  0.00000  0.08753
      17     H     0.45146  0.45146  0.00000  0.09709

   Total alpha = 28.00000, Total beta = 28.00000, Total charge = -0.00000

*** Psi4 exiting successfully. Buy a developer a beer!
