  ==> Input File <==

--------------------------------------------------------------------------
set {
	reference rhf
	basis cc-pvtz
}

set_num_threads( 4 )
memory 2 gb

molecule MOL {
0 1

H	 -2.155056	 0.123199	 1.991968
O	 -1.752755	 0.972253	 1.979273
C	 -0.900077	 1.087428	 0.874820
C	 0.373173	 0.288352	 1.070022
H	 -1.389588	 0.773516	 -0.041677
H	 -0.655307	 2.135013	 0.773158
O	 1.172093	 0.457955	 -0.054438
H	 0.132403	 -0.766437	 1.212663
H	 0.883225	 0.630870	 1.967855
C	 2.395478	 -0.199028	 -0.000366
H	 2.505946	 -0.901710	 -0.823354
H	 3.174616	 0.545641	 -0.071768
H	 2.513730	 -0.742241	 0.934223

	symmetry c1
}
set optking {
	frozen_dihedral = ("
		4 7 10 13
	")
}

ee = optimize('scf')
oeprop('DIPOLE', 'QUADRUPOLE', 'MULLIKEN_CHARGES')
f=open( 'psi4out.xyz', 'w' )
f.write( "13  " )
f.write( str(ee) + "\n" )
f.write( MOL.save_string_xyz() )
f.close()
--------------------------------------------------------------------------

    Molecular point group: c1
  Charge       = 0
  Multiplicity = 1
  Basis Set: CC-PVTZ
  Basis Set:
  @DF-RHF Final Energy:  -268.05822318859219
    Total Energy =                       -268.0582231885921942
    Molecular point group: c1
  Basis Set: CC-PVTZ
  Basis Set:
  Basis Set: CC-PVTZ
  Basis Set:
  @DF-RHF Final Energy:  -268.05859854610475
    Total Energy =                       -268.0585985461048608
  Basis Set: CC-PVTZ
  Basis Set:
  Basis Set: CC-PVTZ
  Basis Set:
  @DF-RHF Final Energy:  -268.05869772088329
    Total Energy =                       -268.0586977208832877
  Basis Set: CC-PVTZ
  Basis Set:
  Charge       = 0
  Multiplicity = 1
  Basis Set: CC-PVTZ
  Basis Set:

    Orbital Energies (a.u.)
    -----------------------

    Doubly Occupied:

       1A    -20.552502     2A    -20.552402     3A    -11.269732
       4A    -11.267337     5A    -11.266878     6A     -1.387511
       7A     -1.368321     8A     -1.019368     9A     -0.914245
      10A     -0.842422    11A     -0.711080    12A     -0.673366
      13A     -0.660738    14A     -0.638161    15A     -0.598034
      16A     -0.570223    17A     -0.550417    18A     -0.491257
      19A     -0.483105    20A     -0.441065    21A     -0.418986

  @DF-RHF Final Energy:  -268.05869842511652

   => Energetics <=

    Nuclear Repulsion Energy =            190.1610598426406966
    One-Electron Energy =                -743.0852202170215151
    Two-Electron Energy =                 284.8654619492641586
    DFT Exchange-Correlation Energy =       0.0000000000000000
    Empirical Dispersion Energy =           0.0000000000000000
    PCM Polarization Energy =               0.0000000000000000
    EFP Energy =                            0.0000000000000000
    Total Energy =                       -268.0586984251166314
    Molecular point group: c1
  Basis Set: CC-PVTZ
  Basis Set:

  -Total Gradient:
     Atom            X                  Y                   Z
    ------   -----------------  -----------------  -----------------
       1        0.000003006662     0.000007491537    -0.000001976881
       2       -0.000056894081     0.000028496173     0.000048945055
       3       -0.000000354518    -0.000041993714     0.000026382807
       4       -0.000054339872    -0.000012676680    -0.000008524576
       5        0.000025312017     0.000008478494    -0.000003500467
       6       -0.000011511447    -0.000000711941     0.000000563953
       7        0.000142216399    -0.000101162835    -0.000011432778
       8       -0.000002704441     0.000012785184     0.000011546927
       9        0.000005503446     0.000003247574    -0.000039858961
      10        0.000003421925     0.000136984684    -0.000010934218
      11       -0.000020280189    -0.000014815962    -0.000002607702
      12        0.000021999185    -0.000005962719    -0.000003999447
      13       -0.000055375084    -0.000020159795    -0.000004603712

  **** Optimization is complete! (in 4 steps) ****
    Final optimized geometry and variables:
    Molecular point group: c1

    Geometry (in Angstrom), charge = 0, multiplicity = 1:

    H           -2.409872430615    -0.379441445219     1.188646729228
    O           -2.004762324780     0.468277493449     1.176579480162
    C           -1.140586808585     0.575863147042     0.080026870352
    C            0.128173272756    -0.225823954130     0.291965965616
    H           -1.621580867881     0.259126652300    -0.839979599952
    H           -0.891649182444     1.622213304946    -0.024234072142
    O            0.936332319639    -0.059437445756    -0.827676574869
    H           -0.119522993036    -1.278241229519     0.436519449375
    H            0.627553046687     0.120423402735     1.193630128527
    C            2.174393475921    -0.703311591788    -0.799821191666
    H            2.244111173878    -1.399068102512    -1.627917013249
    H            2.969443181980     0.027162217477    -0.892568593479
    H            2.322781513011    -1.254409112904     0.122639609426

  Mulliken Charges: (a.u.)
   Center  Symbol    Alpha    Beta     Spin     Total
       1     H     0.39418  0.39418  0.00000  0.21163
       2     O     4.20212  4.20212  0.00000 -0.40423
       3     C     2.97536  2.97536  0.00000  0.04928
       4     C     2.96486  2.96486  0.00000  0.07028
       5     H     0.46705  0.46705  0.00000  0.06591
       6     H     0.45289  0.45289  0.00000  0.09421
       7     O     4.18056  4.18056  0.00000 -0.36112
       8     H     0.48166  0.48166  0.00000  0.03669
       9     H     0.46948  0.46948  0.00000  0.06104
      10     C     3.02704  3.02704  0.00000 -0.05407
      11     H     0.45723  0.45723  0.00000  0.08553
      12     H     0.45622  0.45622  0.00000  0.08755
      13     H     0.47135  0.47135  0.00000  0.05730

   Total alpha = 21.00000, Total beta = 21.00000, Total charge =  0.00000
