                              Psi4 1.0.54 Driver

  ==> Input File <==

--------------------------------------------------------------------------
set {
	reference rhf
	basis cc-pvtz
}

set_num_threads( 4 )
memory 2 gb

molecule MOL {
0 1

O	 -2.071633	 -1.227563	 -0.223463
C	 -1.652164	 -0.152425	 0.058082
C	 -0.327811	 0.006324	 0.778296
C	 -2.402515	 1.108629	 -0.298924
C	 -0.000010	 1.486129	 1.010996
H	 -0.351093	 -0.518796	 1.727417
H	 0.437892	 -0.442838	 0.158787
C	 1.336468	 1.689240	 1.718669
H	 -0.788986	 1.949858	 1.597652
H	 0.012966	 1.993679	 0.052566
C	 1.672591	 3.159872	 1.940987
H	 1.319936	 1.173793	 2.674998
H	 2.123842	 1.223108	 1.133604
H	 0.920182	 3.645772	 2.553209
H	 1.727412	 3.694909	 0.999128
H	 2.627599	 3.271186	 2.440958
H	 -3.240910	 0.874416	 -0.936711
H	 -1.747554	 1.818823	 -0.790984
H	 -2.760419	 1.579708	 0.610998

	symmetry c1
}
set optking {
	frozen_dihedral = ("
		5 3 2 4
	")
}

ee,wfn = optimize('scf', return_wfn=True)
oeprop( wfn, 'DIPOLE', 'QUADRUPOLE', 'MULLIKEN_CHARGES')
f=open( 'psi4out.xyz', 'w' )
f.write( "19  " )
f.write( str(ee) + "\n" )
f.write( MOL.save_string_xyz() )
f.close()
--------------------------------------------------------------------------

    Molecular point group: c1
  Charge       = 0
  Multiplicity = 1
  Basis Set: CC-PVTZ
  Basis Set:
  @DF-RHF Final Energy:  -309.16881618967813
    Total Energy =                       -309.1688161896777842
    Molecular point group: c1
  Basis Set: CC-PVTZ
  Basis Set:
  Basis Set: CC-PVTZ
  Basis Set:
  @DF-RHF Final Energy:  -309.12184874367898
    Total Energy =                       -309.1218487436786404
  Basis Set: CC-PVTZ
  Basis Set:
  Basis Set: CC-PVTZ
  Basis Set:
  @DF-RHF Final Energy:  -309.17088055592990
    Total Energy =                       -309.1708805559297844
  Basis Set: CC-PVTZ
  Basis Set:
  Basis Set: CC-PVTZ
  Basis Set:
  @DF-RHF Final Energy:  -309.17416572554612
    Total Energy =                       -309.1741657255458904
  Basis Set: CC-PVTZ
  Basis Set:
  @DF-RHF Final Energy:  -309.17449564224597
    Total Energy =                       -309.1744956422463702
  @DF-RHF Final Energy:  -309.17403767606891
    Total Energy =                       -309.1740376760692470
  @DF-RHF Final Energy:  -309.17453208960836
    Total Energy =                       -309.1745320896083058
  Basis Set: CC-PVTZ
  Basis Set:
  @DF-RHF Final Energy:  -309.17454476390594
    Total Energy =                       -309.1745447639058284
  Basis Set: CC-PVTZ
  Basis Set:
  Basis Set: CC-PVTZ
  Basis Set:
  @DF-RHF Final Energy:  -309.17454919111691
    Total Energy =                       -309.1745491911168529
  Basis Set: CC-PVTZ
  Basis Set:
  Basis Set: CC-PVTZ
  Basis Set:
  @DF-RHF Final Energy:  -309.17455216560302
    Total Energy =                       -309.1745521656026767
  Basis Set: CC-PVTZ
  Basis Set:
  Charge       = 0
  Multiplicity = 1
  Basis Set: CC-PVTZ
  Basis Set:

    Orbital Energies (a.u.)
    -----------------------

    Doubly Occupied:

       1A    -20.534423     2A    -11.321084     3A    -11.229429
       4A    -11.228498     5A    -11.226541     6A    -11.224754
       7A    -11.215396     8A     -1.396268     9A     -1.095053
      10A     -1.028375    11A     -0.984100    12A     -0.896357
      13A     -0.810679    14A     -0.732637    15A     -0.663877
      16A     -0.649949    17A     -0.630111    18A     -0.613084
      19A     -0.587572    20A     -0.572636    21A     -0.553853
      22A     -0.529495    23A     -0.528654    24A     -0.491234
      25A     -0.487328    26A     -0.482833    27A     -0.469170
      28A     -0.398923

  @DF-RHF Final Energy:  -309.17455265023887

   => Energetics <=

    Nuclear Repulsion Energy =            301.2837910575492515
    One-Electron Energy =               -1015.7520619241881832
    Two-Electron Energy =                 405.2937182163998386
    DFT Exchange-Correlation Energy =       0.0000000000000000
    Empirical Dispersion Energy =           0.0000000000000000
    PCM Polarization Energy =               0.0000000000000000
    EFP Energy =                            0.0000000000000000
    Total Energy =                       -309.1745526502390931
    Molecular point group: c1
  Basis Set: CC-PVTZ
  Basis Set:

  -Total Gradient:
     Atom            X                  Y                   Z
    ------   -----------------  -----------------  -----------------
       1        0.000039737714     0.000082770115     0.000013992199
       2       -0.000098692273    -0.000125470992    -0.000031738584
       3        0.000027563281     0.000025785644    -0.000015750248
       4        0.000021732595    -0.000013904504    -0.000027802856
       5       -0.000003115183    -0.000004410599     0.000049571784
       6        0.000006720835     0.000013220788    -0.000004281503
       7       -0.000009018053    -0.000016312446    -0.000012173828
       8       -0.000007344442     0.000028125614    -0.000000492712
       9       -0.000005858982     0.000023528890     0.000006735369
      10       -0.000001745751    -0.000009627483     0.000002935195
      11        0.000015795827    -0.000015411483    -0.000008569280
      12       -0.000003391595    -0.000009125374     0.000004296761
      13        0.000014929168    -0.000010662742     0.000004065312
      14       -0.000008386574    -0.000000377594    -0.000001103938
      15       -0.000000347689     0.000014932201    -0.000008025808
      16        0.000008195868    -0.000001444995     0.000001405564
      17        0.000004830118    -0.000004476727     0.000002837963
      18       -0.000001458234     0.000010161831     0.000004388019
      19       -0.000000146633     0.000012699857     0.000019710591

  **** Optimization is complete! (in 11 steps) ****
    Final optimized geometry and variables:
    Molecular point group: c1

    Geometry (in Angstrom), charge = 0, multiplicity = 1:

    O           -2.024434461001    -1.614182160464    -1.009687139564
    C           -1.421449715542    -0.631129751042    -0.724079248039
    C           -0.077888645865    -0.762267468473    -0.017187085604
    C           -1.971550790409     0.736405481185    -1.053460969669
    C            0.682868082620     0.510663572280     0.342088962548
    H           -0.271034940569    -1.347595438674     0.875860311197
    H            0.530244446158    -1.394317403587    -0.656085557634
    C            2.005996362578     0.212217362824     1.043214012486
    H            0.076627880943     1.139110279788     0.987710154757
    H            0.882716438244     1.091849923394    -0.553181800405
    C            2.783890418977     1.471286234661     1.409762239266
    H            1.812638080594    -0.367226838025     1.941477366993
    H            2.617493056099    -0.416129026831     0.401903190629
    H            2.211549525595     2.104443961065     2.079484842995
    H            3.022536139745     2.055401672640     0.527225012452
    H            3.715957188192     1.224925487606     1.904505625508
    H           -2.923356545092     0.624908288883    -1.548908074018
    H           -1.286067376646     1.276962305026    -1.695819134067
    H           -2.095931986099     1.323024539519    -0.150556453562

  Mulliken Charges: (a.u.)
   Center  Symbol    Alpha    Beta     Spin     Total
       1     O     4.17709  4.17709  0.00000 -0.35418
       2     C     2.86107  2.86107  0.00000  0.27787
       3     C     3.09957  3.09957  0.00000 -0.19913
       4     C     3.16280  3.16280  0.00000 -0.32560
       5     C     3.09788  3.09788  0.00000 -0.19576
       6     H     0.43778  0.43778  0.00000  0.12444
       7     H     0.43778  0.43778  0.00000  0.12445
       8     C     3.08582  3.08582  0.00000 -0.17164
       9     H     0.45119  0.45119  0.00000  0.09762
      10     H     0.45121  0.45121  0.00000  0.09758
      11     C     3.14955  3.14955  0.00000 -0.29910
      12     H     0.45207  0.45207  0.00000  0.09585
      13     H     0.45209  0.45209  0.00000  0.09583
      14     H     0.45468  0.45468  0.00000  0.09064
      15     H     0.45468  0.45468  0.00000  0.09064
      16     H     0.44637  0.44637  0.00000  0.10727
      17     H     0.43196  0.43196  0.00000  0.13608
      18     H     0.44821  0.44821  0.00000  0.10358
      19     H     0.44822  0.44822  0.00000  0.10356

   Total alpha = 28.00000, Total beta = 28.00000, Total charge = -0.00000

*** Psi4 exiting successfully. Buy a developer a beer!
