  ==> Input File <==

--------------------------------------------------------------------------
set {
	reference rhf
	basis cc-pvtz
}

set_num_threads( 4 )
memory 2 gb

molecule MOL {
0 1

O	 1.847685	 1.294399	 -0.000190
C	 1.704209	 0.119472	 -0.000093
C	 0.380337	 -0.600947	 -0.000234
O	 2.715427	 -0.733672	 0.000025
C	 -0.824290	 0.329213	 -0.000115
H	 0.371455	 -1.255476	 -0.865660
H	 0.371410	 -1.255787	 0.864952
C	 -2.146151	 -0.432825	 -0.000068
H	 -0.773936	 0.979158	 -0.866319
H	 -0.773838	 0.979034	 0.866186
C	 -3.366283	 0.483552	 0.000557
H	 -2.189286	 -1.084450	 -0.869996
H	 -2.188867	 -1.085083	 0.869399
C	 -3.617273	 1.147812	 -1.348952
H	 -3.238712	 1.248798	 0.761005
H	 -4.243381	 -0.088558	 0.289607
H	 -2.770474	 1.755784	 -1.649843
H	 -4.489187	 1.790663	 -1.313707
H	 -3.783480	 0.407868	 -2.124898
C	 4.020999	 -0.192556	 0.000019
H	 4.182809	 0.412891	 -0.879449
H	 4.692590	 -1.035653	 0.000152
H	 4.182726	 0.413087	 0.879368

	symmetry c1
}
set optking {
	frozen_dihedral = ("
		15 11 8 12
	")
}

ee = optimize('scf')
oeprop('DIPOLE', 'QUADRUPOLE', 'MULLIKEN_CHARGES')
f=open( 'psi4out.xyz', 'w' )
f.write( "23  " )
f.write( str(ee) + "\n" )
f.write( MOL.save_string_xyz() )
f.close()
--------------------------------------------------------------------------

    Molecular point group: c1
  Charge       = 0
  Multiplicity = 1
  Basis Set: CC-PVTZ
  Basis Set:
  @DF-RHF Final Energy:  -423.12898891907150
    Total Energy =                       -423.1289889190715030
    Molecular point group: c1
  Basis Set: CC-PVTZ
  Basis Set:
  Basis Set: CC-PVTZ
  Basis Set:
  @DF-RHF Final Energy:  -423.12915009378565
    Total Energy =                       -423.1291500937852561
  Basis Set: CC-PVTZ
  Basis Set:
  Basis Set: CC-PVTZ
  Basis Set:
  @DF-RHF Final Energy:  -423.12918693355482
    Total Energy =                       -423.1291869335548199
  Basis Set: CC-PVTZ
  Basis Set:
  Basis Set: CC-PVTZ
  Basis Set:
  @DF-RHF Final Energy:  -423.12907246956178
    Total Energy =                       -423.1290724695622885
  Basis Set: CC-PVTZ
  Basis Set:
  Basis Set: CC-PVTZ
  Basis Set:
  @DF-RHF Final Energy:  -423.12919291574184
    Total Energy =                       -423.1291929157412142
  Basis Set: CC-PVTZ
  Basis Set:
  Charge       = 0
  Multiplicity = 1
  Basis Set: CC-PVTZ
  Basis Set:

    Orbital Energies (a.u.)
    -----------------------

    Doubly Occupied:

       1A    -20.596308     2A    -20.534132     3A    -11.364559
       4A    -11.278479     5A    -11.233696     6A    -11.216829
       7A    -11.215977     8A    -11.214776     9A    -11.206489
      10A     -1.472199    11A     -1.365763    12A     -1.094228
      13A     -1.043301    14A     -0.986451    15A     -0.931926
      16A     -0.853869    17A     -0.786572    18A     -0.769275
      19A     -0.698878    20A     -0.686550    21A     -0.676041
      22A     -0.643986    23A     -0.617316    24A     -0.597978
      25A     -0.588851    26A     -0.563358    27A     -0.534250
      28A     -0.529732    29A     -0.522815    30A     -0.511594
      31A     -0.491520    32A     -0.468148    33A     -0.463699
      34A     -0.461641    35A     -0.456916    36A     -0.438453

  @DF-RHF Final Energy:  -423.12919321022378

   => Energetics <=

    Nuclear Repulsion Energy =            457.3055670923206435
    One-Electron Energy =               -1482.6364076539819052
    Two-Electron Energy =                 602.2016473514373729
    DFT Exchange-Correlation Energy =       0.0000000000000000
    Empirical Dispersion Energy =           0.0000000000000000
    PCM Polarization Energy =               0.0000000000000000
    EFP Energy =                            0.0000000000000000
    Total Energy =                       -423.1291932102238889
    Molecular point group: c1
  Basis Set: CC-PVTZ
  Basis Set:

  -Total Gradient:
     Atom            X                  Y                   Z
    ------   -----------------  -----------------  -----------------
       1       -0.000002280843    -0.000000506016     0.000000953905
       2        0.000005776925     0.000003765888     0.000026620949
       3       -0.000008315085    -0.000001898481    -0.000035091928
       4       -0.000000453991    -0.000003064437    -0.000016342693
       5       -0.000016084203    -0.000005148207     0.000006696044
       6       -0.000000709024    -0.000003421719     0.000014028445
       7        0.000005405359     0.000000483548     0.000012713843
       8       -0.000735336140    -0.001032115152     0.000728359053
       9        0.000000446689     0.000003839599    -0.000002473223
      10       -0.000001477095     0.000004024688    -0.000003404624
      11       -0.000623435393    -0.000837413391     0.001030121299
      12        0.000720269218     0.001003972106    -0.000790402368
      13        0.000000503316     0.000003800598     0.000000283212
      14        0.000009060231    -0.000019033251     0.000013443252
      15        0.000646253061     0.000882494781    -0.000983273583
      16        0.000002993294    -0.000001286007    -0.000004688853
      17       -0.000001743979     0.000001223100    -0.000001318556
      18       -0.000003900970     0.000001380504     0.000004119330
      19        0.000002464343    -0.000001574284    -0.000002893919
      20        0.000001757578     0.000001220349     0.000002483900
      21       -0.000000486947    -0.000000394955     0.000000221368
      22       -0.000000573116    -0.000000312398    -0.000000107389
      23       -0.000000133227    -0.000000036863    -0.000000047464

  **** Optimization is complete! (in 6 steps) ****
    Final optimized geometry and variables:
    Molecular point group: c1

    Geometry (in Angstrom), charge = 0, multiplicity = 1:

    O            1.739251278910     1.126612802822     0.142248434578
    C            1.589421344030    -0.047521071274     0.154602116344
    C            0.261713728109    -0.760797286712     0.153925227897
    O            2.596112432182    -0.905883697482     0.170185962840
    C           -0.937666879189     0.176355498296     0.145084589893
    H            0.252407262601    -1.419186338663    -0.708609548342
    H            0.246334880466    -1.411647780273     1.022004737213
    C           -2.262062373708    -0.585574023893     0.147850087225
    H           -0.872616861691     0.822822088477    -0.720946693550
    H           -0.888738832155     0.826615822766     1.011313295284
    C           -3.498788559965     0.316385875283     0.152424207012
    H           -2.299227403917    -1.237089436042    -0.722439114980
    H           -2.292596001228    -1.232510199652     1.020070590078
    C           -3.787197116838     0.988228869598    -1.188445974485
    H           -3.379171785260     1.082860881897     0.913041243941
    H           -4.363199049741    -0.273204758384     0.439875728885
    H           -2.976015267066     1.635735749150    -1.499244257252
    H           -4.683587792354     1.594976363012    -1.130452998584
    H           -3.939098206597     0.249400748287    -1.968642869309
    C            3.904472671827    -0.371739685074     0.171606543614
    H            4.074629966150     0.222860764151    -0.713685089569
    H            4.571580588682    -1.218300510175     0.185114407628
    H            4.064506227188     0.242955093036     1.044978687487

  Mulliken Charges: (a.u.)
   Center  Symbol    Alpha    Beta     Spin     Total
       1     O     4.19718  4.19718  0.00000 -0.39437
       2     C     2.80618  2.80618  0.00000  0.38765
       3     C     3.10146  3.10146  0.00000 -0.20291
       4     O     4.14643  4.14643  0.00000 -0.29285
       5     C     3.08559  3.08559  0.00000 -0.17119
       6     H     0.43995  0.43995  0.00000  0.12011
       7     H     0.43950  0.43950  0.00000  0.12100
       8     C     3.09720  3.09720  0.00000 -0.19439
       9     H     0.44516  0.44516  0.00000  0.10968
      10     H     0.44643  0.44643  0.00000  0.10713
      11     C     3.09025  3.09025  0.00000 -0.18050
      12     H     0.45585  0.45585  0.00000  0.08830
      13     H     0.44928  0.44928  0.00000  0.10144
      14     C     3.15045  3.15045  0.00000 -0.30090
      15     H     0.45420  0.45420  0.00000  0.09160
      16     H     0.44774  0.44774  0.00000  0.10452
      17     H     0.45254  0.45254  0.00000  0.09492
      18     H     0.44692  0.44692  0.00000  0.10615
      19     H     0.45589  0.45589  0.00000  0.08823
      20     C     3.03776  3.03776  0.00000 -0.07552
      21     H     0.45434  0.45434  0.00000  0.09131
      22     H     0.44533  0.44533  0.00000  0.10933
      23     H     0.45437  0.45437  0.00000  0.09127

   Total alpha = 36.00000, Total beta = 36.00000, Total charge = -0.00000
