  ==> Input File <==

--------------------------------------------------------------------------
set {
	reference rhf
	basis 6-31G*
}

set_num_threads( 4 )
memory 2 gb

molecule MOL {
0 1

O	 1.205530	 1.294918	 -0.173040
C	 1.122059	 0.121804	 -0.000188
C	 -0.157138	 -0.641014	 0.244062
O	 2.172624	 -0.688929	 0.000216
C	 -1.398915	 0.245116	 0.254321
H	 -0.228092	 -1.409323	 -0.521065
H	 -0.044158	 -1.171415	 1.185691
C	 -2.680066	 -0.552195	 0.503945
H	 -1.471478	 0.771381	 -0.692402
H	 -1.287054	 1.009983	 1.016535
C	 -3.929016	 0.328120	 0.517103
H	 -2.786859	 -1.317641	 -0.262060
H	 -2.600967	 -1.079548	 1.452478
H	 -4.055072	 0.842951	 -0.430902
H	 -4.822859	 -0.261346	 0.695569
H	 -3.868124	 1.082330	 1.296269
C	 3.452279	 -0.082609	 0.000533
H	 3.583069	 0.529321	 -0.880332
H	 4.163299	 -0.894027	 0.001117
H	 3.582335	 0.529955	 0.881077

	symmetry c1
}
set optking {
	frozen_dihedral = ("
		1 2 4 17
	")
}

ee = optimize('scf')
oeprop('DIPOLE', 'QUADRUPOLE', 'MULLIKEN_CHARGES')
f=open( 'psi4out.xyz', 'w' )
f.write( "20  " )
f.write( str(ee) + "\n" )
f.write( MOL.save_string_xyz() )
f.close()
--------------------------------------------------------------------------

    Molecular point group: c1
  Charge       = 0
  Multiplicity = 1
  Basis Set: 6-31G*
  Basis Set:
  @DF-RHF Final Energy:  -383.94093798135845
    Total Energy =                       -383.9409379813581609
    Molecular point group: c1
  Basis Set: 6-31G*
  Basis Set:
  Basis Set: 6-31G*
  Basis Set:
  @DF-RHF Final Energy:  -383.93948668391101
    Total Energy =                       -383.9394866839114684
  Basis Set: 6-31G*
  Basis Set:
  Basis Set: 6-31G*
  Basis Set:
  @DF-RHF Final Energy:  -383.94101434405360
    Total Energy =                       -383.9410143440534284
  Basis Set: 6-31G*
  Basis Set:
  Basis Set: 6-31G*
  Basis Set:
  @DF-RHF Final Energy:  -383.94102241195679
    Total Energy =                       -383.9410224119570785
  Basis Set: 6-31G*
  Basis Set:
  @DF-RHF Final Energy:  -383.94102464343490
    Total Energy =                       -383.9410246434354121
  Basis Set: 6-31G*
  Basis Set:
  @DF-RHF Final Energy:  -383.94060601353175
    Total Energy =                       -383.9406060135318057
  Basis Set: 6-31G*
  Basis Set:
  Basis Set: 6-31G*
  Basis Set:
  @DF-RHF Final Energy:  -383.94101343145820
    Total Energy =                       -383.9410134314581455
  Basis Set: 6-31G*
  Basis Set:
  Basis Set: 6-31G*
  Basis Set:
  @DF-RHF Final Energy:  -383.94102561061464
    Total Energy =                       -383.9410256106145880
  Basis Set: 6-31G*
  Basis Set:
  Charge       = 0
  Multiplicity = 1
  Basis Set: 6-31G*
  Basis Set:

    Orbital Energies (a.u.)
    -----------------------

    Doubly Occupied:

       1A    -20.603280     2A    -20.545834     3A    -11.372498
       4A    -11.281213     5A    -11.235751     6A    -11.220367
       7A    -11.219377     8A    -11.210690     9A     -1.469156
      10A     -1.363041    11A     -1.088776    12A     -1.024345
      13A     -0.969156    14A     -0.886076    15A     -0.804096
      16A     -0.767585    17A     -0.696762    18A     -0.683559
      19A     -0.672056    20A     -0.646059    21A     -0.597850
      22A     -0.592162    23A     -0.579020    24A     -0.540023
      25A     -0.536991    26A     -0.522716    27A     -0.500801
      28A     -0.478307    29A     -0.473584    30A     -0.470606
      31A     -0.455650    32A     -0.436904

  @DF-RHF Final Energy:  -383.94102589014733

   => Energetics <=

    Nuclear Repulsion Energy =            381.0424007013855316
    One-Electron Energy =               -1278.0782681382406736
    Two-Electron Energy =                 513.0948415467076984
    DFT Exchange-Correlation Energy =       0.0000000000000000
    Empirical Dispersion Energy =           0.0000000000000000
    PCM Polarization Energy =               0.0000000000000000
    EFP Energy =                            0.0000000000000000
    Total Energy =                       -383.9410258901474435
    Molecular point group: c1
  Basis Set: 6-31G*
  Basis Set:

  -Total Gradient:
     Atom            X                  Y                   Z
    ------   -----------------  -----------------  -----------------
       1       -0.000484805707    -0.000443494675    -0.003474582222
       2        0.000814875861     0.000562905793     0.006544899371
       3        0.000056616271     0.000001215586    -0.000058085268
       4       -0.000452027526    -0.000042989768    -0.005756039743
       5        0.000006144465     0.000001968439     0.000023920887
       6       -0.000018003115    -0.000005860782    -0.000015922512
       7        0.000018287432     0.000000822770    -0.000011058658
       8       -0.000002408009    -0.000000420811    -0.000010951425
       9       -0.000002666479     0.000001238307    -0.000004212921
      10        0.000001390742    -0.000003083473    -0.000007034887
      11       -0.000002126306    -0.000000475340     0.000002324556
      12       -0.000004187854    -0.000001561616     0.000000287239
      13        0.000004244697     0.000001662428    -0.000001417839
      14       -0.000000125674    -0.000000558475     0.000000286432
      15       -0.000000822267     0.000000974103     0.000001003224
      16        0.000000121078    -0.000000048051    -0.000000690602
      17        0.000056983216    -0.000087041974     0.002948120490
      18       -0.000021676892     0.000027734518    -0.000059939481
      19        0.000001275038    -0.000008250212    -0.000044739454
      20        0.000028911022    -0.000004736773    -0.000076167187

  **** Optimization is complete! (in 9 steps) ****
    Final optimized geometry and variables:
    Molecular point group: c1

    Geometry (in Angstrom), charge = 0, multiplicity = 1:

    O            1.202996732983     1.294527104343    -0.261183611599
    C            1.116057561544     0.116575267643    -0.129179873522
    C           -0.164672102366    -0.649578129949     0.094672384940
    O            2.160301279940    -0.700744930279    -0.193547568747
    C           -1.408839893631     0.233195448753     0.088243549796
    H           -0.222255201709    -1.418919331712    -0.670192660535
    H           -0.063596180158    -1.178723315876     1.038728132271
    C           -2.690961081403    -0.567121577397     0.322788758626
    H           -1.471103388196     0.757674249855    -0.860372467421
    H           -1.308409759530     0.999585484999     0.850333645024
    C           -3.942390199513     0.309748756608     0.317821637972
    H           -2.785715489214    -1.334584714381    -0.442751769014
    H           -2.622708915168    -1.092094458919     1.273500959088
    H           -4.057859869446     0.821692502674    -0.633092480980
    H           -4.836811717143    -0.281719312463     0.486536841842
    H           -3.893385244344     1.066198215969     1.095664402287
    C            3.443895099484    -0.102993231341    -0.213120232031
    H            3.570881477414     0.500129685611    -1.100430551710
    H            4.149781209258    -0.918898737365    -0.211841610866
    H            3.586342856003     0.516478089517     0.660953153920

  Mulliken Charges: (a.u.)
   Center  Symbol    Alpha    Beta     Spin     Total
       1     O     4.28522  4.28522  0.00000 -0.57044
       2     C     2.60520  2.60520  0.00000  0.78961
       3     C     3.20841  3.20841  0.00000 -0.41681
       4     O     4.30744  4.30744  0.00000 -0.61487
       5     C     3.15115  3.15115  0.00000 -0.30230
       6     H     0.40005  0.40005  0.00000  0.19990
       7     H     0.40135  0.40135  0.00000  0.19731
       8     C     3.15423  3.15423  0.00000 -0.30846
       9     H     0.41234  0.41234  0.00000  0.17533
      10     H     0.41156  0.41156  0.00000  0.17687
      11     C     3.23931  3.23931  0.00000 -0.47862
      12     H     0.42286  0.42286  0.00000  0.15427
      13     H     0.42305  0.42305  0.00000  0.15391
      14     H     0.41995  0.41995  0.00000  0.16010
      15     H     0.41874  0.41874  0.00000  0.16253
      16     H     0.41997  0.41997  0.00000  0.16007
      17     C     3.09254  3.09254  0.00000 -0.18509
      18     H     0.40758  0.40758  0.00000  0.18483
      19     H     0.40830  0.40830  0.00000  0.18340
      20     H     0.41076  0.41076  0.00000  0.17848

   Total alpha = 32.00000, Total beta = 32.00000, Total charge =  0.00000
