  ==> Input File <==

--------------------------------------------------------------------------
set {
	reference rhf
	basis 6-31G*
}

set_num_threads( 4 )
memory 2 gb

molecule MOL {
0 1

H	 0.134948	 -3.362005	 1.111715
O	 0.666797	 -2.619832	 0.841400
C	 -0.138576	 -1.569521	 0.684433
C	 0.624473	 -0.343591	 0.253101
O	 -1.309402	 -1.637948	 0.872843
C	 -0.265902	 0.883932	 0.072916
H	 1.402601	 -0.178692	 0.991138
H	 1.139744	 -0.593966	 -0.670782
C	 -1.728698	 0.646073	 0.462102
H	 -0.209144	 1.219470	 -0.958188
H	 0.135059	 1.692851	 0.673903
C	 -2.482460	 -0.343073	 -0.431425
H	 -2.245265	 1.602650	 0.432430
H	 -1.779332	 0.308348	 1.496285
C	 -3.960546	 -0.461025	 -0.060175
H	 -2.395034	 -0.026811	 -1.468912
H	 -2.024850	 -1.327147	 -0.371646
H	 -4.472726	 -1.168004	 -0.705284
H	 -4.465146	 0.496508	 -0.151489
H	 -4.081218	 -0.800940	 0.964585

	symmetry c1
}
set optking {
	frozen_dihedral = ("
		7 4 6 10
	")
}

ee = optimize('scf')
oeprop('DIPOLE', 'QUADRUPOLE', 'MULLIKEN_CHARGES')
f=open( 'psi4out.xyz', 'w' )
f.write( "20  " )
f.write( str(ee) + "\n" )
f.write( MOL.save_string_xyz() )
f.close()
--------------------------------------------------------------------------

    Molecular point group: c1
  Charge       = 0
  Multiplicity = 1
  Basis Set: 6-31G*
  Basis Set:
  @DF-RHF Final Energy:  -383.85683296878113
    Total Energy =                       -383.8568329687810774
    Molecular point group: c1
  Basis Set: 6-31G*
  Basis Set:
  Basis Set: 6-31G*
  Basis Set:
  @DF-RHF Final Energy:  -383.89440572305296
    Total Energy =                       -383.8944057230530689
  Basis Set: 6-31G*
  Basis Set:
  Basis Set: 6-31G*
  Basis Set:
  @DF-RHF Final Energy:  -383.91255283264229
    Total Energy =                       -383.9125528326422909
  Basis Set: 6-31G*
  Basis Set:
  Basis Set: 6-31G*
  Basis Set:
  @DF-RHF Final Energy:  -383.92353411245733
    Total Energy =                       -383.9235341124568777
  Basis Set: 6-31G*
  Basis Set:
  @DF-RHF Final Energy:  -383.93002352214154
    Total Energy =                       -383.9300235221415960
  @DF-RHF Final Energy:  -383.92978308463546
    Total Energy =                       -383.9297830846353463
  @DF-RHF Final Energy:  -383.93424718889992
    Total Energy =                       -383.9342471888998034
  @DF-RHF Final Energy:  -383.93486379730382
    Total Energy =                       -383.9348637973038194
  @DF-RHF Final Energy:  -383.93519347196190
    Total Energy =                       -383.9351934719618384
  @DF-RHF Final Energy:  -383.93541471513919
    Total Energy =                       -383.9354147151386769
  @DF-RHF Final Energy:  -383.93560648890860
    Total Energy =                       -383.9356064889080926
  @DF-RHF Final Energy:  -383.93569807206916
    Total Energy =                       -383.9356980720688171
  @DF-RHF Final Energy:  -383.93582820978014
    Total Energy =                       -383.9358282097798565
  @DF-RHF Final Energy:  -383.93596985425143
    Total Energy =                       -383.9359698542518800
  @DF-RHF Final Energy:  -383.93603545147215
    Total Energy =                       -383.9360354514722076
  @DF-RHF Final Energy:  -383.93605668595802
    Total Energy =                       -383.9360566859578512
  @DF-RHF Final Energy:  -383.93610036374412
    Total Energy =                       -383.9361003637438898
  @DF-RHF Final Energy:  -383.93613980077680
    Total Energy =                       -383.9361398007768003
  @DF-RHF Final Energy:  -383.93625456382460
    Total Energy =                       -383.9362545638246047
  @DF-RHF Final Energy:  -383.93660115016098
    Total Energy =                       -383.9366011501610956
  @DF-RHF Final Energy:  -383.93500619430222
    Total Energy =                       -383.9350061943021046
  @DF-RHF Final Energy:  -383.92187999292906
    Total Energy =                       -383.9218799929285524
  @DF-RHF Final Energy:  -383.93652749048596
    Total Energy =                       -383.9365274904856733
  @DF-RHF Final Energy:  -383.93725618765984
    Total Energy =                       -383.9372561876599548
  @DF-RHF Final Energy:  -383.93754487473319
    Total Energy =                       -383.9375448747331347
  @DF-RHF Final Energy:  -383.93771433829932
    Total Energy =                       -383.9377143382990880
  @DF-RHF Final Energy:  -383.93780895605789
    Total Energy =                       -383.9378089560577791
  @DF-RHF Final Energy:  -383.93783123244145
    Total Energy =                       -383.9378312324412263
  @DF-RHF Final Energy:  -383.93784116051819
    Total Energy =                       -383.9378411605180190
  Basis Set: 6-31G*
  Basis Set:
  @DF-RHF Final Energy:  -383.93784901268742
    Total Energy =                       -383.9378490126871384
  Basis Set: 6-31G*
  Basis Set:
  Basis Set: 6-31G*
  Basis Set:
  @DF-RHF Final Energy:  -383.93786709954236
    Total Energy =                       -383.9378670995420180
  Basis Set: 6-31G*
  Basis Set:
  Basis Set: 6-31G*
  Basis Set:
  @DF-RHF Final Energy:  -383.93789085264490
    Total Energy =                       -383.9378908526450687
  Basis Set: 6-31G*
  Basis Set:
  Charge       = 0
  Multiplicity = 1
  Basis Set: 6-31G*
  Basis Set:

    Orbital Energies (a.u.)
    -----------------------

    Doubly Occupied:

       1A    -20.615310     2A    -20.549405     3A    -11.382115
       4A    -11.240043     5A    -11.232521     6A    -11.216223
       7A    -11.215168     8A    -11.207826     9A     -1.475699
      10A     -1.365115    11A     -1.091028    12A     -1.036516
      13A     -0.959004    14A     -0.871749    15A     -0.814070
      16A     -0.782196    17A     -0.702783    18A     -0.679069
      19A     -0.656707    20A     -0.631577    21A     -0.608738
      22A     -0.589944    23A     -0.573408    24A     -0.557474
      25A     -0.541791    26A     -0.506184    27A     -0.499901
      28A     -0.479042    29A     -0.470167    30A     -0.462605
      31A     -0.454215    32A     -0.435306

  @DF-RHF Final Energy:  -383.93789144395919

   => Energetics <=

    Nuclear Repulsion Energy =            394.4272082576518414
    One-Electron Energy =               -1304.9243975625629446
    Two-Electron Energy =                 526.5592978609522561
    DFT Exchange-Correlation Energy =       0.0000000000000000
    Empirical Dispersion Energy =           0.0000000000000000
    PCM Polarization Energy =               0.0000000000000000
    EFP Energy =                            0.0000000000000000
    Total Energy =                       -383.9378914439588470
    Molecular point group: c1
  Basis Set: 6-31G*
  Basis Set:

  -Total Gradient:
     Atom            X                  Y                   Z
    ------   -----------------  -----------------  -----------------
       1       -0.000001671966    -0.000019769072    -0.000004021562
       2       -0.000008541798    -0.000037844653    -0.000035379415
       3        0.000083003898     0.000097904437     0.000252730102
       4        0.000252982693     0.000106666601    -0.000474727294
       5       -0.000013853575    -0.000058342237    -0.000177594842
       6        0.000275812901     0.000327498888     0.000093997136
       7       -0.000324589493    -0.000156651250     0.000381327981
       8        0.000007840335     0.000003261567    -0.000017678617
       9        0.000047296759     0.000043278379     0.000024285591
      10       -0.000348389904    -0.000325302466    -0.000112739210
      11        0.000024617305     0.000022027238     0.000015305996
      12        0.000057042248    -0.000051911419     0.000040783538
      13       -0.000010033077    -0.000007775911     0.000023398832
      14       -0.000003942887     0.000004758448     0.000000828037
      15       -0.000002692519     0.000008646073    -0.000026166855
      16        0.000020836098    -0.000003931298    -0.000001118239
      17       -0.000047598426     0.000048528860     0.000012587433
      18       -0.000004774647     0.000001886604     0.000000816008
      19       -0.000000268834    -0.000001221577     0.000004429509
      20       -0.000003075114    -0.000001707207    -0.000001064135

  **** Optimization is complete! (in 33 steps) ****
    Final optimized geometry and variables:
    Molecular point group: c1

    Geometry (in Angstrom), charge = 0, multiplicity = 1:

    H            0.825825251668    -2.656473144755     0.233041436266
    O            1.206068569414    -1.912009793698    -0.223791608781
    C            1.095489610257    -0.845037898710     0.566128016625
    C            1.698223870595     0.399512675534    -0.038657011558
    O            0.594066129482    -0.911982989718     1.642337897759
    C            0.712606520846     1.563336628308    -0.370899926736
    H            2.411663884677     0.745567811119     0.700378818410
    H            2.255441540958     0.115563297527    -0.920236465798
    C           -0.774438677300     1.377553670319    -0.039141478949
    H            0.799710886304     1.779995335088    -1.430949963229
    H            1.067026102580     2.447438402150     0.146362566293
    C           -1.519646323530     0.430445959344    -0.984785156905
    H           -1.243860408828     2.356784580782    -0.101096898972
    H           -0.889601955281     1.046015211120     0.986401459685
    C           -2.992296519332     0.268532679865    -0.609870791556
    H           -1.444482739955     0.813686886638    -2.000548480357
    H           -1.047721685434    -0.547572894949    -0.998597254895
    H           -3.504953876510    -0.389499227105    -1.304726396424
    H           -3.506733496322     1.225414322071    -0.619903114694
    H           -3.096869954107    -0.152609153095     0.385596339471

  Mulliken Charges: (a.u.)
   Center  Symbol    Alpha    Beta     Spin     Total
       1     H     0.26840  0.26840  0.00000  0.46319
       2     O     4.34829  4.34829  0.00000 -0.69657
       3     C     2.62918  2.62918  0.00000  0.74164
       4     C     3.20888  3.20888  0.00000 -0.41776
       5     O     4.27950  4.27950  0.00000 -0.55901
       6     C     3.15631  3.15631  0.00000 -0.31262
       7     H     0.39659  0.39659  0.00000  0.20683
       8     H     0.39712  0.39712  0.00000  0.20576
       9     C     3.16736  3.16736  0.00000 -0.33472
      10     H     0.41510  0.41510  0.00000  0.16981
      11     H     0.41191  0.41191  0.00000  0.17618
      12     C     3.15711  3.15711  0.00000 -0.31422
      13     H     0.42034  0.42034  0.00000  0.15931
      14     H     0.40095  0.40095  0.00000  0.19810
      15     C     3.24009  3.24009  0.00000 -0.48018
      16     H     0.42372  0.42372  0.00000  0.15255
      17     H     0.42011  0.42011  0.00000  0.15978
      18     H     0.41970  0.41970  0.00000  0.16060
      19     H     0.42196  0.42196  0.00000  0.15608
      20     H     0.41738  0.41738  0.00000  0.16525

   Total alpha = 32.00000, Total beta = 32.00000, Total charge =  0.00000
