                              Psi4 1.0.54 Driver

  ==> Input File <==

--------------------------------------------------------------------------
set {
	reference rhf
	basis cc-pvtz
}

set_num_threads( 4 )
memory 2 gb

molecule MOL {
0 1

O	 1.208244	 1.374267	 -0.293534
C	 0.860843	 0.273204	 -0.013120
C	 -0.623368	 -0.117453	 -0.005652
C	 1.896768	 -0.771412	 0.352474
C	 -0.892588	 -1.253841	 -1.002900
C	 -1.473463	 1.100646	 -0.372896
C	 -0.981836	 -0.579025	 1.418506
H	 -0.609333	 -0.970024	 -2.010649
H	 -1.950451	 -1.487353	 -1.013175
H	 -0.360848	 -2.161259	 -0.746463
H	 -1.232203	 1.461623	 -1.364827
H	 -2.524364	 0.834451	 -0.354500
H	 -1.312381	 1.914833	 0.318657
H	 -2.035706	 -0.826342	 1.468082
H	 -0.425078	 -1.458934	 1.716857
H	 -0.788494	 0.205047	 2.140903
H	 2.060352	 -1.423605	 -0.498202
H	 2.823725	 -0.272566	 0.589903
H	 1.586831	 -1.390532	 1.183053

	symmetry c1
}
set optking {
	frozen_dihedral = ("
		1 2 3 5
	")
}

ee,wfn = optimize('scf', return_wfn=True)
oeprop( wfn, 'DIPOLE', 'QUADRUPOLE', 'MULLIKEN_CHARGES')
f=open( 'psi4out.xyz', 'w' )
f.write( "19  " )
f.write( str(ee) + "\n" )
f.write( MOL.save_string_xyz() )
f.close()
--------------------------------------------------------------------------

    Molecular point group: c1
  Charge       = 0
  Multiplicity = 1
  Basis Set: CC-PVTZ
  Basis Set:
  @DF-RHF Final Energy:  -309.17328561012442
    Total Energy =                       -309.1732856101240827
    Molecular point group: c1
  Basis Set: CC-PVTZ
  Basis Set:
  Basis Set: CC-PVTZ
  Basis Set:
  @DF-RHF Final Energy:  -309.17186575931294
    Total Energy =                       -309.1718657593129365
  Basis Set: CC-PVTZ
  Basis Set:
  Basis Set: CC-PVTZ
  Basis Set:
  @DF-RHF Final Energy:  -309.17290716139377
    Total Energy =                       -309.1729071613937663
  Basis Set: CC-PVTZ
  Basis Set:
  Basis Set: CC-PVTZ
  Basis Set:
  @DF-RHF Final Energy:  -309.17387252183102
    Total Energy =                       -309.1738725218306172
  Basis Set: CC-PVTZ
  Basis Set:
  @DF-RHF Final Energy:  -309.17388870278143
    Total Energy =                       -309.1738887027813689
  Basis Set: CC-PVTZ
  Basis Set:
  @DF-RHF Final Energy:  -309.17390120455963
    Total Energy =                       -309.1739012045600248
  Basis Set: CC-PVTZ
  Basis Set:
  Basis Set: CC-PVTZ
  Basis Set:
  @DF-RHF Final Energy:  -309.17390477460276
    Total Energy =                       -309.1739047746025904
  Basis Set: CC-PVTZ
  Basis Set:
  Basis Set: CC-PVTZ
  Basis Set:
  @DF-RHF Final Energy:  -309.17390869423974
    Total Energy =                       -309.1739086942392305
  Basis Set: CC-PVTZ
  Basis Set:
  Charge       = 0
  Multiplicity = 1
  Basis Set: CC-PVTZ
  Basis Set:

    Orbital Energies (a.u.)
    -----------------------

    Doubly Occupied:

       1A    -20.537637     2A    -11.317722     3A    -11.245789
       4A    -11.224694     5A    -11.222704     6A    -11.222473
       7A    -11.205667     8A     -1.398611     9A     -1.110757
      10A     -1.002567    11A     -0.948466    12A     -0.935228
      13A     -0.835909    14A     -0.705410    15A     -0.666783
      16A     -0.633480    17A     -0.620570    18A     -0.600826
      19A     -0.594894    20A     -0.566102    21A     -0.546169
      22A     -0.544197    23A     -0.523189    24A     -0.514149
      25A     -0.501442    26A     -0.471613    27A     -0.470279
      28A     -0.395142

  @DF-RHF Final Energy:  -309.17390961928248

   => Energetics <=

    Nuclear Repulsion Energy =            326.8149516072687106
    One-Electron Energy =               -1066.8527875835102350
    Two-Electron Energy =                 430.8639263569592686
    DFT Exchange-Correlation Energy =       0.0000000000000000
    Empirical Dispersion Energy =           0.0000000000000000
    PCM Polarization Energy =               0.0000000000000000
    EFP Energy =                            0.0000000000000000
    Total Energy =                       -309.1739096192821989
    Molecular point group: c1
  Basis Set: CC-PVTZ
  Basis Set:

  -Total Gradient:
     Atom            X                  Y                   Z
    ------   -----------------  -----------------  -----------------
       1        0.000019399518    -0.000371389154    -0.001199136941
       2       -0.000057732043     0.000743788245     0.001578801198
       3        0.000283274280    -0.000900926715     0.000358861524
       4        0.000026316995     0.000010941739    -0.000131280436
       5       -0.000210394338     0.000555444460    -0.000635076031
       6        0.000006412629    -0.000027166201    -0.000028997151
       7       -0.000005125283    -0.000009887167    -0.000021059534
       8       -0.000004783924     0.000010413177    -0.000028063651
       9       -0.000018053918    -0.000006000418     0.000005216833
      10        0.000017284391    -0.000005168977     0.000006017752
      11       -0.000009827286    -0.000008565865     0.000001416441
      12       -0.000009148497     0.000004246949     0.000024420123
      13        0.000012211452     0.000019121658     0.000004682763
      14       -0.000004356456     0.000000810278     0.000004282354
      15       -0.000002821661     0.000001611900    -0.000009123652
      16        0.000001442276     0.000000901626    -0.000006967971
      17       -0.000007981509    -0.000042734539     0.000031395862
      18       -0.000009327402     0.000011393953     0.000009144399
      19       -0.000026789224     0.000013165055     0.000035466118

  **** Optimization is complete! (in 9 steps) ****
    Final optimized geometry and variables:
    Molecular point group: c1

    Geometry (in Angstrom), charge = 0, multiplicity = 1:

    O            1.150263934377     1.392673585215    -0.416718288917
    C            0.850623000424     0.296041869545    -0.071339543452
    C           -0.619227201718    -0.132730508247     0.042762854311
    C            1.939719941160    -0.719546048472     0.217220664587
    C           -0.873703348086    -1.317425427742    -0.903607918151
    C           -1.520291641824     1.038514166306    -0.354503599124
    C           -0.930412992273    -0.543147746011     1.491709613159
    H           -0.633434096487    -1.058447786607    -1.928735060620
    H           -1.920450751836    -1.595158652944    -0.869100204186
    H           -0.294417988347    -2.190833672492    -0.630413781359
    H           -1.325010093102     1.358013721950    -1.369046514312
    H           -2.560605917259     0.741650151525    -0.282409332651
    H           -1.362553415694     1.891731302329     0.291212522099
    H           -1.987745567171    -0.758662519623     1.589042598773
    H           -0.388963202732    -1.429256194982     1.796303013295
    H           -0.691494637693     0.255314489443     2.185351564201
    H            2.052427550249    -1.370511226614    -0.642571360493
    H            2.869106936589    -0.193783860720     0.373667875399
    H            1.719670970469    -1.341689289276     1.072756323617

  Mulliken Charges: (a.u.)
   Center  Symbol    Alpha    Beta     Spin     Total
       1     O     4.17371  4.17371  0.00000 -0.34741
       2     C     2.85457  2.85457  0.00000  0.29086
       3     C     3.00745  3.00745  0.00000 -0.01490
       4     C     3.16204  3.16204  0.00000 -0.32407
       5     C     3.16318  3.16318  0.00000 -0.32637
       6     C     3.14933  3.14933  0.00000 -0.29866
       7     C     3.16268  3.16268  0.00000 -0.32537
       8     H     0.44218  0.44218  0.00000  0.11563
       9     H     0.44331  0.44331  0.00000  0.11339
      10     H     0.44638  0.44638  0.00000  0.10725
      11     H     0.44320  0.44320  0.00000  0.11360
      12     H     0.45230  0.45230  0.00000  0.09540
      13     H     0.44315  0.44315  0.00000  0.11370
      14     H     0.44394  0.44394  0.00000  0.11213
      15     H     0.44591  0.44591  0.00000  0.10818
      16     H     0.44227  0.44227  0.00000  0.11547
      17     H     0.44593  0.44593  0.00000  0.10813
      18     H     0.43188  0.43188  0.00000  0.13625
      19     H     0.44660  0.44660  0.00000  0.10679

   Total alpha = 28.00000, Total beta = 28.00000, Total charge =  0.00000

*** Psi4 exiting successfully. Buy a developer a beer!
