                              Psi4 1.0.54 Driver

  ==> Input File <==

--------------------------------------------------------------------------
set {
	reference rhf
	basis cc-pvtz
}

set_num_threads( 4 )
memory 2 gb

molecule MOL {
0 1

H	 1.552788	 1.500010	 -1.776766
O	 0.678804	 1.330708	 -1.478214
C	 0.700177	 0.619554	 -0.266242
C	 -0.713111	 0.588314	 0.266177
H	 1.348303	 1.109544	 0.454013
H	 1.055223	 -0.396398	 -0.418431
O	 -1.421673	 -0.521378	 -0.196983
H	 -1.244794	 1.469161	 -0.069059
H	 -0.685100	 0.604721	 1.352683
H	 -0.933408	 -1.297830	 0.014544

	symmetry c1
}
set optking {
	frozen_dihedral = ("
		5 3 4 7
	")
}

ee,wfn = optimize('scf', return_wfn=True)
oeprop( wfn, 'DIPOLE', 'QUADRUPOLE', 'MULLIKEN_CHARGES')
f=open( 'psi4out.xyz', 'w' )
f.write( "10  " )
f.write( str(ee) + "\n" )
f.write( MOL.save_string_xyz() )
f.close()
--------------------------------------------------------------------------

    Molecular point group: c1
  Charge       = 0
  Multiplicity = 1
  Basis Set: CC-PVTZ
  Basis Set:
  @DF-RHF Final Energy:  -229.02010489095770
    Total Energy =                       -229.0201048909576684
    Molecular point group: c1
  Basis Set: CC-PVTZ
  Basis Set:
  Basis Set: CC-PVTZ
  Basis Set:
  @DF-RHF Final Energy:  -229.02100009897910
    Total Energy =                       -229.0210000989791013
  Basis Set: CC-PVTZ
  Basis Set:
  Basis Set: CC-PVTZ
  Basis Set:
  @DF-RHF Final Energy:  -229.02140192800158
    Total Energy =                       -229.0214019280015805
  Basis Set: CC-PVTZ
  Basis Set:
  Basis Set: CC-PVTZ
  Basis Set:
  @DF-RHF Final Energy:  -229.02146998320737
    Total Energy =                       -229.0214699832073109
  Basis Set: CC-PVTZ
  Basis Set:
  Basis Set: CC-PVTZ
  Basis Set:
  @DF-RHF Final Energy:  -229.02149515379389
    Total Energy =                       -229.0214951537936940
  Basis Set: CC-PVTZ
  Basis Set:
  Basis Set: CC-PVTZ
  Basis Set:
  @DF-RHF Final Energy:  -229.02149990334127
    Total Energy =                       -229.0214999033410663
  Basis Set: CC-PVTZ
  Basis Set:
  Charge       = 0
  Multiplicity = 1
  Basis Set: CC-PVTZ
  Basis Set:

    Orbital Energies (a.u.)
    -----------------------

    Doubly Occupied:

       1A    -20.552229     2A    -20.547662     3A    -11.273235
       4A    -11.268463     5A     -1.377748     6A     -1.360341
       7A     -1.001499     8A     -0.847725     9A     -0.721937
      10A     -0.687235    11A     -0.650452    12A     -0.598844
      13A     -0.578964    14A     -0.538535    15A     -0.486698
      16A     -0.448320    17A     -0.438660

  @DF-RHF Final Energy:  -229.02150035949609

   => Energetics <=

    Nuclear Repulsion Energy =            132.4849287690423125
    One-Electron Energy =                -576.2557662592096221
    Two-Electron Energy =                 214.7493371306712220
    DFT Exchange-Correlation Energy =       0.0000000000000000
    Empirical Dispersion Energy =           0.0000000000000000
    PCM Polarization Energy =               0.0000000000000000
    EFP Energy =                            0.0000000000000000
    Total Energy =                       -229.0215003594960876
    Molecular point group: c1
  Basis Set: CC-PVTZ
  Basis Set:

  -Total Gradient:
     Atom            X                  Y                   Z
    ------   -----------------  -----------------  -----------------
       1       -0.000055035320     0.000000529874     0.000011509360
       2        0.000073670147    -0.000032066918     0.000029469100
       3       -0.000838443787     0.004005726266    -0.000973339761
       4       -0.001433349417     0.001732939375    -0.003034169149
       5        0.001022993271    -0.003779799340     0.001490302814
       6        0.000012908948    -0.000001112530    -0.000001581327
       7        0.001229581539    -0.001956786398     0.002490493209
       8        0.000004786650     0.000012625130     0.000003745465
       9       -0.000003601185    -0.000000064388     0.000004517528
      10       -0.000013510846     0.000018008927    -0.000020947240

  **** Optimization is complete! (in 7 steps) ****
    Final optimized geometry and variables:
    Molecular point group: c1

    Geometry (in Angstrom), charge = 0, multiplicity = 1:

    H            1.663580490395     0.928674190924    -1.447334886187
    O            0.824903435960     0.926038763024    -1.024501197364
    C            0.877442396248     0.180076746728     0.156263117494
    C           -0.521725123006     0.030078566588     0.728559186286
    H            1.524063500544     0.646092775708     0.896765195847
    H            1.283764088792    -0.812467602001    -0.031721875450
    O           -1.223618535526    -1.069084710074     0.220200328121
    H           -1.096444292425     0.911499498675     0.484904541196
    H           -0.455371841589    -0.037831739794     1.811779685037
    H           -0.827158607506    -1.868007450563     0.515018214576

  Mulliken Charges: (a.u.)
   Center  Symbol    Alpha    Beta     Spin     Total
       1     H     0.39447  0.39447  0.00000  0.21106
       2     O     4.19423  4.19423  0.00000 -0.38845
       3     C     2.95785  2.95785  0.00000  0.08430
       4     C     2.96873  2.96873  0.00000  0.06253
       5     H     0.47869  0.47869  0.00000  0.04262
       6     H     0.48376  0.48376  0.00000  0.03248
       7     O     4.19894  4.19894  0.00000 -0.39787
       8     H     0.45304  0.45304  0.00000  0.09393
       9     H     0.47378  0.47378  0.00000  0.05245
      10     H     0.39652  0.39652  0.00000  0.20697

   Total alpha = 17.00000, Total beta = 17.00000, Total charge =  0.00000

*** Psi4 exiting successfully. Buy a developer a beer!
