                              Psi4 1.0.54 Driver

  ==> Input File <==

--------------------------------------------------------------------------
set {
	reference rhf
	basis cc-pvtz
}

set_num_threads( 4 )
memory 2 gb

molecule MOL {
0 1

H	 1.938708	 -1.341693	 1.019670
C	 1.117632	 -0.676548	 1.227632
O	 0.462329	 -0.453336	 -0.000137
H	 1.504054	 0.248243	 1.637094
H	 0.454179	 -1.143819	 1.944379
C	 -0.590565	 0.341382	 0.000062
O	 -1.693898	 -0.053880	 0.000252
H	 -0.340426	 1.403822	 0.000200

	symmetry c1
}
set optking {
	frozen_dihedral = ("
		2 3 6 7
	")
}

ee,wfn = optimize('scf', return_wfn=True)
oeprop( wfn, 'DIPOLE', 'QUADRUPOLE', 'MULLIKEN_CHARGES')
f=open( 'psi4out.xyz', 'w' )
f.write( "8  " )
f.write( str(ee) + "\n" )
f.write( MOL.save_string_xyz() )
f.close()
--------------------------------------------------------------------------

    Molecular point group: c1
  Charge       = 0
  Multiplicity = 1
  Basis Set: CC-PVTZ
  Basis Set:
  @DF-RHF Final Energy:  -227.85909159430128
    Total Energy =                       -227.8590915943013329
    Molecular point group: c1
  Basis Set: CC-PVTZ
  Basis Set:
  Basis Set: CC-PVTZ
  Basis Set:
  @DF-RHF Final Energy:  -227.85915727088982
    Total Energy =                       -227.8591572708896251
  Basis Set: CC-PVTZ
  Basis Set:
  Basis Set: CC-PVTZ
  Basis Set:
  @DF-RHF Final Energy:  -227.85925289122753
    Total Energy =                       -227.8592528912275839
  Basis Set: CC-PVTZ
  Basis Set:
  Basis Set: CC-PVTZ
  Basis Set:
  @DF-RHF Final Energy:  -227.85955963632790
    Total Energy =                       -227.8595596363280151
  Basis Set: CC-PVTZ
  Basis Set:
  Basis Set: CC-PVTZ
  Basis Set:
  @DF-RHF Final Energy:  -227.85956667945402
    Total Energy =                       -227.8595666794540762
  Basis Set: CC-PVTZ
  Basis Set:
  Charge       = 0
  Multiplicity = 1
  Basis Set: CC-PVTZ
  Basis Set:

    Orbital Energies (a.u.)
    -----------------------

    Doubly Occupied:

       1A    -20.591156     2A    -20.563147     3A    -11.376522
       4A    -11.298157     5A     -1.473740     6A     -1.386130
       7A     -0.986340     8A     -0.837861     9A     -0.740551
      10A     -0.691157    11A     -0.670392    12A     -0.627747
      13A     -0.565615    14A     -0.515752    15A     -0.476689
      16A     -0.461176

  @DF-RHF Final Energy:  -227.85956702234762

   => Energetics <=

    Nuclear Repulsion Energy =            121.9511908672030955
    One-Electron Energy =                -553.0972500134973870
    Two-Electron Energy =                 203.2864921239468572
    DFT Exchange-Correlation Energy =       0.0000000000000000
    Empirical Dispersion Energy =           0.0000000000000000
    PCM Polarization Energy =               0.0000000000000000
    EFP Energy =                            0.0000000000000000
    Total Energy =                       -227.8595670223474485
    Molecular point group: c1
  Basis Set: CC-PVTZ
  Basis Set:

  -Total Gradient:
     Atom            X                  Y                   Z
    ------   -----------------  -----------------  -----------------
       1       -0.000018350749     0.000017435958    -0.000027049682
       2       -0.001044692962    -0.001285268450     0.000367820713
       3        0.001540556816     0.001865632027     0.000552981112
       4        0.000010586533     0.000008151511     0.000001026740
       5        0.000015438638    -0.000003161899     0.000015178887
       6       -0.000550840974    -0.000638401982    -0.003087335714
       7        0.000054126130     0.000047998126     0.002173291604
       8       -0.000006823431    -0.000012385292     0.000004086340

  **** Optimization is complete! (in 6 steps) ****
    Final optimized geometry and variables:
    Molecular point group: c1

    Geometry (in Angstrom), charge = 0, multiplicity = 1:

    H            2.141671350410    -1.083499402062     0.695576566647
    C            1.281537827188    -0.465768167347     0.892658663034
    O            0.625214980768    -0.276243956925    -0.343377343708
    H            1.610472067427     0.480652993857     1.309524263480
    H            0.626738493487    -0.964097501605     1.595277387411
    C           -0.421874027193     0.556123671024    -0.325458726178
    O           -1.537688029761     0.205962105626    -0.286173567283
    H           -0.133142050533     1.606520389303    -0.362500883823

  Mulliken Charges: (a.u.)
   Center  Symbol    Alpha    Beta     Spin     Total
       1     H     0.44333  0.44333  0.00000  0.11335
       2     C     3.02280  3.02280  0.00000 -0.04560
       3     O     4.15158  4.15158  0.00000 -0.30316
       4     H     0.46723  0.46723  0.00000  0.06553
       5     H     0.45511  0.45511  0.00000  0.08977
       6     C     2.83154  2.83154  0.00000  0.33691
       7     O     4.16103  4.16103  0.00000 -0.32205
       8     H     0.46738  0.46738  0.00000  0.06525

   Total alpha = 16.00000, Total beta = 16.00000, Total charge = -0.00000

*** Psi4 exiting successfully. Buy a developer a beer!
