  ==> Input File <==

--------------------------------------------------------------------------
set {
	reference rhf
	basis 6-31G*
}

set_num_threads( 4 )
memory 2 gb

molecule MOL {
0 1

H	 -0.000158	 1.970498	 0.756846
O	 -0.000074	 1.880206	 -0.189275
C	 -0.000015	 0.544847	 -0.545111
C	 -1.319183	 0.188146	 -1.222273
C	 0.324644	 -0.316298	 0.671041
H	 0.787713	 0.396221	 -1.268642
F	 -1.473976	 0.922302	 -2.303290
F	 -1.370679	 -1.077815	 -1.578712
F	 -2.341734	 0.432474	 -0.418351
F	 1.512438	 0.006007	 1.136661
F	 0.334186	 -1.600894	 0.384505
F	 -0.556284	 -0.115701	 1.638152

	symmetry c1
}
set optking {
	frozen_dihedral = ("
		6 3 2 1
	")
}

ee = optimize('scf')
oeprop('DIPOLE', 'QUADRUPOLE', 'MULLIKEN_CHARGES')
f=open( 'psi4out.xyz', 'w' )
f.write( "12  " )
f.write( str(ee) + "\n" )
f.write( MOL.save_string_xyz() )
f.close()
--------------------------------------------------------------------------

    Molecular point group: c1
  Charge       = 0
  Multiplicity = 1
  Basis Set: 6-31G*
  Basis Set:
  @DF-RHF Final Energy:  -786.27336427601256
    Total Energy =                       -786.2733642760123303
    Molecular point group: c1
  Basis Set: 6-31G*
  Basis Set:
  Basis Set: 6-31G*
  Basis Set:
  @DF-RHF Final Energy:  -786.27401262248145
    Total Energy =                       -786.2740126224814503
  Basis Set: 6-31G*
  Basis Set:
  Basis Set: 6-31G*
  Basis Set:
  @DF-RHF Final Energy:  -786.27418425663518
    Total Energy =                       -786.2741842566351806
  Basis Set: 6-31G*
  Basis Set:
  Basis Set: 6-31G*
  Basis Set:
  @DF-RHF Final Energy:  -786.27419674047781
    Total Energy =                       -786.2741967404772367
  Basis Set: 6-31G*
  Basis Set:
  Basis Set: 6-31G*
  Basis Set:
  @DF-RHF Final Energy:  -786.27419828033567
    Total Energy =                       -786.2741982803356677
  Basis Set: 6-31G*
  Basis Set:
  Charge       = 0
  Multiplicity = 1
  Basis Set: 6-31G*
  Basis Set:

    Orbital Energies (a.u.)
    -----------------------

    Doubly Occupied:

       1A    -26.369263     2A    -26.369231     3A    -26.366735
       4A    -26.355094     5A    -26.353957     6A    -26.351791
       7A    -20.614469     8A    -11.533657     9A    -11.519605
      10A    -11.349443    11A     -1.770048    12A     -1.754230
      13A     -1.667895    14A     -1.663720    15A     -1.651357
      16A     -1.650002    17A     -1.432279    18A     -1.103506
      19A     -0.998114    20A     -0.937708    21A     -0.868650
      22A     -0.862951    23A     -0.855970    24A     -0.841366
      25A     -0.830651    26A     -0.805437    27A     -0.746286
      28A     -0.732902    29A     -0.719745    30A     -0.716884
      31A     -0.698317    32A     -0.690226    33A     -0.685276
      34A     -0.670697    35A     -0.668103    36A     -0.665653
      37A     -0.653118    38A     -0.651476    39A     -0.616691
      40A     -0.548132    41A     -0.503637

  @DF-RHF Final Energy:  -786.27419843968767

   => Energetics <=

    Nuclear Repulsion Energy =            670.6385874648962044
    One-Electron Energy =               -2428.1370211321263923
    Two-Electron Energy =                 971.2242352275425219
    DFT Exchange-Correlation Energy =       0.0000000000000000
    Empirical Dispersion Energy =           0.0000000000000000
    PCM Polarization Energy =               0.0000000000000000
    EFP Energy =                            0.0000000000000000
    Total Energy =                       -786.2741984396875523
    Molecular point group: c1
  Basis Set: 6-31G*
  Basis Set:

  -Total Gradient:
     Atom            X                  Y                   Z
    ------   -----------------  -----------------  -----------------
       1        0.002975788897     0.000006532708     0.000063352972
       2       -0.003320146277    -0.000158554603     0.000403662812
       3       -0.001275792758     0.000607468182    -0.002425648769
       4       -0.000017025856     0.000028310958     0.000052541080
       5       -0.000051079896    -0.000011769918     0.000036056750
       6        0.001614462972    -0.000444707112     0.001940711106
       7       -0.000012443573     0.000004502628     0.000000986359
       8        0.000013829815    -0.000022975609     0.000009650606
       9        0.000023873970    -0.000000347559    -0.000039933179
      10        0.000059348067     0.000023365644     0.000013824249
      11       -0.000025517285    -0.000022785256    -0.000012493300
      12        0.000014701923    -0.000009040052    -0.000042710680

  **** Optimization is complete! (in 6 steps) ****
    Final optimized geometry and variables:
    Molecular point group: c1

    Geometry (in Angstrom), charge = 0, multiplicity = 1:

    H            0.486863763945     1.959545315658     0.948335505005
    O            0.504236381978     1.821609784218     0.010738048210
    C            0.515324516432     0.475987253594    -0.319003418583
    C           -0.807663240784     0.130258863185    -0.991818829035
    C            0.818784598960    -0.379769096711     0.904852579270
    H            1.310084915331     0.283576746448    -1.027629525015
    F           -1.001004074838     0.928198720157    -2.019522559160
    F           -0.805527919519    -1.111969352127    -1.438471849746
    F           -1.825918927124     0.267476126503    -0.166712301401
    F            2.029570652307    -0.088446938921     1.346451935383
    F            0.776648168385    -1.664483534765     0.639968612289
    F           -0.026133123934    -0.126446550263     1.889875535583

  Mulliken Charges: (a.u.)
   Center  Symbol    Alpha    Beta     Spin     Total
       1     H     0.26317  0.26317  0.00000  0.47367
       2     O     4.37030  4.37030  0.00000 -0.74059
       3     C     3.02536  3.02536  0.00000 -0.05071
       4     C     2.43920  2.43920  0.00000  1.12161
       5     C     2.46521  2.46521  0.00000  1.06959
       6     H     0.38098  0.38098  0.00000  0.23804
       7     F     4.67540  4.67540  0.00000 -0.35080
       8     F     4.67803  4.67803  0.00000 -0.35606
       9     F     4.67638  4.67638  0.00000 -0.35276
      10     F     4.67839  4.67839  0.00000 -0.35678
      11     F     4.67010  4.67010  0.00000 -0.34020
      12     F     4.67750  4.67750  0.00000 -0.35499

   Total alpha = 41.00000, Total beta = 41.00000, Total charge =  0.00000
