  ==> Input File <==

--------------------------------------------------------------------------
set {
	reference rhf
	basis cc-pvtz
}

set_num_threads( 4 )
memory 2 gb

molecule MOL {
0 1

H	 -3.918932	 -1.393329	 -0.936406
C	 -2.852823	 -1.274280	 -0.974003
C	 -2.208014	 -1.213097	 -2.196345
C	 -2.128253	 -1.182554	 0.199270
H	 -2.771068	 -1.284363	 -3.106615
C	 -0.838039	 -1.060108	 -2.243850
H	 -2.629249	 -1.230112	 1.146694
C	 -0.756424	 -1.029343	 0.153351
H	 -0.322804	 -1.010868	 -3.181488
C	 -0.107210	 -0.967671	 -1.069444
H	 -0.192327	 -0.957993	 1.060122
C	 1.370904	 -0.803093	 -1.174385
O	 1.968286	 -0.725612	 -0.000027
O	 1.956728	 -0.746804	 -2.203376
C	 3.373556	 -0.568203	 0.000011
H	 3.695416	 -0.031588	 -0.879663
H	 3.782700	 -1.565294	 -0.000152
H	 3.695405	 -0.031851	 0.879862

	symmetry c1
}
set optking {
	frozen_dihedral = ("
		12 13 15 16
	")
}

ee = optimize('scf')
oeprop('DIPOLE', 'QUADRUPOLE', 'MULLIKEN_CHARGES')
f=open( 'psi4out.xyz', 'w' )
f.write( "18  " )
f.write( str(ee) + "\n" )
f.write( MOL.save_string_xyz() )
f.close()
--------------------------------------------------------------------------

    Molecular point group: c1
  Charge       = 0
  Multiplicity = 1
  Basis Set: CC-PVTZ
  Basis Set:
  @DF-RHF Final Energy:  -457.50780440900536
    Total Energy =                       -457.5078044090055300
    Molecular point group: c1
  Basis Set: CC-PVTZ
  Basis Set:
  Basis Set: CC-PVTZ
  Basis Set:
  @DF-RHF Final Energy:  -457.50874567401081
    Total Energy =                       -457.5087456740109246
  Basis Set: CC-PVTZ
  Basis Set:
  Basis Set: CC-PVTZ
  Basis Set:
  @DF-RHF Final Energy:  -457.50760523877739
    Total Energy =                       -457.5076052387773871
  Basis Set: CC-PVTZ
  Basis Set:
  Basis Set: CC-PVTZ
  Basis Set:
  @DF-RHF Final Energy:  -457.50905740673778
    Total Energy =                       -457.5090574067376110
  Basis Set: CC-PVTZ
  Basis Set:
  Basis Set: CC-PVTZ
  Basis Set:
  @DF-RHF Final Energy:  -457.50908814018254
    Total Energy =                       -457.5090881401822571
  Basis Set: CC-PVTZ
  Basis Set:
  Charge       = 0
  Multiplicity = 1
  Basis Set: CC-PVTZ
  Basis Set:

    Orbital Energies (a.u.)
    -----------------------

    Doubly Occupied:

       1A    -20.600467     2A    -20.534084     3A    -11.372559
       4A    -11.280650     5A    -11.244729     6A    -11.243316
       7A    -11.242438     8A    -11.239808     9A    -11.235855
      10A    -11.235093    11A     -1.475634    12A     -1.368878
      13A     -1.170543    14A     -1.051696    15A     -1.028838
      16A     -0.981191    17A     -0.862990    18A     -0.838236
      19A     -0.780950    20A     -0.745100    21A     -0.688206
      22A     -0.680164    23A     -0.676253    24A     -0.634234
      25A     -0.629914    26A     -0.601127    27A     -0.588250
      28A     -0.567619    29A     -0.529331    30A     -0.520207
      31A     -0.509686    32A     -0.501879    33A     -0.462293
      34A     -0.449422    35A     -0.350075    36A     -0.346036

  @DF-RHF Final Energy:  -457.50908926421357

   => Energetics <=

    Nuclear Repulsion Energy =            493.8017270531410077
    One-Electron Energy =               -1602.0861381200727465
    Two-Electron Energy =                 650.7753218027194180
    DFT Exchange-Correlation Energy =       0.0000000000000000
    Empirical Dispersion Energy =           0.0000000000000000
    PCM Polarization Energy =               0.0000000000000000
    EFP Energy =                            0.0000000000000000
    Total Energy =                       -457.5090892642122071
    Molecular point group: c1
  Basis Set: CC-PVTZ
  Basis Set:

  -Total Gradient:
     Atom            X                  Y                   Z
    ------   -----------------  -----------------  -----------------
       1        0.000001436404    -0.000000592614    -0.000000912134
       2       -0.000000611492    -0.000002016355    -0.000017987886
       3       -0.000008853314     0.000002648497     0.000000985775
       4        0.000026707983     0.000004829800     0.000004628190
       5        0.000003107254     0.000001706846    -0.000001980882
       6        0.000023276750    -0.000004426429     0.000005884153
       7        0.000006639675     0.000001479115     0.000000663694
       8        0.000016700111    -0.000012446253    -0.000003769947
       9        0.000002211759     0.000001778346    -0.000010454358
      10        0.000025408037     0.000031477857    -0.000004492247
      11        0.000013942574     0.000005226015     0.000013660076
      12       -0.000161821864     0.001421802220    -0.000048080428
      13        0.000271290531    -0.002598292591    -0.000231875232
      14       -0.000132610420    -0.000023978947    -0.000086919183
      15       -0.000336912630     0.002684105505     0.001194723323
      16        0.000211095800    -0.001490847014    -0.000837676389
      17       -0.000078492995     0.000000665583    -0.000013417693
      18        0.000117485844    -0.000023119577     0.000037021170

  **** Optimization is complete! (in 6 steps) ****
    Final optimized geometry and variables:
    Molecular point group: c1

    Geometry (in Angstrom), charge = 0, multiplicity = 1:

    H           -4.026049786852    -0.425631350812     0.026304020538
    C           -2.959362367281    -0.314092718069    -0.018346815638
    C           -2.322117109126    -0.258183109556    -1.244973262026
    C           -2.226283914656    -0.226914314763     1.149941273861
    H           -2.891572914489    -0.326047144206    -2.151582105701
    C           -0.951428702550    -0.115078905078    -1.301541833999
    H           -2.721093408624    -0.270467105395     2.100842909881
    C           -0.853621858169    -0.083367538371     1.094910131825
    H           -0.442228814069    -0.070317679709    -2.242726832715
    C           -0.212079801729    -0.026808324060    -0.132053986182
    H           -0.283297842733    -0.015743873678     1.998065364808
    C            1.267081394797     0.127808916375    -0.248234027066
    O            1.868776735758     0.195491618106     0.924880718026
    O            1.841311895818     0.181894433662    -1.283574024088
    C            3.271017113133     0.380578549131     0.955210453103
    H            3.603973302128     0.940507804231     0.097816973681
    H            3.762356881370    -0.582717776085     0.958448175459
    H            3.493030324969     0.905634203109     1.870361832429

  Mulliken Charges: (a.u.)
   Center  Symbol    Alpha    Beta     Spin     Total
       1     H     0.42032  0.42032  0.00000  0.15935
       2     C     3.06976  3.06976  0.00000 -0.13953
       3     C     3.07554  3.07554  0.00000 -0.15108
       4     C     3.07492  3.07492  0.00000 -0.14984
       5     H     0.42044  0.42044  0.00000  0.15913
       6     C     3.07589  3.07589  0.00000 -0.15178
       7     H     0.42194  0.42194  0.00000  0.15613
       8     C     3.08203  3.08203  0.00000 -0.16406
       9     H     0.40650  0.40650  0.00000  0.18700
      10     C     3.01636  3.01636  0.00000 -0.03272
      11     H     0.41115  0.41115  0.00000  0.17770
      12     C     2.77758  2.77758  0.00000  0.44485
      13     O     4.14938  4.14938  0.00000 -0.29876
      14     O     4.21156  4.21156  0.00000 -0.42312
      15     C     3.03891  3.03891  0.00000 -0.07782
      16     H     0.44477  0.44477  0.00000  0.11045
      17     H     0.45553  0.45553  0.00000  0.08894
      18     H     0.44742  0.44742  0.00000  0.10516

   Total alpha = 36.00000, Total beta = 36.00000, Total charge = -0.00000
