                              Psi4 1.0.54 Driver

  ==> Input File <==

--------------------------------------------------------------------------
set {
	reference rhf
	basis cc-pvtz
}

set_num_threads( 4 )
memory 2 gb

molecule MOL {
0 1

H	 3.697988	 0.123312	 -0.768836
N	 3.091268	 -0.241216	 -0.065538
C	 1.860978	 0.530248	 0.016256
H	 3.590021	 -0.209278	 0.799085
C	 0.644130	 -0.381765	 -0.031064
H	 1.835721	 1.204666	 -0.833114
H	 1.808789	 1.151975	 0.911067
C	 -0.678115	 0.376691	 0.025731
H	 0.693998	 -0.977147	 -0.936845
H	 0.693309	 -1.082142	 0.800523
C	 -1.900706	 -0.535531	 -0.022488
H	 -0.725296	 1.079516	 -0.802982
H	 -0.715474	 0.974884	 0.933278
C	 -3.220513	 0.226854	 0.028039
H	 -1.865036	 -1.134397	 -0.928236
H	 -1.857948	 -1.236381	 0.806820
H	 -3.309098	 0.911849	 -0.808725
H	 -4.066838	 -0.449485	 -0.008086
H	 -3.301685	 0.809374	 0.939860

	symmetry c1
}
set optking {
	frozen_dihedral = ("
		1 2 3 6
	")
}

ee,wfn = optimize('scf', return_wfn=True)
oeprop( wfn, 'DIPOLE', 'QUADRUPOLE', 'MULLIKEN_CHARGES')
f=open( 'psi4out.xyz', 'w' )
f.write( "19  " )
f.write( str(ee) + "\n" )
f.write( MOL.save_string_xyz() )
f.close()
--------------------------------------------------------------------------

    Molecular point group: c1
  Charge       = 0
  Multiplicity = 1
  Basis Set: CC-PVTZ
  Basis Set:
  @DF-RHF Final Energy:  -251.44500328554165
    Total Energy =                       -251.4450032855417589
    Molecular point group: c1
  Basis Set: CC-PVTZ
  Basis Set:
  Basis Set: CC-PVTZ
  Basis Set:
  @DF-RHF Final Energy:  -251.44540743547560
    Total Energy =                       -251.4454074354755448
  Basis Set: CC-PVTZ
  Basis Set:
  Basis Set: CC-PVTZ
  Basis Set:
  @DF-RHF Final Energy:  -251.44552511366481
    Total Energy =                       -251.4455251136647576
  Basis Set: CC-PVTZ
  Basis Set:
  Basis Set: CC-PVTZ
  Basis Set:
  @DF-RHF Final Energy:  -251.44552970652390
    Total Energy =                       -251.4455297065238142
  Basis Set: CC-PVTZ
  Basis Set:
  Charge       = 0
  Multiplicity = 1
  Basis Set: CC-PVTZ
  Basis Set:

    Orbital Energies (a.u.)
    -----------------------

    Doubly Occupied:

       1A    -15.524465     2A    -11.238691     3A    -11.209958
       4A    -11.207860     5A    -11.204081     6A    -11.201844
       7A     -1.174662     8A     -1.072080     9A     -0.998162
      10A     -0.900549    11A     -0.810860    12A     -0.785906
      13A     -0.677484    14A     -0.636219    15A     -0.615387
      16A     -0.579155    17A     -0.569255    18A     -0.556090
      19A     -0.517747    20A     -0.505353    21A     -0.472385
      22A     -0.462728    23A     -0.458324    24A     -0.456766
      25A     -0.378166

  @DF-RHF Final Energy:  -251.44553053330799

   => Energetics <=

    Nuclear Repulsion Energy =            245.5754385078316773
    One-Electron Energy =                -825.6135804530058522
    Two-Electron Energy =                 328.5926114118660735
    DFT Exchange-Correlation Energy =       0.0000000000000000
    Empirical Dispersion Energy =           0.0000000000000000
    PCM Polarization Energy =               0.0000000000000000
    EFP Energy =                            0.0000000000000000
    Total Energy =                       -251.4455305333081014
    Molecular point group: c1
  Basis Set: CC-PVTZ
  Basis Set:

  -Total Gradient:
     Atom            X                  Y                   Z
    ------   -----------------  -----------------  -----------------
       1       -0.000721993210    -0.000984224466    -0.001099468918
       2        0.001115396735     0.001441929042     0.001558553423
       3       -0.001081350291    -0.001515015564    -0.001280293764
       4       -0.000013062402    -0.000005739215     0.000008506008
       5        0.000064097519     0.000052044032     0.000043019181
       6        0.000677931439     0.001024189265     0.000782178276
       7       -0.000024283978    -0.000010595397     0.000005491655
       8        0.000003096099    -0.000022188304    -0.000014848203
       9        0.000006598141     0.000014529323     0.000008852162
      10        0.000008844555     0.000003261635    -0.000004170633
      11       -0.000029049641     0.000021535016    -0.000012336529
      12        0.000002176392    -0.000003871215     0.000007108415
      13        0.000002511265    -0.000011163049    -0.000006085333
      14       -0.000011864711    -0.000014021376     0.000005300950
      15        0.000002746653     0.000000136101    -0.000002198612
      16        0.000001406002     0.000007596075    -0.000001926277
      17        0.000002575970    -0.000004051799     0.000000617295
      18       -0.000005670452     0.000003542595     0.000002592963
      19       -0.000000106085     0.000002107300    -0.000000892059

  **** Optimization is complete! (in 5 steps) ****
    Final optimized geometry and variables:
    Molecular point group: c1

    Geometry (in Angstrom), charge = 0, multiplicity = 1:

    H            3.714488383388     0.126325061046    -0.829451564980
    N            3.101303486566    -0.235707663793    -0.134740871669
    C            1.856941161734     0.520896422391    -0.046920165850
    H            3.591287442474    -0.264036561048     0.731097681278
    C            0.636571153998    -0.390033632239    -0.048801066747
    H            1.797476753595     1.210212470760    -0.883053676214
    H            1.838056964786     1.140775765827     0.846877721899
    C           -0.682279202433     0.370148970109     0.046250832825
    H            0.656347744645    -0.991144533651    -0.952547565327
    H            0.721011496418    -1.086492719007     0.781123642372
    C           -1.907612605185    -0.539709705885     0.041470196493
    H           -0.756569715177     1.070956859101    -0.782798009663
    H           -0.690023887573     0.972354646069     0.952371892221
    C           -3.224066640551     0.224293197325     0.135839394460
    H           -1.903771285555    -1.140264976614    -0.863882583517
    H           -1.837059663818    -1.239160367850     0.869892337512
    H           -3.340700659293     0.907808344409    -0.698772338279
    H           -4.072110386781    -0.450971564022     0.130388299938
    H           -3.273046865495     0.808791550153     1.048731680730

  Mulliken Charges: (a.u.)
   Center  Symbol    Alpha    Beta     Spin     Total
       1     H     0.42453  0.42453  0.00000  0.15094
       2     N     3.69858  3.69858  0.00000 -0.39716
       3     C     3.04540  3.04540  0.00000 -0.09081
       4     H     0.42675  0.42675  0.00000  0.14650
       5     C     3.06282  3.06282  0.00000 -0.12563
       6     H     0.45663  0.45663  0.00000  0.08674
       7     H     0.46011  0.46011  0.00000  0.07978
       8     C     3.09711  3.09711  0.00000 -0.19422
       9     H     0.45482  0.45482  0.00000  0.09036
      10     H     0.45807  0.45807  0.00000  0.08387
      11     C     3.08271  3.08271  0.00000 -0.16543
      12     H     0.45691  0.45691  0.00000  0.08619
      13     H     0.45710  0.45710  0.00000  0.08580
      14     C     3.14966  3.14966  0.00000 -0.29932
      15     H     0.45415  0.45415  0.00000  0.09169
      16     H     0.45451  0.45451  0.00000  0.09098
      17     H     0.45566  0.45566  0.00000  0.08868
      18     H     0.44871  0.44871  0.00000  0.10258
      19     H     0.45578  0.45578  0.00000  0.08845

   Total alpha = 25.00000, Total beta = 25.00000, Total charge = -0.00000

*** Psi4 exiting successfully. Buy a developer a beer!
