  ==> Input File <==

--------------------------------------------------------------------------
set {
	reference rhf
	basis 6-31G*
}

set_num_threads( 4 )
memory 2 gb

molecule MOL {
0 1

O	 -2.552204	 0.865636	 -0.228441
C	 -2.134242	 -0.156921	 0.223357
C	 -0.911499	 -0.830098	 -0.375005
C	 -2.774676	 -0.814151	 1.425550
C	 0.379448	 -0.143569	 0.099626
H	 -0.987629	 -0.751170	 -1.454023
H	 -0.889182	 -1.884237	 -0.113623
C	 1.631333	 -0.777471	 -0.511575
H	 0.318380	 0.907419	 -0.159371
H	 0.444763	 -0.196540	 1.185294
C	 2.915987	 -0.544314	 0.291766
H	 1.766672	 -0.399098	 -1.523130
H	 1.471257	 -1.849544	 -0.605828
C	 3.373361	 0.914346	 0.347591
H	 3.708709	 -1.142521	 -0.150311
H	 2.780642	 -0.921148	 1.303579
H	 3.506512	 1.320010	 -0.651625
H	 4.322697	 0.999599	 0.867103
H	 2.660624	 1.545032	 0.868198
H	 -3.214530	 -1.763596	 1.131703
H	 -3.544061	 -0.172677	 1.832172
H	 -2.031409	 -1.028162	 2.188149

	symmetry c1
}
set optking {
	frozen_dihedral = ("
		3 5 8 12
	")
}

ee = optimize('scf')
oeprop('DIPOLE', 'QUADRUPOLE', 'MULLIKEN_CHARGES')
f=open( 'psi4out.xyz', 'w' )
f.write( "22  " )
f.write( str(ee) + "\n" )
f.write( MOL.save_string_xyz() )
f.close()
--------------------------------------------------------------------------

    Molecular point group: c1
  Charge       = 0
  Multiplicity = 1
  Basis Set: 6-31G*
  Basis Set:
  @DF-RHF Final Energy:  -348.09694220524005
    Total Energy =                       -348.0969422052399409
    Molecular point group: c1
  Basis Set: 6-31G*
  Basis Set:
  Basis Set: 6-31G*
  Basis Set:
  @DF-RHF Final Energy:  -348.09684697499409
    Total Energy =                       -348.0968469749942642
  Basis Set: 6-31G*
  Basis Set:
  Basis Set: 6-31G*
  Basis Set:
  @DF-RHF Final Energy:  -348.09633394503851
    Total Energy =                       -348.0963339450388503
  Basis Set: 6-31G*
  Basis Set:
  Basis Set: 6-31G*
  Basis Set:
  @DF-RHF Final Energy:  -348.09711293324608
    Total Energy =                       -348.0971129332455121
  Basis Set: 6-31G*
  Basis Set:
  @DF-RHF Final Energy:  -348.09709004768740
    Total Energy =                       -348.0970900476871748
  @DF-RHF Final Energy:  -348.09713977368006
    Total Energy =                       -348.0971397736803965
  @DF-RHF Final Energy:  -348.09715205315251
    Total Energy =                       -348.0971520531526266
  Basis Set: 6-31G*
  Basis Set:
  @DF-RHF Final Energy:  -348.09715358765823
    Total Energy =                       -348.0971535876581697
  Basis Set: 6-31G*
  Basis Set:
  Basis Set: 6-31G*
  Basis Set:
  @DF-RHF Final Energy:  -348.09715825735725
    Total Energy =                       -348.0971582573572505
  Basis Set: 6-31G*
  Basis Set:
  Basis Set: 6-31G*
  Basis Set:
  @DF-RHF Final Energy:  -348.09715991436985
    Total Energy =                       -348.0971599143693993
  Basis Set: 6-31G*
  Basis Set:
  Charge       = 0
  Multiplicity = 1
  Basis Set: 6-31G*
  Basis Set:

    Orbital Energies (a.u.)
    -----------------------

    Doubly Occupied:

       1A    -20.547319     2A    -11.324440     3A    -11.229683
       4A    -11.229108     5A    -11.228262     6A    -11.222220
       7A    -11.220715     8A    -11.211671     9A     -1.393095
      10A     -1.095455    11A     -1.044466    12A     -0.999289
      13A     -0.937162    14A     -0.858427    15A     -0.785783
      16A     -0.733479    17A     -0.663399    18A     -0.642891
      19A     -0.626548    20A     -0.619452    21A     -0.594747
      22A     -0.587737    23A     -0.560931    24A     -0.538817
      25A     -0.535411    26A     -0.523191    27A     -0.496075
      28A     -0.488615    29A     -0.469587    30A     -0.465999
      31A     -0.458374    32A     -0.396116

  @DF-RHF Final Energy:  -348.09716030801093

   => Energetics <=

    Nuclear Repulsion Energy =            373.1234942547284277
    One-Electron Energy =               -1210.9843820551620865
    Two-Electron Energy =                 489.7637274924227313
    DFT Exchange-Correlation Energy =       0.0000000000000000
    Empirical Dispersion Energy =           0.0000000000000000
    PCM Polarization Energy =               0.0000000000000000
    EFP Energy =                            0.0000000000000000
    Total Energy =                       -348.0971603080108707
    Molecular point group: c1
  Basis Set: 6-31G*
  Basis Set:

  -Total Gradient:
     Atom            X                  Y                   Z
    ------   -----------------  -----------------  -----------------
       1       -0.000009854234    -0.000007534308    -0.000009818990
       2        0.000012177968    -0.000001557835     0.000016866992
       3        0.000130690119    -0.001537045457     0.001819468486
       4        0.000005699896     0.000000216048     0.000005164401
       5        0.000248783609     0.002679386920    -0.002225650370
       6       -0.000007628117     0.000025510801     0.000002013383
       7        0.000007294311    -0.000004338344    -0.000020343795
       8       -0.002210262890    -0.003614377451    -0.000756022463
       9        0.000007430693    -0.000003509663    -0.000018311039
      10       -0.000010724399     0.000020668428     0.000003861152
      11       -0.000004522704    -0.000000290724    -0.000008702530
      12        0.001851705926     0.002442066485     0.001176844681
      13       -0.000004005302    -0.000000575490     0.000002649947
      14       -0.000003375906     0.000002426217     0.000000478591
      15        0.000003243060     0.000002567035     0.000011653456
      16       -0.000014558381    -0.000003223575     0.000000345934
      17       -0.000015042359     0.000006438065     0.000000859575
      18        0.000008410315    -0.000000385912    -0.000014374885
      19        0.000007637645    -0.000005477312     0.000014070711
      20       -0.000002838194     0.000000656460    -0.000000849304
      21        0.000001321280     0.000000506419     0.000000231221
      22       -0.000001582328    -0.000002126807    -0.000000435155

  **** Optimization is complete! (in 11 steps) ****
    Final optimized geometry and variables:
    Molecular point group: c1

    Geometry (in Angstrom), charge = 0, multiplicity = 1:

    O           -2.517144188902     1.057387170308    -0.402953931425
    C           -2.119462919282     0.030786083804     0.057719039320
    C           -0.904949878913    -0.667471811283    -0.528962996431
    C           -2.782644005989    -0.611758302247     1.255659465275
    C            0.395939993661     0.002320720255    -0.057872035643
    H           -0.978807426643    -0.602161681337    -1.609523511887
    H           -0.897017455644    -1.717959833202    -0.253805326839
    C            1.643091034844    -0.636036338034    -0.684235459073
    H            0.349940546045     1.059670315805    -0.292110033012
    H            0.459060218500    -0.074934774844     1.026690748222
    C            2.934489140881    -0.378267514615     0.101207084321
    H            1.773615063078    -0.247751910466    -1.692247912572
    H            1.497735688663    -1.709749086615    -0.772309367495
    C            3.327897098867     1.097078725574     0.190618680876
    H            3.742740334382    -0.930413127895    -0.371801259153
    H            2.832895761507    -0.787437592524     1.104416093652
    H            3.432232349168     1.533573912588    -0.798993389178
    H            4.277047622514     1.213513779707     0.704315873575
    H            2.590202296465     1.680127594350     0.732464882341
    H           -3.233058317980    -1.556078863437     0.961371428289
    H           -3.546809357819     0.042834860197     1.651006561503
    H           -2.050795118869    -0.832944778685     2.027222860959

  Mulliken Charges: (a.u.)
   Center  Symbol    Alpha    Beta     Spin     Total
       1     O     4.26239  4.26239  0.00000 -0.52479
       2     C     2.73740  2.73740  0.00000  0.52519
       3     C     3.20031  3.20031  0.00000 -0.40061
       4     C     3.28962  3.28962  0.00000 -0.57925
       5     C     3.16439  3.16439  0.00000 -0.32878
       6     H     0.40119  0.40119  0.00000  0.19763
       7     H     0.41678  0.41678  0.00000  0.16644
       8     C     3.15283  3.15283  0.00000 -0.30566
       9     H     0.40298  0.40298  0.00000  0.19405
      10     H     0.42160  0.42160  0.00000  0.15680
      11     C     3.15389  3.15389  0.00000 -0.30779
      12     H     0.41898  0.41898  0.00000  0.16203
      13     H     0.42089  0.42089  0.00000  0.15823
      14     C     3.24224  3.24224  0.00000 -0.48448
      15     H     0.41987  0.41987  0.00000  0.16026
      16     H     0.42353  0.42353  0.00000  0.15294
      17     H     0.42069  0.42069  0.00000  0.15862
      18     H     0.41821  0.41821  0.00000  0.16358
      19     H     0.41852  0.41852  0.00000  0.16296
      20     H     0.40690  0.40690  0.00000  0.18620
      21     H     0.39707  0.39707  0.00000  0.20586
      22     H     0.40972  0.40972  0.00000  0.18056

   Total alpha = 32.00000, Total beta = 32.00000, Total charge =  0.00000
