  ==> Input File <==

--------------------------------------------------------------------------
set {
	reference rhf
	basis 6-31G*
}

set_num_threads( 4 )
memory 2 gb

molecule MOL {
0 1

O	 -1.487788	 1.240889	 -0.102860
C	 -1.083277	 0.139568	 0.115197
C	 0.323299	 -0.082943	 0.642902
C	 -1.933017	 -1.084621	 -0.143902
C	 1.355627	 -0.005344	 -0.493127
H	 0.396251	 -1.044647	 1.143147
H	 0.528637	 0.693580	 1.371677
C	 0.997812	 -0.915147	 -1.666785
H	 1.438523	 1.020808	 -0.844428
H	 2.327599	 -0.278536	 -0.095916
H	 1.743815	 -0.847021	 -2.451979
H	 0.037789	 -0.644557	 -2.096857
H	 0.940226	 -1.952977	 -1.352716
H	 -1.393885	 -1.806447	 -0.750509
H	 -2.850323	 -0.799888	 -0.640100
H	 -2.169004	 -1.571158	 0.798858

	symmetry c1
}
set optking {
	frozen_dihedral = ("
		9 5 3 2
	")
}

ee = optimize('scf')
oeprop('DIPOLE', 'QUADRUPOLE', 'MULLIKEN_CHARGES')
f=open( 'psi4out.xyz', 'w' )
f.write( "16  " )
f.write( str(ee) + "\n" )
f.write( MOL.save_string_xyz() )
f.close()
--------------------------------------------------------------------------

    Molecular point group: c1
  Charge       = 0
  Multiplicity = 1
  Basis Set: 6-31G*
  Basis Set:
  @DF-RHF Final Energy:  -270.02627474267626
    Total Energy =                       -270.0262747426762076
    Molecular point group: c1
  Basis Set: 6-31G*
  Basis Set:
  Basis Set: 6-31G*
  Basis Set:
  @DF-RHF Final Energy:  -270.02814179942709
    Total Energy =                       -270.0281417994269759
  Basis Set: 6-31G*
  Basis Set:
  Basis Set: 6-31G*
  Basis Set:
  @DF-RHF Final Energy:  -270.02728049481806
    Total Energy =                       -270.0272804948177736
  Basis Set: 6-31G*
  Basis Set:
  Basis Set: 6-31G*
  Basis Set:
  @DF-RHF Final Energy:  -270.02869445551516
    Total Energy =                       -270.0286944555151649
  Basis Set: 6-31G*
  Basis Set:
  @DF-RHF Final Energy:  -270.02895969517067
    Total Energy =                       -270.0289596951704425
  @DF-RHF Final Energy:  -270.02935435292295
    Total Energy =                       -270.0293543529230647
  @DF-RHF Final Energy:  -270.02954360442521
    Total Energy =                       -270.0295436044251574
  @DF-RHF Final Energy:  -270.02972964787921
    Total Energy =                       -270.0297296478793214
  @DF-RHF Final Energy:  -270.02992042083929
    Total Energy =                       -270.0299204208391757
  @DF-RHF Final Energy:  -270.02997064912518
    Total Energy =                       -270.0299706491249481
  @DF-RHF Final Energy:  -270.03002170536513
    Total Energy =                       -270.0300217053650726
  @DF-RHF Final Energy:  -270.03006936861306
    Total Energy =                       -270.0300693686129989
  @DF-RHF Final Energy:  -270.03011410960352
    Total Energy =                       -270.0301141096034598
  @DF-RHF Final Energy:  -270.03015739843113
    Total Energy =                       -270.0301573984311858
  @DF-RHF Final Energy:  -270.03019842570336
    Total Energy =                       -270.0301984257033610
  @DF-RHF Final Energy:  -270.03023697094659
    Total Energy =                       -270.0302369709468167
  Basis Set: 6-31G*
  Basis Set:
  @DF-RHF Final Energy:  -270.03033388132906
    Total Energy =                       -270.0303338813291703
  Basis Set: 6-31G*
  Basis Set:
  Basis Set: 6-31G*
  Basis Set:
  @DF-RHF Final Energy:  -270.03039536145877
    Total Energy =                       -270.0303953614588863
  Basis Set: 6-31G*
  Basis Set:
  Basis Set: 6-31G*
  Basis Set:
  @DF-RHF Final Energy:  -270.03041138650190
    Total Energy =                       -270.0304113865018394
  Basis Set: 6-31G*
  Basis Set:
  Charge       = 0
  Multiplicity = 1
  Basis Set: 6-31G*
  Basis Set:

    Orbital Energies (a.u.)
    -----------------------

    Doubly Occupied:

       1A    -20.550428     2A    -11.327114     3A    -11.233013
       4A    -11.228886     5A    -11.222420     6A    -11.206082
       7A     -1.396136     8A     -1.075327     9A     -1.014915
      10A     -0.945007    11A     -0.828202    12A     -0.725974
      13A     -0.661593    14A     -0.637687    15A     -0.623121
      16A     -0.596009    17A     -0.582091    18A     -0.549919
      19A     -0.546295    20A     -0.502250    21A     -0.486998
      22A     -0.477910    23A     -0.477340    24A     -0.399428

  @DF-RHF Final Energy:  -270.03041165800863

   => Energetics <=

    Nuclear Repulsion Energy =            241.7320016569432823
    One-Electron Energy =                -844.9365360843567032
    Two-Electron Energy =                 333.1741227694050167
    DFT Exchange-Correlation Energy =       0.0000000000000000
    Empirical Dispersion Energy =           0.0000000000000000
    PCM Polarization Energy =               0.0000000000000000
    EFP Energy =                            0.0000000000000000
    Total Energy =                       -270.0304116580083473
    Molecular point group: c1
  Basis Set: 6-31G*
  Basis Set:

  -Total Gradient:
     Atom            X                  Y                   Z
    ------   -----------------  -----------------  -----------------
       1       -0.000015541264    -0.000039981009     0.000082231995
       2        0.000308781241    -0.003339668395    -0.001429923255
       3        0.000362035900     0.004682024459     0.002835323100
       4        0.000266938593     0.000096229633     0.000043592525
       5       -0.003498432599    -0.001510157743    -0.005421626121
       6       -0.000046299834     0.000015101174    -0.000098542740
       7       -0.000070213463    -0.000023201345     0.000118223728
       8       -0.000166393289    -0.000139131520     0.000113828610
       9        0.002810662085     0.000165921162     0.003859859754
      10       -0.000006873851     0.000019244180    -0.000040034156
      11        0.000042643930     0.000037818370    -0.000089219426
      12        0.000128140556    -0.000030811501     0.000078084159
      13       -0.000032622617     0.000043526890    -0.000000097535
      14       -0.000006385529     0.000090628601     0.000052815033
      15       -0.000048245431    -0.000021497136    -0.000044850379
      16       -0.000028194424    -0.000046045821    -0.000059665293

  **** Optimization is complete! (in 20 steps) ****
    Final optimized geometry and variables:
    Molecular point group: c1

    Geometry (in Angstrom), charge = 0, multiplicity = 1:

    O           -1.053168430747     0.863258257036    -0.610015413465
    C           -0.863569831360     0.091075440743     0.279661433661
    C            0.511230119950    -0.125704682045     0.887269316677
    C           -1.998193496534    -0.705835382416     0.886795539691
    C            1.695488773562     0.284116838289     0.007950237253
    H            0.599655345072    -1.173848582386     1.166246516325
    H            0.529678234727     0.429292501310     1.824479340185
    C            1.731840737728    -0.378803122368    -1.367926923709
    H            1.729297608808     1.364928037494    -0.076940985975
    H            2.598677198204     0.010942393693     0.549408011901
    H            2.648821348386    -0.120028632987    -1.888064022301
    H            0.899072992273    -0.066602736880    -1.983137593411
    H            1.702984960068    -1.462202621849    -1.277398402208
    H           -1.884631640127    -1.755582522699     0.630258706370
    H           -2.944266146454    -0.346891746335     0.505889304766
    H           -1.985971750684    -0.636542295436     1.970288734186

  Mulliken Charges: (a.u.)
   Center  Symbol    Alpha    Beta     Spin     Total
       1     O     4.26313  4.26313  0.00000 -0.52627
       2     C     2.73427  2.73427  0.00000  0.53145
       3     C     3.21010  3.21010  0.00000 -0.42019
       4     C     3.28809  3.28809  0.00000 -0.57619
       5     C     3.14673  3.14673  0.00000 -0.29345
       6     H     0.41418  0.41418  0.00000  0.17164
       7     H     0.40365  0.40365  0.00000  0.19270
       8     C     3.24812  3.24812  0.00000 -0.49624
       9     H     0.41077  0.41077  0.00000  0.17847
      10     H     0.42092  0.42092  0.00000  0.15816
      11     H     0.41875  0.41875  0.00000  0.16251
      12     H     0.40126  0.40126  0.00000  0.19747
      13     H     0.42686  0.42686  0.00000  0.14628
      14     H     0.40645  0.40645  0.00000  0.18710
      15     H     0.39675  0.39675  0.00000  0.20650
      16     H     0.40997  0.40997  0.00000  0.18007

   Total alpha = 24.00000, Total beta = 24.00000, Total charge =  0.00000
