                              Psi4 1.0.54 Driver

  ==> Input File <==

--------------------------------------------------------------------------
set {
	reference rhf
	basis cc-pvtz
}

set_num_threads( 4 )
memory 2 gb

molecule MOL {
0 1

H	 2.008611	 -0.593329	 0.838726
O	 1.583947	 -0.677544	 -0.001533
C	 0.489979	 0.078084	 0.002623
C	 -0.763662	 -0.754014	 0.000816
O	 0.539051	 1.259395	 -0.000088
C	 -2.038001	 0.074705	 -0.000833
H	 -0.712945	 -1.405886	 -0.864342
H	 -0.715137	 -1.405770	 0.866182
H	 -2.087267	 0.710831	 -0.874232
H	 -2.903419	 -0.576199	 -0.001922
H	 -2.089467	 0.710909	 0.872389

	symmetry c1
}
set optking {
	frozen_dihedral = ("
		1 2 3 5
	")
}

ee,wfn = optimize('scf', return_wfn=True)
oeprop( wfn, 'DIPOLE', 'QUADRUPOLE', 'MULLIKEN_CHARGES')
f=open( 'psi4out.xyz', 'w' )
f.write( "11  " )
f.write( str(ee) + "\n" )
f.write( MOL.save_string_xyz() )
f.close()
--------------------------------------------------------------------------

    Molecular point group: c1
  Charge       = 0
  Multiplicity = 1
  Basis Set: CC-PVTZ
  Basis Set:
  @DF-RHF Final Energy:  -266.93524498261638
    Total Energy =                       -266.9352449826162683
    Molecular point group: c1
  Basis Set: CC-PVTZ
  Basis Set:
  Basis Set: CC-PVTZ
  Basis Set:
  @DF-RHF Final Energy:  -266.93388631530115
    Total Energy =                       -266.9338863153010379
  Basis Set: CC-PVTZ
  Basis Set:
  Basis Set: CC-PVTZ
  Basis Set:
  @DF-RHF Final Energy:  -266.93636224983783
    Total Energy =                       -266.9363622498378277
  Basis Set: CC-PVTZ
  Basis Set:
  Basis Set: CC-PVTZ
  Basis Set:
  @DF-RHF Final Energy:  -266.93670779571607
    Total Energy =                       -266.9367077957160745
  Basis Set: CC-PVTZ
  Basis Set:
  Basis Set: CC-PVTZ
  Basis Set:
  @DF-RHF Final Energy:  -266.93671418933019
    Total Energy =                       -266.9367141893301323
  Basis Set: CC-PVTZ
  Basis Set:
  Basis Set: CC-PVTZ
  Basis Set:
  @DF-RHF Final Energy:  -266.93671519767685
    Total Energy =                       -266.9367151976766195
  Basis Set: CC-PVTZ
  Basis Set:
  Charge       = 0
  Multiplicity = 1
  Basis Set: CC-PVTZ
  Basis Set:

    Orbital Energies (a.u.)
    -----------------------

    Doubly Occupied:

       1A    -20.589246     2A    -20.550369     3A    -11.375007
       4A    -11.243509     5A    -11.219373     6A     -1.465856
       7A     -1.371267     8A     -1.065274     9A     -0.913399
      10A     -0.806462    11A     -0.712037    12A     -0.682313
      13A     -0.661274    14A     -0.613792    15A     -0.570973
      16A     -0.529018    17A     -0.525560    18A     -0.503934
      19A     -0.492963    20A     -0.449248

  @DF-RHF Final Energy:  -266.93671525477032

   => Energetics <=

    Nuclear Repulsion Energy =            179.4738225847798958
    One-Electron Energy =                -720.1393278336986441
    Two-Electron Energy =                 273.7287899941484284
    DFT Exchange-Correlation Energy =       0.0000000000000000
    Empirical Dispersion Energy =           0.0000000000000000
    PCM Polarization Energy =               0.0000000000000000
    EFP Energy =                            0.0000000000000000
    Total Energy =                       -266.9367152547703199
    Molecular point group: c1
  Basis Set: CC-PVTZ
  Basis Set:

  -Total Gradient:
     Atom            X                  Y                   Z
    ------   -----------------  -----------------  -----------------
       1       -0.003968415685    -0.006396665964     0.003345649154
       2        0.004636909492     0.008038577954    -0.007480452817
       3        0.000004335059    -0.001557416634     0.011298949646
       4       -0.000013556335    -0.000031266063     0.000059285379
       5       -0.000708071534    -0.000032330787    -0.007194129108
       6        0.000033585305     0.000000119748    -0.000017866142
       7       -0.000000439270    -0.000004362380    -0.000013749008
       8       -0.000006093063    -0.000017888721    -0.000003811699
       9       -0.000001334012     0.000004807076    -0.000006310561
      10        0.000023246663    -0.000008079801     0.000001524550
      11       -0.000000166619     0.000004505571     0.000010910607

  **** Optimization is complete! (in 7 steps) ****
    Final optimized geometry and variables:
    Molecular point group: c1

    Geometry (in Angstrom), charge = 0, multiplicity = 1:

    H            2.152252439461    -0.610615196194     0.653498905272
    O            1.607657928071    -0.672851102031    -0.113936969977
    C            0.491020650827     0.087536267791     0.004843548591
    C           -0.764883994731    -0.740536138224     0.040209157484
    O            0.532118547655     1.262042953802    -0.011261401792
    C           -2.043278573426     0.080939387218     0.046491272959
    H           -0.722297776368    -1.408460246632    -0.813413123896
    H           -0.700145389726    -1.381895551586     0.913936390215
    H           -2.109179254499     0.702383125860    -0.836533460897
    H           -2.906353144244    -0.572864924239     0.069896030352
    H           -2.084270496452     0.731976709546     0.909605797769

  Mulliken Charges: (a.u.)
   Center  Symbol    Alpha    Beta     Spin     Total
       1     H     0.38392  0.38392  0.00000  0.23217
       2     O     4.17679  4.17679  0.00000 -0.35359
       3     C     2.80282  2.80282  0.00000  0.39436
       4     C     3.09980  3.09980  0.00000 -0.19959
       5     O     4.16612  4.16612  0.00000 -0.33224
       6     C     3.13967  3.13967  0.00000 -0.27933
       7     H     0.43834  0.43834  0.00000  0.12331
       8     H     0.44702  0.44702  0.00000  0.10597
       9     H     0.44678  0.44678  0.00000  0.10644
      10     H     0.44991  0.44991  0.00000  0.10018
      11     H     0.44883  0.44883  0.00000  0.10234

   Total alpha = 20.00000, Total beta = 20.00000, Total charge = -0.00000

*** Psi4 exiting successfully. Buy a developer a beer!
