  ==> Input File <==

--------------------------------------------------------------------------
set {
	reference rhf
	basis 6-31G*
}

set_num_threads( 4 )
memory 2 gb

molecule MOL {
0 1

O	 1.808766	 1.250095	 0.342525
C	 1.705091	 0.115954	 0.001797
C	 0.436644	 -0.543358	 -0.482162
O	 2.721346	 -0.737485	 -0.000216
C	 -0.765421	 0.395948	 -0.501848
H	 0.637318	 -0.946831	 -1.470926
H	 0.253849	 -1.403458	 0.156221
C	 -2.035677	 -0.297298	 -0.996743
H	 -0.541437	 1.250133	 -1.133027
H	 -0.926046	 0.792174	 0.495906
C	 -3.251338	 0.630762	 -1.023748
H	 -1.867038	 -0.695559	 -1.996216
H	 -2.253609	 -1.154318	 -0.361207
C	 -4.520503	 -0.062793	 -1.517159
H	 -3.036185	 1.486149	 -1.660273
H	 -3.421615	 1.028719	 -0.025864
H	 -4.393125	 -0.441839	 -2.527265
H	 -5.364078	 0.620417	 -1.524643
H	 -4.781368	 -0.903253	 -0.880067
C	 4.024888	 -0.184556	 -0.001949
H	 4.179030	 0.422472	 -0.882452
H	 4.701782	 -1.024608	 -0.003642
H	 4.181981	 0.421185	 0.878906

	symmetry c1
}
set optking {
	frozen_dihedral = ("
		1 2 4 20
	")
}

ee = optimize('scf')
oeprop('DIPOLE', 'QUADRUPOLE', 'MULLIKEN_CHARGES')
f=open( 'psi4out.xyz', 'w' )
f.write( "23  " )
f.write( str(ee) + "\n" )
f.write( MOL.save_string_xyz() )
f.close()
--------------------------------------------------------------------------

    Molecular point group: c1
  Charge       = 0
  Multiplicity = 1
  Basis Set: 6-31G*
  Basis Set:
  @DF-RHF Final Energy:  -422.97378267328122
    Total Energy =                       -422.9737826732816757
    Molecular point group: c1
  Basis Set: 6-31G*
  Basis Set:
  Basis Set: 6-31G*
  Basis Set:
  @DF-RHF Final Energy:  -422.97018413845080
    Total Energy =                       -422.9701841384501222
  Basis Set: 6-31G*
  Basis Set:
  Basis Set: 6-31G*
  Basis Set:
  @DF-RHF Final Energy:  -422.97403060380793
    Total Energy =                       -422.9740306038073641
  Basis Set: 6-31G*
  Basis Set:
  Basis Set: 6-31G*
  Basis Set:
  @DF-RHF Final Energy:  -422.97408920080761
    Total Energy =                       -422.9740892008076116
  Basis Set: 6-31G*
  Basis Set:
  @DF-RHF Final Energy:  -422.97409620100927
    Total Energy =                       -422.9740962010091607
  @DF-RHF Final Energy:  -422.97409979269219
    Total Energy =                       -422.9740997926918453
  @DF-RHF Final Energy:  -422.97014140355896
    Total Energy =                       -422.9701414035592961
  @DF-RHF Final Energy:  -422.97375217592753
    Total Energy =                       -422.9737521759275296
  @DF-RHF Final Energy:  -422.97408954295094
    Total Energy =                       -422.9740895429515604
  @DF-RHF Final Energy:  -422.97409985368478
    Total Energy =                       -422.9740998536844927
  Basis Set: 6-31G*
  Basis Set:
  @DF-RHF Final Energy:  -422.97377249022674
    Total Energy =                       -422.9737724902270202
  Basis Set: 6-31G*
  Basis Set:
  Basis Set: 6-31G*
  Basis Set:
  @DF-RHF Final Energy:  -422.97408871680028
    Total Energy =                       -422.9740887168002246
  Basis Set: 6-31G*
  Basis Set:
  Basis Set: 6-31G*
  Basis Set:
  @DF-RHF Final Energy:  -422.97410104449472
    Total Energy =                       -422.9741010444962512
  Basis Set: 6-31G*
  Basis Set:
  Charge       = 0
  Multiplicity = 1
  Basis Set: 6-31G*
  Basis Set:

    Orbital Energies (a.u.)
    -----------------------

    Doubly Occupied:

       1A    -20.601669     2A    -20.546410     3A    -11.372557
       4A    -11.281905     5A    -11.235672     6A    -11.219361
       7A    -11.217974     8A    -11.216529     9A    -11.209697
      10A     -1.467923    11A     -1.363067    12A     -1.093221
      13A     -1.043431    14A     -0.986599    15A     -0.932737
      16A     -0.844095    17A     -0.795156    18A     -0.767030
      19A     -0.696524    20A     -0.682759    21A     -0.671599
      22A     -0.651515    23A     -0.609534    24A     -0.600103
      25A     -0.573318    26A     -0.562345    27A     -0.553899
      28A     -0.526046    29A     -0.518927    30A     -0.507718
      31A     -0.484530    32A     -0.469865    33A     -0.466259
      34A     -0.462326    35A     -0.454534    36A     -0.434719

  @DF-RHF Final Energy:  -422.97410168804225

   => Energetics <=

    Nuclear Repulsion Energy =            451.9826428215088185
    One-Electron Energy =               -1471.6703863950656341
    Two-Electron Energy =                 596.7136418855150168
    DFT Exchange-Correlation Energy =       0.0000000000000000
    Empirical Dispersion Energy =           0.0000000000000000
    PCM Polarization Energy =               0.0000000000000000
    EFP Energy =                            0.0000000000000000
    Total Energy =                       -422.9741016880418556
    Molecular point group: c1
  Basis Set: 6-31G*
  Basis Set:

  -Total Gradient:
     Atom            X                  Y                   Z
    ------   -----------------  -----------------  -----------------
       1       -0.001798111989    -0.001161550286     0.006083835306
       2        0.002862687106     0.001499299759    -0.011480591382
       3        0.000044938055    -0.000049479233    -0.000078512300
       4       -0.001409653195     0.000038608445     0.010546902362
       5       -0.000033306751    -0.000013774805     0.000052497146
       6       -0.000008622398     0.000030859559     0.000004289732
       7       -0.000006631529     0.000018687659     0.000020833047
       8       -0.000000715384     0.000013842767    -0.000019474633
       9        0.000003100950    -0.000011592821    -0.000011103808
      10       -0.000001143247     0.000010385154    -0.000003877028
      11       -0.000002767937    -0.000000436223    -0.000007323890
      12       -0.000000190603     0.000011133488    -0.000008801608
      13        0.000006916606    -0.000004457164    -0.000010884714
      14       -0.000004118283    -0.000004278903     0.000020702096
      15       -0.000003015997    -0.000006895594    -0.000009090966
      16        0.000004935849     0.000010453728    -0.000001580977
      17        0.000002453074     0.000005790339     0.000001124948
      18       -0.000001442983    -0.000001952219     0.000006049507
      19       -0.000002097788    -0.000005652448    -0.000002815354
      20        0.000358884365    -0.000364398354    -0.005069880271
      21       -0.000003625401    -0.000005431428    -0.000015482627
      22        0.000000688858     0.000000387536    -0.000009367689
      23       -0.000009161374    -0.000009548953    -0.000007446902

  **** Optimization is complete! (in 14 steps) ****
    Final optimized geometry and variables:
    Molecular point group: c1

    Geometry (in Angstrom), charge = 0, multiplicity = 1:

    O            1.783997335765     1.229803726952     0.653949403076
    C            1.665622857627     0.077577519824     0.389278259691
    C            0.392339430099    -0.590788038758    -0.067694500984
    O            2.654174611503    -0.802393018087     0.516521779952
    C           -0.819406619174     0.336103328866    -0.054581339027
    H            0.575910186190    -0.981001850869    -1.065891774949
    H            0.233914215276    -1.459817166703     0.564155760354
    C           -2.091777858253    -0.364369382682    -0.533573164948
    H           -0.615470836310     1.199872601995    -0.679140674101
    H           -0.965719978378     0.718612754480     0.951042674470
    C           -3.317913173335     0.550107461354    -0.522424730010
    H           -1.939062699441    -0.746060565329    -1.542062020731
    H           -2.287230219357    -1.232970747999     0.093491515246
    C           -4.589655242542    -0.151355531955    -0.997730502428
    H           -3.125919551274     1.416049715138    -1.151998386271
    H           -3.471183434010     0.933091771947     0.484014360584
    H           -4.480053192324    -0.515347427399    -2.015471930285
    H           -5.440828266653     0.522065555368    -0.977653200814
    H           -4.827159686056    -1.003241339407    -0.366727007951
    C            3.972564262730    -0.287049513120     0.562000305638
    H            4.167546923272     0.325743088347    -0.307330323519
    H            4.626241986828    -1.145337953198     0.565625869370
    H            4.124595810116     0.302270703421     1.454316835782

  Mulliken Charges: (a.u.)
   Center  Symbol    Alpha    Beta     Spin     Total
       1     O     4.28319  4.28319  0.00000 -0.56637
       2     C     2.60464  2.60464  0.00000  0.79072
       3     C     3.20925  3.20925  0.00000 -0.41850
       4     O     4.30838  4.30838  0.00000 -0.61677
       5     C     3.15266  3.15266  0.00000 -0.30531
       6     H     0.40204  0.40204  0.00000  0.19592
       7     H     0.39954  0.39954  0.00000  0.20093
       8     C     3.15329  3.15329  0.00000 -0.30657
       9     H     0.41076  0.41076  0.00000  0.17848
      10     H     0.41254  0.41254  0.00000  0.17491
      11     C     3.15156  3.15156  0.00000 -0.30311
      12     H     0.42418  0.42418  0.00000  0.15165
      13     H     0.42386  0.42386  0.00000  0.15228
      14     C     3.23959  3.23959  0.00000 -0.47917
      15     H     0.42131  0.42131  0.00000  0.15738
      16     H     0.42131  0.42131  0.00000  0.15737
      17     H     0.42187  0.42187  0.00000  0.15626
      18     H     0.41846  0.41846  0.00000  0.16309
      19     H     0.42177  0.42177  0.00000  0.15646
      20     C     3.09273  3.09273  0.00000 -0.18547
      21     H     0.41279  0.41279  0.00000  0.17441
      22     H     0.40799  0.40799  0.00000  0.18402
      23     H     0.40631  0.40631  0.00000  0.18739

   Total alpha = 36.00000, Total beta = 36.00000, Total charge =  0.00000
