                              Psi4 1.0.54 Driver

  ==> Input File <==

--------------------------------------------------------------------------
set {
	reference rhf
	basis cc-pvtz
}

set_num_threads( 4 )
memory 2 gb

molecule MOL {
0 1

O	 -2.440701	 -0.934798	 -0.415053
C	 -1.922978	 0.063265	 -0.045005
C	 -2.632749	 1.372204	 0.158357
O	 -0.637375	 0.157174	 0.243149
H	 -2.187724	 2.129143	 -0.474664
H	 -3.677681	 1.257276	 -0.079438
H	 -2.516788	 1.693160	 1.185542
C	 0.162530	 -1.009518	 0.097799
C	 1.587210	 -0.664190	 0.477086
H	 0.096803	 -1.356267	 -0.924704
H	 -0.233803	 -1.785900	 0.736810
C	 2.256770	 0.342732	 -0.454344
H	 2.154716	 -1.590834	 0.479041
H	 1.598751	 -0.289614	 1.496104
C	 3.568495	 0.881203	 0.106942
H	 2.442111	 -0.129529	 -1.415446
H	 1.577458	 1.166335	 -0.641584
H	 4.023977	 1.589648	 -0.574987
H	 4.281501	 0.081225	 0.277385
H	 3.410079	 1.388350	 1.052839

	symmetry c1
}
set optking {
	frozen_dihedral = ("
		16 12 9 8
	")
}

ee,wfn = optimize('scf', return_wfn=True)
oeprop( wfn, 'DIPOLE', 'QUADRUPOLE', 'MULLIKEN_CHARGES')
f=open( 'psi4out.xyz', 'w' )
f.write( "20  " )
f.write( str(ee) + "\n" )
f.write( MOL.save_string_xyz() )
f.close()
--------------------------------------------------------------------------

    Molecular point group: c1
  Charge       = 0
  Multiplicity = 1
  Basis Set: CC-PVTZ
  Basis Set:
  @DF-RHF Final Energy:  -384.08701381795987
    Total Energy =                       -384.0870138179595870
    Molecular point group: c1
  Basis Set: CC-PVTZ
  Basis Set:
  Basis Set: CC-PVTZ
  Basis Set:
  @DF-RHF Final Energy:  -384.08706693542229
    Total Energy =                       -384.0870669354222855
  Basis Set: CC-PVTZ
  Basis Set:
  Basis Set: CC-PVTZ
  Basis Set:
  @DF-RHF Final Energy:  -384.08692118152038
    Total Energy =                       -384.0869211815206654
  Basis Set: CC-PVTZ
  Basis Set:
  Basis Set: CC-PVTZ
  Basis Set:
  @DF-RHF Final Energy:  -384.08709009477639
    Total Energy =                       -384.0870900947768405
  Basis Set: CC-PVTZ
  Basis Set:
  Charge       = 0
  Multiplicity = 1
  Basis Set: CC-PVTZ
  Basis Set:

    Orbital Energies (a.u.)
    -----------------------

    Doubly Occupied:

       1A    -20.594579     2A    -20.532763     3A    -11.366826
       4A    -11.280213     5A    -11.231825     6A    -11.223467
       7A    -11.218775     8A    -11.211358     9A     -1.471258
      10A     -1.365388    11A     -1.086952    12A     -1.029317
      13A     -0.982194    14A     -0.881147    15A     -0.811638
      16A     -0.777727    17A     -0.692856    18A     -0.686226
      19A     -0.670283    20A     -0.632278    21A     -0.603435
      22A     -0.593802    23A     -0.573560    24A     -0.552229
      25A     -0.543061    26A     -0.534003    27A     -0.514063
      28A     -0.483546    29A     -0.475579    30A     -0.473769
      31A     -0.451611    32A     -0.442248

  @DF-RHF Final Energy:  -384.08709128062105

   => Energetics <=

    Nuclear Repulsion Energy =            386.0214215696266820
    One-Electron Energy =               -1288.2410683499533661
    Two-Electron Energy =                 518.1325554997055178
    DFT Exchange-Correlation Energy =       0.0000000000000000
    Empirical Dispersion Energy =           0.0000000000000000
    PCM Polarization Energy =               0.0000000000000000
    EFP Energy =                            0.0000000000000000
    Total Energy =                       -384.0870912806211663
    Molecular point group: c1
  Basis Set: CC-PVTZ
  Basis Set:

  -Total Gradient:
     Atom            X                  Y                   Z
    ------   -----------------  -----------------  -----------------
       1        0.000000651573    -0.000035691768    -0.000011850547
       2        0.000019891307     0.000018612011     0.000024227400
       3        0.000003231132     0.000010720617    -0.000016940038
       4       -0.000000589150    -0.000012421159    -0.000030108383
       5        0.000000831769     0.000015846975     0.000004798975
       6        0.000000560992    -0.000006552577    -0.000000329837
       7       -0.000003512593     0.000008548041     0.000013603861
       8       -0.000580233997     0.001243020161     0.000957386306
       9        0.001253548473    -0.001903087409    -0.001161907120
      10       -0.000002214475     0.000004786202    -0.000005308712
      11        0.000006514114    -0.000001660946    -0.000002361523
      12       -0.002681590053     0.001305803696    -0.000524780374
      13        0.000002715604     0.000000248064     0.000004406854
      14        0.000001434530     0.000002702221     0.000003399044
      15       -0.000005169147    -0.000000770098    -0.000002261566
      16        0.001989242311    -0.000657729642     0.000739938963
      17       -0.000013765796     0.000005453499     0.000003277176
      18        0.000000462355    -0.000009104263     0.000012792058
      19       -0.000001726224     0.000013784705     0.000000164782
      20        0.000009717275    -0.000002508330    -0.000008147316

  **** Optimization is complete! (in 5 steps) ****
    Final optimized geometry and variables:
    Molecular point group: c1

    Geometry (in Angstrom), charge = 0, multiplicity = 1:

    O           -2.415884088466    -0.965787947216    -0.469665623747
    C           -1.908408646299     0.028506052967    -0.076219600470
    C           -2.627736821415     1.329890148584     0.140002114420
    O           -0.626696521506     0.124371760208     0.228252025099
    H           -2.180484270886     2.098960855542    -0.476594523655
    H           -3.669437294089     1.212795991753    -0.110602386002
    H           -2.524246830443     1.635346120762     1.173179858326
    C            0.180728835671    -1.035710301121     0.073976008702
    C            1.600246066818    -0.683285185755     0.467710296487
    H            0.122115052396    -1.371477133699    -0.952800073291
    H           -0.214414773642    -1.821625942245     0.701852457356
    C            2.277798743529     0.319232729853    -0.464747551475
    H            2.175893553728    -1.603586945098     0.497752797874
    H            1.585703579820    -0.291797324051     1.480396275717
    C            3.594287496117     0.844949376161     0.099435498345
    H            2.475042142104    -0.161030036821    -1.419195984511
    H            1.608756145291     1.149450665421    -0.656217300546
    H            4.071092907964     1.528954982300    -0.592839908156
    H            4.289523466612     0.034849005690     0.294462925000
    H            3.435837590886     1.374922269829     1.032509391855

  Mulliken Charges: (a.u.)
   Center  Symbol    Alpha    Beta     Spin     Total
       1     O     4.19714  4.19714  0.00000 -0.39428
       2     C     2.80907  2.80907  0.00000  0.38187
       3     C     3.13833  3.13833  0.00000 -0.27666
       4     O     4.15355  4.15355  0.00000 -0.30710
       5     H     0.44619  0.44619  0.00000  0.10761
       6     H     0.43778  0.43778  0.00000  0.12444
       7     H     0.44569  0.44569  0.00000  0.10862
       8     C     2.99200  2.99200  0.00000  0.01600
       9     C     3.08464  3.08464  0.00000 -0.16927
      10     H     0.45134  0.45134  0.00000  0.09731
      11     H     0.44445  0.44445  0.00000  0.11110
      12     C     3.08694  3.08694  0.00000 -0.17388
      13     H     0.45000  0.45000  0.00000  0.10000
      14     H     0.45338  0.45338  0.00000  0.09323
      15     C     3.14995  3.14995  0.00000 -0.29991
      16     H     0.45425  0.45425  0.00000  0.09151
      17     H     0.44795  0.44795  0.00000  0.10410
      18     H     0.44767  0.44767  0.00000  0.10467
      19     H     0.45550  0.45550  0.00000  0.08899
      20     H     0.45417  0.45417  0.00000  0.09166

   Total alpha = 32.00000, Total beta = 32.00000, Total charge = -0.00000

*** Psi4 exiting successfully. Buy a developer a beer!
