  ==> Input File <==

--------------------------------------------------------------------------
set {
	reference rhf
	basis 6-31G*
}

set_num_threads( 4 )
memory 2 gb

molecule MOL {
0 1

O	 0.967018	 1.393844	 -0.652172
C	 -0.114198	 1.300104	 -0.167965
C	 -1.062328	 2.447149	 0.054935
O	 -0.632575	 0.154573	 0.251549
H	 -1.296113	 2.529294	 1.110181
H	 -0.611954	 3.363352	 -0.296592
H	 -1.990529	 2.262876	 -0.473500
C	 0.160891	 -1.019931	 0.106212
C	 1.589627	 -0.672828	 0.480843
H	 0.089836	 -1.367806	 -0.916050
H	 -0.238459	 -1.792301	 0.749618
C	 2.246377	 0.346236	 -0.452210
H	 2.163194	 -1.597435	 0.473358
H	 1.604769	 -0.303424	 1.502885
C	 3.691736	 0.652107	 -0.061850
H	 2.219579	 -0.032311	 -1.472055
H	 1.666466	 1.263317	 -0.447249
H	 4.134505	 1.377213	 -0.737283
H	 4.305508	 -0.243868	 -0.089969
H	 3.748266	 1.059562	 0.943567

	symmetry c1
}
set optking {
	frozen_dihedral = ("
		2 4 8 10
	")
}

ee = optimize('scf')
oeprop('DIPOLE', 'QUADRUPOLE', 'MULLIKEN_CHARGES')
f=open( 'psi4out.xyz', 'w' )
f.write( "20  " )
f.write( str(ee) + "\n" )
f.write( MOL.save_string_xyz() )
f.close()
--------------------------------------------------------------------------

    Molecular point group: c1
  Charge       = 0
  Multiplicity = 1
  Basis Set: 6-31G*
  Basis Set:
  @DF-RHF Final Energy:  -383.37930360454590
    Total Energy =                       -383.3793036045460667
    Molecular point group: c1
  Basis Set: 6-31G*
  Basis Set:
  Basis Set: 6-31G*
  Basis Set:
  @DF-RHF Final Energy:  -383.62934643989826
    Total Energy =                       -383.6293464398978585
  Basis Set: 6-31G*
  Basis Set:
  Basis Set: 6-31G*
  Basis Set:
  @DF-RHF Final Energy:  -383.75305014244395
    Total Energy =                       -383.7530501424437261
  Basis Set: 6-31G*
  Basis Set:
  Basis Set: 6-31G*
  Basis Set:
  @DF-RHF Final Energy:  -383.82972969810646
    Total Energy =                       -383.8297296981062345
  Basis Set: 6-31G*
  Basis Set:
  @DF-RHF Final Energy:  -383.88012135183578
    Total Energy =                       -383.8801213518360100
  @DF-RHF Final Energy:  -383.90561851529048
    Total Energy =                       -383.9056185152909393
  @DF-RHF Final Energy:  -383.91933258383409
    Total Energy =                       -383.9193325838343753
  @DF-RHF Final Energy:  -383.92662786819670
    Total Energy =                       -383.9266278681965332
  @DF-RHF Final Energy:  -383.92999711517677
    Total Energy =                       -383.9299971151768887
  @DF-RHF Final Energy:  -383.93168045806857
    Total Energy =                       -383.9316804580687403
  @DF-RHF Final Energy:  -383.93231441174856
    Total Energy =                       -383.9323144117488482
  @DF-RHF Final Energy:  -383.93280084888045
    Total Energy =                       -383.9328008488802197
  @DF-RHF Final Energy:  -383.93308141019139
    Total Energy =                       -383.9330814101913347
  @DF-RHF Final Energy:  -383.93325423718170
    Total Energy =                       -383.9332542371813588
  @DF-RHF Final Energy:  -383.93331480269643
    Total Energy =                       -383.9333148026963727
  @DF-RHF Final Energy:  -383.93333254226462
    Total Energy =                       -383.9333325422644521
  @DF-RHF Final Energy:  -383.93335554166538
    Total Energy =                       -383.9333555416653780
  @DF-RHF Final Energy:  -383.93336001314282
    Total Energy =                       -383.9333600131427602
  @DF-RHF Final Energy:  -383.93335887359416
    Total Energy =                       -383.9333588735943295
  @DF-RHF Final Energy:  -383.93336012002794
    Total Energy =                       -383.9333601200279418
  @DF-RHF Final Energy:  -383.93336004257719
    Total Energy =                       -383.9333600425773056
  @DF-RHF Final Energy:  -383.93336006688827
    Total Energy =                       -383.9333600668883264
  @DF-RHF Final Energy:  -383.93336028545758
    Total Energy =                       -383.9333602854579794
  @DF-RHF Final Energy:  -383.93336038398974
    Total Energy =                       -383.9333603839895659
  @DF-RHF Final Energy:  -383.93336070269396
    Total Energy =                       -383.9333607026940172
  @DF-RHF Final Energy:  -383.93336050849365
    Total Energy =                       -383.9333605084937062
  @DF-RHF Final Energy:  -383.93336072156313
    Total Energy =                       -383.9333607215634174
  @DF-RHF Final Energy:  -383.93336064599504
    Total Energy =                       -383.9333606459952080
  @DF-RHF Final Energy:  -383.93336027946395
    Total Energy =                       -383.9333602794640683
  @DF-RHF Final Energy:  -383.93336067259776
    Total Energy =                       -383.9333606725975869
  @DF-RHF Final Energy:  -383.93336051739612
    Total Energy =                       -383.9333605173959540
  @DF-RHF Final Energy:  -383.93336059128342
    Total Energy =                       -383.9333605912830762
  @DF-RHF Final Energy:  -383.93336041371231
    Total Energy =                       -383.9333604137127622
  @DF-RHF Final Energy:  -383.93336055048843
    Total Energy =                       -383.9333605504884872
  @DF-RHF Final Energy:  -383.93336043806181
    Total Energy =                       -383.9333604380617544
  @DF-RHF Final Energy:  -383.93336020941854
    Total Energy =                       -383.9333602094183107
  Basis Set: 6-31G*
  Basis Set:
  @DF-RHF Final Energy:  -383.93335991010991
    Total Energy =                       -383.9333599101100845
  Basis Set: 6-31G*
  Basis Set:
  Basis Set: 6-31G*
  Basis Set:
  @DF-RHF Final Energy:  -383.93336042676862
    Total Energy =                       -383.9333604267682176
  Basis Set: 6-31G*
  Basis Set:
  Basis Set: 6-31G*
  Basis Set:
  @DF-RHF Final Energy:  -383.93336016083941
    Total Energy =                       -383.9333601608394702
  Basis Set: 6-31G*
  Basis Set:
  Charge       = 0
  Multiplicity = 1
  Basis Set: 6-31G*
  Basis Set:

    Orbital Energies (a.u.)
    -----------------------

    Doubly Occupied:

       1A    -20.599599     2A    -20.543914     3A    -11.375764
       4A    -11.288383     5A    -11.232495     6A    -11.225891
       7A    -11.207704     8A    -11.205848     9A     -1.464213
      10A     -1.362903    11A     -1.078155    12A     -1.026672
      13A     -0.978684    14A     -0.892456    15A     -0.809253
      16A     -0.751544    17A     -0.691797    18A     -0.681627
      19A     -0.665920    20A     -0.622172    21A     -0.602269
      22A     -0.592416    23A     -0.567757    24A     -0.556852
      25A     -0.537525    26A     -0.523826    27A     -0.515651
      28A     -0.484375    29A     -0.468475    30A     -0.460207
      31A     -0.443229    32A     -0.432450

  @DF-RHF Final Energy:  -383.93335944818944

   => Energetics <=

    Nuclear Repulsion Energy =            392.8531618742725868
    One-Electron Energy =               -1301.7929904155005261
    Two-Electron Energy =                 525.0064690930385041
    DFT Exchange-Correlation Energy =       0.0000000000000000
    Empirical Dispersion Energy =           0.0000000000000000
    PCM Polarization Energy =               0.0000000000000000
    EFP Energy =                            0.0000000000000000
    Total Energy =                       -383.9333594481894352
    Molecular point group: c1
  Basis Set: 6-31G*
  Basis Set:

  -Total Gradient:
     Atom            X                  Y                   Z
    ------   -----------------  -----------------  -----------------
       1       -0.000196430011    -0.000416064632    -0.000922513783
       2        0.002332020708     0.001934528187     0.006415093780
       3        0.000200948302    -0.000038503301     0.000671419938
       4       -0.005284459713    -0.002679594782    -0.009480164827
       5        0.000116441625    -0.000192744519    -0.000107592172
       6        0.000036070300    -0.000018718538    -0.000134842396
       7        0.000006511653     0.000062915113    -0.000086157093
       8        0.006602865784     0.008589276150     0.001045317888
       9        0.000343218439     0.000245323928     0.000149955197
      10       -0.004884430378    -0.006464645876     0.002570328724
      11        0.000552908058    -0.000922480292    -0.000561659323
      12       -0.000429809454     0.000035003343    -0.000480510362
      13        0.000034906677     0.000113183575    -0.000079713112
      14       -0.000162850351    -0.000622719162     0.000301048427
      15        0.000057213274     0.000322788439    -0.000205106815
      16        0.000067224818    -0.000125653358     0.000048248196
      17        0.000462039656     0.000299821535     0.000840595900
      18        0.000068934000    -0.000037273204    -0.000011979761
      19        0.000025102322    -0.000063490985    -0.000037979393
      20        0.000051574296    -0.000020951619     0.000066210987

    Molecular point group: c1

    Geometry (in Angstrom), charge = 0, multiplicity = 1:

    O           -0.504284219335     1.226469507656    -0.908815748286
    C           -1.353708926195     0.845712283509    -0.170906893845
    C           -2.441990416637     1.715964905290     0.398966704234
    O           -1.489309414605    -0.405947093704     0.235043574028
    H           -2.369429191065     1.725474237225     1.480503713411
    H           -2.344591161125     2.719236654951     0.011713987743
    H           -3.412495166574     1.309496131861     0.139152080633
    C           -0.464160153141    -1.390524949763     0.079149881986
    C            0.940250395833    -1.052069213746     0.588362277702
    H           -0.482974814227    -1.764980985820    -0.937142769224
    H           -0.846119755769    -2.198191113734     0.688101637381
    C            1.958784640279    -0.466531925690    -0.396347230927
    H            1.341059308997    -1.996211105905     0.952142043036
    H            0.846560835102    -0.419279701845     1.467821208803
    C            3.380213366828    -0.519819429264     0.166370128230
    H            1.920039748661    -1.030994429799    -1.325420633280
    H            1.703249948017     0.552385891380    -0.640834361217
    H            4.090398154777    -0.089110060034    -0.532446495606
    H            3.693143259289    -1.541048543908     0.368040471284
    H            3.456418758806     0.037352301870     1.096498408275

  Mulliken Charges: (a.u.)
   Center  Symbol    Alpha    Beta     Spin     Total
       1     O     4.28221  4.28221  0.00000 -0.56441
       2     C     2.61806  2.61806  0.00000  0.76388
       3     C     3.28188  3.28188  0.00000 -0.56376
       4     O     4.31382  4.31382  0.00000 -0.62764
       5     H     0.40194  0.40194  0.00000  0.19612
       6     H     0.39775  0.39775  0.00000  0.20450
       7     H     0.39975  0.39975  0.00000  0.20049
       8     C     2.99326  2.99326  0.00000  0.01348
       9     C     3.17836  3.17836  0.00000 -0.35672
      10     H     0.41163  0.41163  0.00000  0.17674
      11     H     0.40928  0.40928  0.00000  0.18144
      12     C     3.15239  3.15239  0.00000 -0.30479
      13     H     0.41881  0.41881  0.00000  0.16239
      14     H     0.41472  0.41472  0.00000  0.17055
      15     C     3.24290  3.24290  0.00000 -0.48580
      16     H     0.42495  0.42495  0.00000  0.15009
      17     H     0.39312  0.39312  0.00000  0.21376
      18     H     0.41739  0.41739  0.00000  0.16522
      19     H     0.42497  0.42497  0.00000  0.15006
      20     H     0.42281  0.42281  0.00000  0.15438

   Total alpha = 32.00000, Total beta = 32.00000, Total charge =  0.00000
