  ==> Input File <==

--------------------------------------------------------------------------
set {
	reference rhf
	basis 6-31G*
}

set_num_threads( 1 )
memory 2 gb

molecule MOL {
0 1

H	 0.220249	 -3.246570	 1.476619
O	 0.718673	 -2.550048	 1.060462
C	 -0.086656	 -1.498815	 0.909568
C	 0.624473	 -0.343591	 0.253101
O	 -1.220161	 -1.515744	 1.264385
C	 -0.265902	 0.883932	 0.072916
H	 1.500791	 -0.127403	 0.855349
H	 1.001306	 -0.699054	 -0.702616
C	 -1.728698	 0.646073	 0.462102
H	 -0.209144	 1.219470	 -0.958188
H	 0.135059	 1.692851	 0.673903
C	 -2.482460	 -0.343073	 -0.431425
H	 -2.245265	 1.602650	 0.432430
H	 -1.779332	 0.308348	 1.496285
C	 -3.960546	 -0.461025	 -0.060175
H	 -2.395034	 -0.026811	 -1.468912
H	 -2.024850	 -1.327147	 -0.371646
H	 -4.472726	 -1.168004	 -0.705284
H	 -4.465146	 0.496508	 -0.151489
H	 -4.081218	 -0.800940	 0.964585

	symmetry c1
}
set optking {
	frozen_dihedral = ("
		16 12 9 6,
		12 9 6 10,
		5 3 4 7,
		1 2 3 5
	")
}

ee = energy('scf')
oeprop('DIPOLE', 'QUADRUPOLE', 'MULLIKEN_CHARGES')
f=open( 'psi4out.xyz', 'w' )
f.write( "20  " )
f.write( str(ee) + "\n" )
f.write( MOL.save_string_xyz() )
f.close()
--------------------------------------------------------------------------

    Molecular point group: c1

    Geometry (in Angstrom), charge = 0, multiplicity = 1:

       Center              X                  Y                   Z               Mass
    ------------   -----------------  -----------------  -----------------  -----------------
           H          1.269330266956    -2.552912656921     1.018226871344     1.007825032070
           O          1.767754266956    -1.856390656921     0.602069871344    15.994914619560
           C          0.962425266956    -0.805157656921     0.451175871344    12.000000000000
           C          1.673554266956     0.350066343079    -0.205291128656    12.000000000000
           O         -0.171079733044    -0.822086656921     0.805992871344    15.994914619560
           C          0.783179266956     1.577589343079    -0.385476128656    12.000000000000
           H          2.549872266956     0.566254343079     0.396956871344     1.007825032070
           H          2.050387266956    -0.005396656921    -1.161008128656     1.007825032070
           C         -0.679616733044     1.339730343079     0.003709871344    12.000000000000
           H          0.839937266956     1.913127343079    -1.416580128656     1.007825032070
           H          1.184140266956     2.386508343079     0.215510871344     1.007825032070
           C         -1.433378733044     0.350584343079    -0.889817128656    12.000000000000
           H         -1.196183733044     2.296307343079    -0.025962128656     1.007825032070
           H         -0.730250733044     1.002005343079     1.037892871344     1.007825032070
           C         -2.911464733044     0.232632343079    -0.518567128656    12.000000000000
           H         -1.345952733044     0.666846343079    -1.927304128656     1.007825032070
           H         -0.975768733044    -0.633489656921    -0.830038128656     1.007825032070
           H         -3.423644733044    -0.474346656921    -1.163676128656     1.007825032070
           H         -3.416064733044     1.190165343079    -0.609881128656     1.007825032070
           H         -3.032136733044    -0.107282656921     0.506192871344     1.007825032070

  Charge       = 0
  Multiplicity = 1
  Basis Set: 6-31G*
  Basis Set:

    Orbital Energies (a.u.)
    -----------------------

    Doubly Occupied:

       1A    -20.616153     2A    -20.550042     3A    -11.385901
       4A    -11.242373     5A    -11.221089     6A    -11.195022
       7A    -11.192947     8A    -11.190294     9A     -1.481515
      10A     -1.376714    11A     -1.088279    12A     -1.029423
      13A     -0.949982    14A     -0.862629    15A     -0.812774
      16A     -0.771367    17A     -0.715274    18A     -0.690630
      19A     -0.666542    20A     -0.629392    21A     -0.603922
      22A     -0.573623    23A     -0.560536    24A     -0.548766
      25A     -0.536062    26A     -0.509344    27A     -0.503912
      28A     -0.488269    29A     -0.458097    30A     -0.441708
      31A     -0.422812    32A     -0.416174

  @DF-RHF Final Energy:  -383.89727501366849

   => Energetics <=

    Nuclear Repulsion Energy =            407.3051004985653663
    One-Electron Energy =               -1330.9416211181428480
    Two-Electron Energy =                 539.7392456059096730
    DFT Exchange-Correlation Energy =       0.0000000000000000
    Empirical Dispersion Energy =           0.0000000000000000
    PCM Polarization Energy =               0.0000000000000000
    EFP Energy =                            0.0000000000000000
    Total Energy =                       -383.8972750136678087

  Mulliken Charges: (a.u.)
   Center  Symbol    Alpha    Beta     Spin     Total
       1     H     0.26789  0.26789  0.00000  0.46423
       2     O     4.34952  4.34952  0.00000 -0.69903
       3     C     2.62397  2.62397  0.00000  0.75205
       4     C     3.21452  3.21452  0.00000 -0.42905
       5     O     4.28039  4.28039  0.00000 -0.56079
       6     C     3.15823  3.15823  0.00000 -0.31646
       7     H     0.39315  0.39315  0.00000  0.21371
       8     H     0.39382  0.39382  0.00000  0.21236
       9     C     3.16030  3.16030  0.00000 -0.32060
      10     H     0.41613  0.41613  0.00000  0.16775
      11     H     0.41529  0.41529  0.00000  0.16941
      12     C     3.14596  3.14596  0.00000 -0.29191
      13     H     0.42813  0.42813  0.00000  0.14375
      14     H     0.39997  0.39997  0.00000  0.20005
      15     C     3.23748  3.23748  0.00000 -0.47497
      16     H     0.43539  0.43539  0.00000  0.12921
      17     H     0.41074  0.41074  0.00000  0.17852
      18     H     0.42419  0.42419  0.00000  0.15162
      19     H     0.42600  0.42600  0.00000  0.14800
      20     H     0.41893  0.41893  0.00000  0.16213

   Total alpha = 32.00000, Total beta = 32.00000, Total charge = -0.00000
