                              Psi4 1.0.54 Driver

  ==> Input File <==

--------------------------------------------------------------------------
set {
	reference rhf
	basis cc-pvtz
}

set_num_threads( 4 )
memory 2 gb

molecule MOL {
0 1

H	 -3.410827	 -0.936393	 -0.380485
O	 -3.515113	 -0.019339	 -0.206321
C	 -2.302264	 0.528872	 0.237390
C	 -1.175688	 -0.398187	 -0.171891
H	 -2.148018	 1.514076	 -0.197759
H	 -2.310727	 0.646384	 1.319032
C	 0.196029	 0.106276	 0.266738
H	 -1.201873	 -0.515469	 -1.250677
H	 -1.365975	 -1.378728	 0.252664
C	 1.330220	 -0.826136	 -0.155230
H	 0.359542	 1.097229	 -0.145561
H	 0.212134	 0.218135	 1.348778
C	 2.719700	 -0.407669	 0.328325
H	 1.339388	 -0.911200	 -1.239363
H	 1.119001	 -1.821953	 0.224128
C	 3.241564	 0.893452	 -0.276737
H	 3.418299	 -1.204729	 0.093035
H	 2.711776	 -0.323368	 1.411960
H	 3.254204	 0.841071	 -1.360784
H	 2.634460	 1.745075	 0.005842
H	 4.254264	 1.092401	 0.054971

	symmetry c1
}
set optking {
	frozen_dihedral = ("
		1 2 3 5
	")
}

ee,wfn = optimize('scf', return_wfn=True)
oeprop( wfn, 'DIPOLE', 'QUADRUPOLE', 'MULLIKEN_CHARGES')
f=open( 'psi4out.xyz', 'w' )
f.write( "21  " )
f.write( str(ee) + "\n" )
f.write( MOL.save_string_xyz() )
f.close()
--------------------------------------------------------------------------

    Molecular point group: c1
  Charge       = 0
  Multiplicity = 1
  Basis Set: CC-PVTZ
  Basis Set:
  @DF-RHF Final Energy:  -310.32964343338972
    Total Energy =                       -310.3296434333896627
    Molecular point group: c1
  Basis Set: CC-PVTZ
  Basis Set:
  Basis Set: CC-PVTZ
  Basis Set:
  @DF-RHF Final Energy:  -310.33080086209526
    Total Energy =                       -310.3308008620950886
  Basis Set: CC-PVTZ
  Basis Set:
  Basis Set: CC-PVTZ
  Basis Set:
  @DF-RHF Final Energy:  -310.33118205491280
    Total Energy =                       -310.3311820549124604
  Basis Set: CC-PVTZ
  Basis Set:
  Basis Set: CC-PVTZ
  Basis Set:
  @DF-RHF Final Energy:  -310.33118708025273
    Total Energy =                       -310.3311870802526755
  Basis Set: CC-PVTZ
  Basis Set:
  Charge       = 0
  Multiplicity = 1
  Basis Set: CC-PVTZ
  Basis Set:

    Orbital Energies (a.u.)
    -----------------------

    Doubly Occupied:

       1A    -20.542893     2A    -11.264149     3A    -11.220806
       4A    -11.219459     5A    -11.217257     6A    -11.216651
       7A    -11.209064     8A     -1.361400     9A     -1.092882
      10A     -1.038138    11A     -0.957498    12A     -0.881929
      13A     -0.826008    14A     -0.783638    15A     -0.674638
      16A     -0.660729    17A     -0.625852    18A     -0.618893
      19A     -0.594921    20A     -0.578594    21A     -0.544660
      22A     -0.533600    23A     -0.508732    24A     -0.494444
      25A     -0.488977    26A     -0.466499    27A     -0.461062
      28A     -0.446379    29A     -0.432771

  @DF-RHF Final Energy:  -310.33118736720468

   => Energetics <=

    Nuclear Repulsion Energy =            312.9393611300030784
    One-Electron Energy =               -1040.6160566075491261
    Two-Electron Energy =                 417.3455081103414273
    DFT Exchange-Correlation Energy =       0.0000000000000000
    Empirical Dispersion Energy =           0.0000000000000000
    PCM Polarization Energy =               0.0000000000000000
    EFP Energy =                            0.0000000000000000
    Total Energy =                       -310.3311873672045635
    Molecular point group: c1
  Basis Set: CC-PVTZ
  Basis Set:

  -Total Gradient:
     Atom            X                  Y                   Z
    ------   -----------------  -----------------  -----------------
       1        0.000361496232     0.000369958231    -0.001467468121
       2       -0.000268416048    -0.000558468612     0.001580121759
       3       -0.000600153640     0.000745512194     0.000988928832
       4       -0.000055967021    -0.000001636995     0.000012809318
       5        0.000531124702    -0.000551464875    -0.001085882049
       6       -0.000011428651    -0.000008330049    -0.000006534690
       7       -0.000045339744    -0.000000204122    -0.000015467362
       8       -0.000002129073    -0.000005919378     0.000005382392
       9       -0.000003043440     0.000007564252    -0.000016167074
      10        0.000046709317     0.000030310753    -0.000019748902
      11       -0.000023527458    -0.000032702868     0.000004683154
      12        0.000013319294     0.000013119769     0.000003780845
      13        0.000001823760    -0.000013805979     0.000033199410
      14       -0.000005835141     0.000015020481    -0.000005635123
      15        0.000013628852    -0.000000453453    -0.000012629165
      16        0.000004519891    -0.000001644693    -0.000009414024
      17        0.000008868555    -0.000007198840     0.000014527889
      18        0.000000844461     0.000011209396     0.000009503085
      19       -0.000000720096     0.000006763838    -0.000011693976
      20        0.000034523331    -0.000005977729     0.000002177590
      21       -0.000000298091    -0.000011651322    -0.000004473787

  **** Optimization is complete! (in 5 steps) ****
    Final optimized geometry and variables:
    Molecular point group: c1

    Geometry (in Angstrom), charge = 0, multiplicity = 1:

    H           -3.535290658240    -0.858296728766    -0.340091763197
    O           -3.570268572971     0.054477288624    -0.123105106301
    C           -2.305301907511     0.507685854240     0.283758112150
    C           -1.174690096464    -0.402686044987    -0.166087231669
    H           -2.166965665355     1.493920146928    -0.143790107817
    H           -2.288625501739     0.610972875164     1.365220120719
    C            0.201108535617     0.101289204747     0.260850308315
    H           -1.211758445330    -0.497869225604    -1.248186919789
    H           -1.337767265517    -1.398129021262     0.243709061097
    C            1.336044966118    -0.815286296170    -0.192648997036
    H            0.348733514313     1.099785606917    -0.137434852068
    H            0.229395148880     0.195274775900     1.343727506771
    C            2.727932403210    -0.396586118254     0.283831653847
    H            1.333843857845    -0.878684210380    -1.278324097010
    H            1.136371490912    -1.819980223742     0.169675714769
    C            3.236093086891     0.917025326163    -0.305431770920
    H            3.428220613778    -1.185798927511     0.028418206098
    H            2.730348347410    -0.330128311612     1.368621110643
    H            3.236386514364     0.882863506130    -1.390238780964
    H            2.628711960688     1.760903617519    -0.001327035200
    H            4.251564651533     1.115017835454     0.017829757306

  Mulliken Charges: (a.u.)
   Center  Symbol    Alpha    Beta     Spin     Total
       1     H     0.39228  0.39228  0.00000  0.21544
       2     O     4.20544  4.20544  0.00000 -0.41088
       3     C     2.94918  2.94918  0.00000  0.10163
       4     C     3.10257  3.10257  0.00000 -0.20513
       5     H     0.46533  0.46533  0.00000  0.06933
       6     H     0.47321  0.47321  0.00000  0.05358
       7     C     3.10233  3.10233  0.00000 -0.20466
       8     H     0.45057  0.45057  0.00000  0.09885
       9     H     0.45924  0.45924  0.00000  0.08152
      10     C     3.09515  3.09515  0.00000 -0.19030
      11     H     0.45013  0.45013  0.00000  0.09975
      12     H     0.45287  0.45287  0.00000  0.09426
      13     C     3.09048  3.09048  0.00000 -0.18096
      14     H     0.45308  0.45308  0.00000  0.09383
      15     H     0.44927  0.44927  0.00000  0.10146
      16     C     3.15237  3.15237  0.00000 -0.30474
      17     H     0.44810  0.44810  0.00000  0.10381
      18     H     0.45430  0.45430  0.00000  0.09139
      19     H     0.45456  0.45456  0.00000  0.09088
      20     H     0.45362  0.45362  0.00000  0.09276
      21     H     0.44591  0.44591  0.00000  0.10818

   Total alpha = 29.00000, Total beta = 29.00000, Total charge = -0.00000

*** Psi4 exiting successfully. Buy a developer a beer!
