  ==> Input File <==

--------------------------------------------------------------------------
set {
	reference rhf
	basis 6-31G*
}

set_num_threads( 4 )
memory 2 gb

molecule MOL {
0 1

H	 2.993211	 -1.271012	 1.053015
O	 2.826016	 -1.159218	 0.122261
C	 2.077727	 -0.067559	 -0.035091
C	 0.624473	 -0.343591	 0.253101
O	 2.542965	 0.974826	 -0.363729
C	 -0.265902	 0.883932	 0.072916
H	 0.324016	 -1.163849	 -0.390541
H	 0.565024	 -0.726111	 1.268924
C	 -1.728698	 0.646073	 0.462102
H	 -0.209144	 1.219470	 -0.958188
H	 0.135059	 1.692851	 0.673903
C	 -2.482460	 -0.343073	 -0.431425
H	 -2.245265	 1.602650	 0.432430
H	 -1.779332	 0.308348	 1.496285
C	 -3.960546	 -0.461025	 -0.060175
H	 -2.395034	 -0.026811	 -1.468912
H	 -2.024850	 -1.327147	 -0.371646
H	 -4.472726	 -1.168004	 -0.705284
H	 -4.465146	 0.496508	 -0.151489
H	 -4.081218	 -0.800940	 0.964585

	symmetry c1
}
set optking {
	frozen_dihedral = ("
		1 2 3 5
	")
}

ee = optimize('scf')
oeprop('DIPOLE', 'QUADRUPOLE', 'MULLIKEN_CHARGES')
f=open( 'psi4out.xyz', 'w' )
f.write( "20  " )
f.write( str(ee) + "\n" )
f.write( MOL.save_string_xyz() )
f.close()
--------------------------------------------------------------------------

    Molecular point group: c1
  Charge       = 0
  Multiplicity = 1
  Basis Set: 6-31G*
  Basis Set:
  @DF-RHF Final Energy:  -383.92528773866121
    Total Energy =                       -383.9252877386611544
    Molecular point group: c1
  Basis Set: 6-31G*
  Basis Set:
  Basis Set: 6-31G*
  Basis Set:
  @DF-RHF Final Energy:  -383.92648024972601
    Total Energy =                       -383.9264802497257278
  Basis Set: 6-31G*
  Basis Set:
  Basis Set: 6-31G*
  Basis Set:
  @DF-RHF Final Energy:  -383.92523595783445
    Total Energy =                       -383.9252359578346159
  Basis Set: 6-31G*
  Basis Set:
  Basis Set: 6-31G*
  Basis Set:
  @DF-RHF Final Energy:  -383.92703169347504
    Total Energy =                       -383.9270316934752145
  Basis Set: 6-31G*
  Basis Set:
  Basis Set: 6-31G*
  Basis Set:
  @DF-RHF Final Energy:  -383.92704859732896
    Total Energy =                       -383.9270485973289624
  Basis Set: 6-31G*
  Basis Set:
  Basis Set: 6-31G*
  Basis Set:
  @DF-RHF Final Energy:  -383.92704506361542
    Total Energy =                       -383.9270450636154237
  Basis Set: 6-31G*
  Basis Set:
  Basis Set: 6-31G*
  Basis Set:
  @DF-RHF Final Energy:  -383.92705011154891
    Total Energy =                       -383.9270501115485672
  Basis Set: 6-31G*
  Basis Set:
  Charge       = 0
  Multiplicity = 1
  Basis Set: 6-31G*
  Basis Set:

    Orbital Energies (a.u.)
    -----------------------

    Doubly Occupied:

       1A    -20.594063     2A    -20.562139     3A    -11.381246
       4A    -11.243675     5A    -11.225138     6A    -11.222787
       7A    -11.221959     8A    -11.213926     9A     -1.459660
      10A     -1.367394    11A     -1.097625    12A     -1.040899
      13A     -0.959028    14A     -0.865238    15A     -0.817144
      16A     -0.784452    17A     -0.713033    18A     -0.674242
      19A     -0.658689    20A     -0.638199    21A     -0.615434
      22A     -0.589070    23A     -0.562108    24A     -0.552202
      25A     -0.532215    26A     -0.506533    27A     -0.504632
      28A     -0.492058    29A     -0.471370    30A     -0.466467
      31A     -0.459817    32A     -0.442803

  @DF-RHF Final Energy:  -383.92705027952343

   => Energetics <=

    Nuclear Repulsion Energy =            375.0953421424538874
    One-Electron Energy =               -1266.1742891968797267
    Two-Electron Energy =                 507.1518967749022977
    DFT Exchange-Correlation Energy =       0.0000000000000000
    Empirical Dispersion Energy =           0.0000000000000000
    PCM Polarization Energy =               0.0000000000000000
    EFP Energy =                            0.0000000000000000
    Total Energy =                       -383.9270502795235416
    Molecular point group: c1
  Basis Set: 6-31G*
  Basis Set:

  -Total Gradient:
     Atom            X                  Y                   Z
    ------   -----------------  -----------------  -----------------
       1        0.000500720749     0.000343958140    -0.000080327200
       2       -0.000565932614    -0.000419573064     0.000339900176
       3       -0.000025772844    -0.000067593728    -0.000765226880
       4       -0.000005331886    -0.000004558628    -0.000005444277
       5        0.000078658424     0.000142860119     0.000510711450
       6       -0.000007728167     0.000001817348     0.000011995850
       7        0.000002282244     0.000000981039     0.000000411321
       8        0.000008604082     0.000001302627     0.000004829466
       9        0.000005471786    -0.000004317928    -0.000006342637
      10       -0.000004985488     0.000001938731    -0.000006971513
      11       -0.000000088702     0.000001834996     0.000001373084
      12       -0.000001148185     0.000002840934    -0.000003980915
      13        0.000009144829     0.000001606514    -0.000000806311
      14        0.000005332941    -0.000000808312     0.000000291362
      15       -0.000000235988    -0.000002225108     0.000001332194
      16        0.000000322549     0.000000794535    -0.000001651661
      17        0.000001330490    -0.000000676466    -0.000000228936
      18       -0.000000057064    -0.000001039046     0.000001117602
      19       -0.000000225812    -0.000000439912    -0.000001732761
      20       -0.000000361346     0.000001297209     0.000000750588

  **** Optimization is complete! (in 8 steps) ****
    Final optimized geometry and variables:
    Molecular point group: c1

    Geometry (in Angstrom), charge = 0, multiplicity = 1:

    H            3.118064166846    -1.283451319705     1.042001170054
    O            2.876149145035    -1.162920865824     0.131841930116
    C            2.083759303150    -0.066935260555    -0.036647627637
    C            0.626513495435    -0.330980912214     0.257149095176
    O            2.525455199201     0.955388193163    -0.424122217855
    C           -0.266510909377     0.894142470527     0.075991629131
    H            0.327411670032    -1.153647236714    -0.384889659722
    H            0.557985521711    -0.715670712495     1.273638883197
    C           -1.730740901712     0.654741393042     0.459038840045
    H           -0.204995994056     1.229446978175    -0.954638639709
    H            0.130444254727     1.704442251348     0.678599873141
    C           -2.480383745376    -0.332437442298    -0.440117289591
    H           -2.247589855841     1.611115096746     0.429691283621
    H           -1.785888325965     0.314574026761     1.492376973870
    C           -3.959874043374    -0.452056488021    -0.075092455497
    H           -2.388798641244    -0.013333563425    -1.476245934608
    H           -2.022517011209    -1.316494371262    -0.381399763700
    H           -4.468871207216    -1.157873580964    -0.723896888322
    H           -4.464659781350     0.505346855866    -0.166448535288
    H           -4.084738163670    -0.794300589574     0.948436341878

  Mulliken Charges: (a.u.)
   Center  Symbol    Alpha    Beta     Spin     Total
       1     H     0.26704  0.26704  0.00000  0.46593
       2     O     4.36975  4.36975  0.00000 -0.73951
       3     C     2.62771  2.62771  0.00000  0.74457
       4     C     3.21398  3.21398  0.00000 -0.42796
       5     O     4.24470  4.24470  0.00000 -0.48940
       6     C     3.15433  3.15433  0.00000 -0.30867
       7     H     0.39480  0.39480  0.00000  0.21039
       8     H     0.41205  0.41205  0.00000  0.17591
       9     C     3.15547  3.15547  0.00000 -0.31095
      10     H     0.40996  0.40996  0.00000  0.18008
      11     H     0.41017  0.41017  0.00000  0.17965
      12     C     3.15484  3.15484  0.00000 -0.30968
      13     H     0.41741  0.41741  0.00000  0.16518
      14     H     0.42484  0.42484  0.00000  0.15032
      15     C     3.23928  3.23928  0.00000 -0.47857
      16     H     0.42055  0.42055  0.00000  0.15890
      17     H     0.42310  0.42310  0.00000  0.15380
      18     H     0.41793  0.41793  0.00000  0.16414
      19     H     0.42037  0.42037  0.00000  0.15925
      20     H     0.42171  0.42171  0.00000  0.15658

   Total alpha = 32.00000, Total beta = 32.00000, Total charge = -0.00000
