  ==> Input File <==

--------------------------------------------------------------------------
set {
	reference rhf
	basis 6-31G*
}

set_num_threads( 4 )
memory 2 gb

molecule MOL {
0 1

O	 -2.140631	 0.381937	 1.942870
C	 -2.307600	 -0.361788	 1.029848
C	 -3.480437	 -1.301313	 0.915766
O	 -1.481751	 -0.454642	 0.000584
H	 -4.394895	 -0.720737	 0.939439
H	 -3.440724	 -1.887213	 0.009354
H	 -3.486138	 -1.956989	 1.778283
C	 -0.334255	 0.388708	 0.000906
C	 0.891947	 -0.504646	 0.000751
H	 -0.365390	 1.025305	 -0.873475
H	 -0.365484	 1.024911	 0.875569
C	 2.191998	 0.301789	 0.000897
H	 0.855148	 -1.151283	 -0.871571
H	 0.855132	 -1.151660	 0.872805
C	 3.441114	 -0.581407	 0.000108
H	 2.215074	 0.954890	 -0.869742
H	 2.215465	 0.953923	 0.872248
C	 4.739576	 0.224112	 -0.001102
H	 3.419457	 -1.233487	 -0.870178
H	 3.420834	 -1.233096	 0.870717
H	 4.804918	 0.861552	 -0.878265
H	 5.606527	 -0.429058	 -0.001824
H	 4.806469	 0.861674	 0.875853

	symmetry c1
}
set optking {
	frozen_dihedral = ("
		2 4 8 10
	")
}

ee = optimize('scf')
oeprop('DIPOLE', 'QUADRUPOLE', 'MULLIKEN_CHARGES')
f=open( 'psi4out.xyz', 'w' )
f.write( "23  " )
f.write( str(ee) + "\n" )
f.write( MOL.save_string_xyz() )
f.close()
--------------------------------------------------------------------------

    Molecular point group: c1
  Charge       = 0
  Multiplicity = 1
  Basis Set: 6-31G*
  Basis Set:
  @DF-RHF Final Energy:  -422.97666453843698
    Total Energy =                       -422.9766645384370349
    Molecular point group: c1
  Basis Set: 6-31G*
  Basis Set:
  Basis Set: 6-31G*
  Basis Set:
  @DF-RHF Final Energy:  -422.97709348165534
    Total Energy =                       -422.9770934816554018
  Basis Set: 6-31G*
  Basis Set:
  Basis Set: 6-31G*
  Basis Set:
  @DF-RHF Final Energy:  -422.97741576349722
    Total Energy =                       -422.9774157634974472
  Basis Set: 6-31G*
  Basis Set:
  Basis Set: 6-31G*
  Basis Set:
  @DF-RHF Final Energy:  -422.97753493371567
    Total Energy =                       -422.9775349337156740
  Basis Set: 6-31G*
  Basis Set:
  Basis Set: 6-31G*
  Basis Set:
  @DF-RHF Final Energy:  -422.97763568799985
    Total Energy =                       -422.9776356880009871
  Basis Set: 6-31G*
  Basis Set:
  Basis Set: 6-31G*
  Basis Set:
  @DF-RHF Final Energy:  -422.97764785834300
    Total Energy =                       -422.9776478583427206
  Basis Set: 6-31G*
  Basis Set:
  Charge       = 0
  Multiplicity = 1
  Basis Set: 6-31G*
  Basis Set:

    Orbital Energies (a.u.)
    -----------------------

    Doubly Occupied:

       1A    -20.602200     2A    -20.540060     3A    -11.375793
       4A    -11.279862     5A    -11.231797     6A    -11.223867
       7A    -11.223273     8A    -11.221194     9A    -11.212546
      10A     -1.465355    11A     -1.361369    12A     -1.093344
      13A     -1.041789    14A     -1.002819    15A     -0.931605
      16A     -0.846630    17A     -0.800625    18A     -0.771540
      19A     -0.698043    20A     -0.679063    21A     -0.659191
      22A     -0.648641    23A     -0.605568    24A     -0.587903
      25A     -0.585419    26A     -0.571985    27A     -0.551224
      28A     -0.539242    29A     -0.522656    30A     -0.508199
      31A     -0.488560    32A     -0.478427    33A     -0.473984
      34A     -0.470312    35A     -0.440335    36A     -0.434563

  @DF-RHF Final Energy:  -422.97764803805995

   => Energetics <=

    Nuclear Repulsion Energy =            451.6327914506865113
    One-Electron Energy =               -1470.8829065842689943
    Two-Electron Energy =                 596.2724670955227566
    DFT Exchange-Correlation Energy =       0.0000000000000000
    Empirical Dispersion Energy =           0.0000000000000000
    PCM Polarization Energy =               0.0000000000000000
    EFP Energy =                            0.0000000000000000
    Total Energy =                       -422.9776480380597832
    Molecular point group: c1
  Basis Set: 6-31G*
  Basis Set:

  -Total Gradient:
     Atom            X                  Y                   Z
    ------   -----------------  -----------------  -----------------
       1       -0.000038839183     0.000029892439    -0.000009120495
       2       -0.000110469856     0.000223804109    -0.000124356907
       3       -0.000021148215     0.000041507845    -0.000031958850
       4        0.000241644331    -0.000315793811     0.000243856610
       5        0.000006129232    -0.000003824911     0.000011486274
       6       -0.000000224579    -0.000004517608    -0.000002237442
       7        0.000014828645    -0.000007215018    -0.000003178215
       8        0.000185697337    -0.000194628682    -0.000288150353
       9        0.000004952339    -0.000031710951    -0.000005466064
      10       -0.000247986811     0.000269243063     0.000200319775
      11       -0.000003083517    -0.000003332272    -0.000009520552
      12       -0.000008096890     0.000014182119     0.000006760395
      13        0.000011130229    -0.000013210468     0.000002007021
      14        0.000001228631     0.000002845242     0.000006888990
      15       -0.000010526680    -0.000018483094    -0.000008295181
      16       -0.000002138804     0.000006681621     0.000007368545
      17        0.000000169455    -0.000001412292     0.000014497411
      18       -0.000015437113     0.000010865345    -0.000010168604
      19       -0.000000720377    -0.000010285301     0.000000148426
      20        0.000000151739     0.000007033810     0.000000942274
      21        0.000003576568     0.000003154086    -0.000001462767
      22       -0.000009475123    -0.000004434003    -0.000000805952
      23       -0.000001361361    -0.000000361273     0.000000445658

  **** Optimization is complete! (in 7 steps) ****
    Final optimized geometry and variables:
    Molecular point group: c1

    Geometry (in Angstrom), charge = 0, multiplicity = 1:

    O           -2.386387582466     0.566238047588     1.537502075112
    C           -2.500892215493    -0.150387106576     0.595394286500
    C           -3.668925376843    -1.082196364326     0.396981777153
    O           -1.628439275014    -0.228492601797    -0.397926613837
    H           -4.580897618537    -0.497335314614     0.384429622884
    H           -3.582611013142    -1.648563426883    -0.518419572897
    H           -3.723587246451    -1.755571913072     1.244013224258
    C           -0.458040372316     0.586126826976    -0.379172415136
    C            0.774358161851    -0.302297930236    -0.387734375645
    H           -0.502219081615     1.201696511576    -1.268798729435
    H           -0.481020759205     1.226108571225     0.487731692580
    C            2.069126353014     0.510190306088    -0.447976436024
    H            0.717324858144    -0.976566201865    -1.237752228173
    H            0.765238846726    -0.920163354297     0.506479176792
    C            3.323490222190    -0.365454984585    -0.456012574801
    H            2.064261425286     1.135668453028    -1.339236228241
    H            2.111847045352     1.189173725983     0.401792797640
    C            4.615960735015     0.447141728400    -0.519858897255
    H            3.281585357479    -1.045463197625    -1.303945053008
    H            3.331961607970    -0.988474542677     0.435434795952
    H            4.652748149778     1.055927641997    -1.418835740012
    H            5.486859699405    -0.200732902951    -0.523619425752
    H            4.702928396777     1.113310172049     0.333725235061

  Mulliken Charges: (a.u.)
   Center  Symbol    Alpha    Beta     Spin     Total
       1     O     4.28371  4.28371  0.00000 -0.56742
       2     C     2.61540  2.61540  0.00000  0.76920
       3     C     3.28845  3.28845  0.00000 -0.57691
       4     O     4.31369  4.31369  0.00000 -0.62738
       5     H     0.39755  0.39755  0.00000  0.20490
       6     H     0.39989  0.39989  0.00000  0.20022
       7     H     0.39779  0.39779  0.00000  0.20442
       8     C     3.00656  3.00656  0.00000 -0.01312
       9     C     3.16321  3.16321  0.00000 -0.32642
      10     H     0.41440  0.41440  0.00000  0.17119
      11     H     0.39355  0.39355  0.00000  0.21290
      12     C     3.16117  3.16117  0.00000 -0.32234
      13     H     0.41455  0.41455  0.00000  0.17090
      14     H     0.41516  0.41516  0.00000  0.16969
      15     C     3.15138  3.15138  0.00000 -0.30275
      16     H     0.42200  0.42200  0.00000  0.15601
      17     H     0.41938  0.41938  0.00000  0.16125
      18     C     3.23990  3.23990  0.00000 -0.47981
      19     H     0.42163  0.42163  0.00000  0.15674
      20     H     0.42082  0.42082  0.00000  0.15837
      21     H     0.42130  0.42130  0.00000  0.15741
      22     H     0.41800  0.41800  0.00000  0.16399
      23     H     0.42052  0.42052  0.00000  0.15896

   Total alpha = 36.00000, Total beta = 36.00000, Total charge =  0.00000
