  ==> Input File <==

--------------------------------------------------------------------------
set {
	reference rhf
	basis 6-31G*
}

set_num_threads( 4 )
memory 2 gb

molecule MOL {
0 1

H	 -2.798360	 -0.862255	 -0.071053
N	 -1.863561	 -0.715187	 0.256814
C	 -1.344686	 0.554728	 -0.219830
H	 -1.300452	 -1.461917	 -0.101532
C	 0.081427	 0.741154	 0.254071
H	 -1.362155	 0.656231	 -1.305829
H	 -1.952773	 1.354456	 0.191809
O	 0.635285	 -0.522422	 0.485813
H	 0.662424	 1.272020	 -0.499761
H	 0.088843	 1.329873	 1.168724
C	 1.924484	 -0.496958	 1.010111
H	 2.244424	 -1.521350	 1.144119
H	 2.618382	 0.002478	 0.336278
H	 1.952424	 0.010242	 1.972284

	symmetry c1
}
set optking {
	frozen_dihedral = ("
		8 5 3 6
	")
}

ee = optimize('scf')
oeprop('DIPOLE', 'QUADRUPOLE', 'MULLIKEN_CHARGES')
f=open( 'psi4out.xyz', 'w' )
f.write( "14  " )
f.write( str(ee) + "\n" )
f.write( MOL.save_string_xyz() )
f.close()
--------------------------------------------------------------------------

    Molecular point group: c1
  Charge       = 0
  Multiplicity = 1
  Basis Set: 6-31G*
  Basis Set:
  @DF-RHF Final Energy:  -248.11485729754071
    Total Energy =                       -248.1148572975405955
    Molecular point group: c1
  Basis Set: 6-31G*
  Basis Set:
  Basis Set: 6-31G*
  Basis Set:
  @DF-RHF Final Energy:  -248.11682900708678
    Total Energy =                       -248.1168290070867783
  Basis Set: 6-31G*
  Basis Set:
  Basis Set: 6-31G*
  Basis Set:
  @DF-RHF Final Energy:  -248.11714456934465
    Total Energy =                       -248.1171445693447595
  Basis Set: 6-31G*
  Basis Set:
  Basis Set: 6-31G*
  Basis Set:
  @DF-RHF Final Energy:  -248.11716666130815
    Total Energy =                       -248.1171666613080902
  Basis Set: 6-31G*
  Basis Set:
  Basis Set: 6-31G*
  Basis Set:
  @DF-RHF Final Energy:  -248.11716892530396
    Total Energy =                       -248.1171689253038721
  Basis Set: 6-31G*
  Basis Set:
  Charge       = 0
  Multiplicity = 1
  Basis Set: 6-31G*
  Basis Set:

    Orbital Energies (a.u.)
    -----------------------

    Doubly Occupied:

       1A    -20.557237     2A    -15.525204     3A    -11.268951
       4A    -11.266495     5A    -11.241954     6A     -1.382419
       7A     -1.170654     8A     -0.996328     9A     -0.910203
      10A     -0.813682    11A     -0.682545    12A     -0.676411
      13A     -0.646417    14A     -0.608674    15A     -0.600315
      16A     -0.552041    17A     -0.523073    18A     -0.493181
      19A     -0.472033    20A     -0.420091    21A     -0.370864

  @DF-RHF Final Energy:  -248.11716941607750

   => Energetics <=

    Nuclear Repulsion Energy =            195.0198449921285260
    One-Electron Energy =                -723.9164878387201725
    Two-Electron Energy =                 280.7794734305143152
    DFT Exchange-Correlation Energy =       0.0000000000000000
    Empirical Dispersion Energy =           0.0000000000000000
    PCM Polarization Energy =               0.0000000000000000
    EFP Energy =                            0.0000000000000000
    Total Energy =                       -248.1171694160773882
    Molecular point group: c1
  Basis Set: 6-31G*
  Basis Set:

  -Total Gradient:
     Atom            X                  Y                   Z
    ------   -----------------  -----------------  -----------------
       1       -0.000004096256    -0.000043597768    -0.000015989346
       2       -0.000042289270     0.000193732094    -0.000063827443
       3        0.001192221522    -0.011511823501     0.000745414718
       4        0.000118159186     0.000036301717     0.000025296730
       5        0.002798070171     0.002144776438    -0.008812291118
       6       -0.001580414139     0.009179420013     0.001157017244
       7       -0.000007540833     0.000013260371     0.000070091967
       8       -0.002546320717     0.000048517386     0.006888035472
       9        0.000035427527    -0.000057333433     0.000005054127
      10        0.000000148779     0.000014628586    -0.000011633508
      11        0.000041031223    -0.000012636215     0.000003485537
      12        0.000002815040     0.000000092629     0.000005714827
      13       -0.000005574271    -0.000003582748     0.000004647713
      14       -0.000001637967    -0.000001755569    -0.000001016922

  **** Optimization is complete! (in 6 steps) ****
    Final optimized geometry and variables:
    Molecular point group: c1

    Geometry (in Angstrom), charge = 0, multiplicity = 1:

    H           -2.743549522010    -0.719664636892    -0.527857810492
    N           -1.848882051831    -0.575856456183    -0.103027143064
    C           -1.242539167003     0.641062680769    -0.595483404774
    H           -1.271333850990    -1.364542048810    -0.312063198501
    C            0.190565720932     0.817425599973    -0.078808453488
    H           -1.259120912230     0.777449237944    -1.679359556408
    H           -1.821926910031     1.478524168217    -0.214924783248
    O            0.781222875967    -0.429896105859     0.133135344611
    H            0.774583616458     1.403840144908    -0.786011686442
    H            0.174867011758     1.360867235009     0.864273123951
    C            2.074115986025    -0.368286913602     0.643244191480
    H            2.420762025220    -1.383398921993     0.780054203926
    H            2.749113111879     0.145750452215    -0.038813398768
    H            2.096570188292     0.144247934533     1.602923035344

  Mulliken Charges: (a.u.)
   Center  Symbol    Alpha    Beta     Spin     Total
       1     H     0.33374  0.33374  0.00000  0.33252
       2     N     3.92031  3.92031  0.00000 -0.84062
       3     C     3.07407  3.07407  0.00000 -0.14813
       4     H     0.32038  0.32038  0.00000  0.35923
       5     C     2.98483  2.98483  0.00000  0.03034
       6     H     0.43199  0.43199  0.00000  0.13602
       7     H     0.42005  0.42005  0.00000  0.15989
       8     O     4.30824  4.30824  0.00000 -0.61649
       9     H     0.43045  0.43045  0.00000  0.13909
      10     H     0.42715  0.42715  0.00000  0.14570
      11     C     3.07891  3.07891  0.00000 -0.15783
      12     H     0.41186  0.41186  0.00000  0.17629
      13     H     0.43031  0.43031  0.00000  0.13939
      14     H     0.42771  0.42771  0.00000  0.14459

   Total alpha = 21.00000, Total beta = 21.00000, Total charge = -0.00000
