  ==> Input File <==

--------------------------------------------------------------------------
set {
	reference rhf
	basis 6-31G*
}

set_num_threads( 4 )
memory 2 gb

molecule MOL {
0 1

O	 -1.276010	 1.052711	 -0.768302
C	 -1.204840	 0.067374	 -0.106123
C	 -2.388195	 -0.672128	 0.458071
O	 -0.067104	 -0.527208	 0.221609
H	 -2.388023	 -1.694060	 0.097175
H	 -3.300579	 -0.174919	 0.164318
H	 -2.315377	 -0.706351	 1.539059
C	 0.909521	 0.204853	 0.975410
C	 2.249273	 -0.432279	 0.651812
C	 0.564734	 0.147580	 2.455439
H	 0.890998	 1.229806	 0.635356
H	 2.448784	 -0.384618	 -0.412693
H	 3.046092	 0.087519	 1.173562
H	 2.262147	 -1.473466	 0.955815
H	 1.312830	 0.680452	 3.033726
H	 -0.397467	 0.606664	 2.643559
H	 0.536637	 -0.881709	 2.798633

	symmetry c1
}
set optking {
	frozen_dihedral = ("
		8 4 2 1
	")
}

ee = optimize('scf')
oeprop('DIPOLE', 'QUADRUPOLE', 'MULLIKEN_CHARGES')
f=open( 'psi4out.xyz', 'w' )
f.write( "17  " )
f.write( str(ee) + "\n" )
f.write( MOL.save_string_xyz() )
f.close()
--------------------------------------------------------------------------

    Molecular point group: c1
  Charge       = 0
  Multiplicity = 1
  Basis Set: 6-31G*
  Basis Set:
  @DF-RHF Final Energy:  -344.89994705372897
    Total Energy =                       -344.8999470537296475
    Molecular point group: c1
  Basis Set: 6-31G*
  Basis Set:
  Basis Set: 6-31G*
  Basis Set:
  @DF-RHF Final Energy:  -344.89999108625392
    Total Energy =                       -344.8999910862540901
  Basis Set: 6-31G*
  Basis Set:
  Basis Set: 6-31G*
  Basis Set:
  @DF-RHF Final Energy:  -344.90112780799393
    Total Energy =                       -344.9011278079935892
  Basis Set: 6-31G*
  Basis Set:
  Basis Set: 6-31G*
  Basis Set:
  @DF-RHF Final Energy:  -344.90131567014203
    Total Energy =                       -344.9013156701423100
  Basis Set: 6-31G*
  Basis Set:
  Basis Set: 6-31G*
  Basis Set:
  @DF-RHF Final Energy:  -344.90132289344035
    Total Energy =                       -344.9013228934407493
  Basis Set: 6-31G*
  Basis Set:
  Basis Set: 6-31G*
  Basis Set:
  @DF-RHF Final Energy:  -344.90132588973273
    Total Energy =                       -344.9013258897327887
  Basis Set: 6-31G*
  Basis Set:
  Charge       = 0
  Multiplicity = 1
  Basis Set: 6-31G*
  Basis Set:

    Orbital Energies (a.u.)
    -----------------------

    Doubly Occupied:

       1A    -20.584913     2A    -20.550860     3A    -11.375290
       4A    -11.296300     5A    -11.233633     6A    -11.226269
       7A    -11.220210     8A     -1.457720     9A     -1.363000
      10A     -1.076199    11A     -1.009270    12A     -0.953516
      13A     -0.846678    14A     -0.764276    15A     -0.695293
      16A     -0.666308    17A     -0.658863    18A     -0.624069
      19A     -0.586759    20A     -0.581052    21A     -0.562913
      22A     -0.552257    23A     -0.543541    24A     -0.523411
      25A     -0.501222    26A     -0.485829    27A     -0.445421
      28A     -0.434916

  @DF-RHF Final Energy:  -344.90132631258160

   => Energetics <=

    Nuclear Repulsion Energy =            322.6863748223468633
    One-Electron Energy =               -1109.5354314411147243
    Two-Electron Energy =                 441.9477303061858606
    DFT Exchange-Correlation Energy =       0.0000000000000000
    Empirical Dispersion Energy =           0.0000000000000000
    PCM Polarization Energy =               0.0000000000000000
    EFP Energy =                            0.0000000000000000
    Total Energy =                       -344.9013263125820572
    Molecular point group: c1
  Basis Set: 6-31G*
  Basis Set:

  -Total Gradient:
     Atom            X                  Y                   Z
    ------   -----------------  -----------------  -----------------
       1       -0.000892351604    -0.004714021057    -0.008421288408
       2       -0.000086326238     0.005398165408     0.015758398717
       3        0.000054739546    -0.000004859208     0.000006042497
       4        0.003565784834     0.002466993721    -0.013780252407
       5       -0.000005070385     0.000003385137     0.000005034340
       6        0.000008002079     0.000004681118    -0.000009047633
       7        0.000004743500    -0.000020611514    -0.000000967646
       8       -0.002791149613    -0.003148834166     0.006400583079
       9        0.000073508762     0.000030720232     0.000044056792
      10        0.000020785888     0.000002199437    -0.000022346925
      11        0.000027791258    -0.000016185224     0.000016846392
      12       -0.000009045705     0.000008527972     0.000003175958
      13        0.000033374872    -0.000017757378     0.000003162915
      14       -0.000002779727     0.000005765098    -0.000001324686
      15        0.000011289819     0.000004487976     0.000008709175
      16       -0.000002195083    -0.000007329607    -0.000011155586
      17       -0.000011102208     0.000004672052     0.000000373431

  **** Optimization is complete! (in 7 steps) ****
    Final optimized geometry and variables:
    Molecular point group: c1

    Geometry (in Angstrom), charge = 0, multiplicity = 1:

    O           -1.168117122760     1.156323772273    -1.162102035620
    C           -1.059750153927     0.121871448166    -0.595137996836
    C           -2.216857006776    -0.733436051504    -0.155951587488
    O            0.126004684308    -0.476022445778    -0.391354508820
    H           -2.148359129718    -1.701660420033    -0.639144813970
    H           -3.150677173367    -0.255806512736    -0.413462141356
    H           -2.166741163837    -0.902157121618     0.914124292583
    C            1.125002113630     0.220205282555     0.361620183344
    C            2.439165211928    -0.482231822560     0.073829965503
    C            0.762984487921     0.214191776169     1.839887445803
    H            1.167386038243     1.238401089983    -0.003675012692
    H            2.649809211440    -0.465972985255    -0.988668652039
    H            3.252834795017     0.010556690849     0.595771890732
    H            2.396765354554    -1.516155231700     0.399356210359
    H            1.535250771137     0.712978420250     2.416192535102
    H           -0.170764089834     0.737508934706     2.021149069908
    H            0.664920821795    -0.803213299370     2.203879366843

  Mulliken Charges: (a.u.)
   Center  Symbol    Alpha    Beta     Spin     Total
       1     O     4.26445  4.26445  0.00000 -0.52889
       2     C     2.61930  2.61930  0.00000  0.76140
       3     C     3.28423  3.28423  0.00000 -0.56846
       4     O     4.32260  4.32260  0.00000 -0.64519
       5     H     0.39828  0.39828  0.00000  0.20344
       6     H     0.39824  0.39824  0.00000  0.20352
       7     H     0.40519  0.40519  0.00000  0.18961
       8     C     2.92684  2.92684  0.00000  0.14631
       9     C     3.24294  3.24294  0.00000 -0.48588
      10     C     3.25226  3.25226  0.00000 -0.50452
      11     H     0.40378  0.40378  0.00000  0.19245
      12     H     0.40683  0.40683  0.00000  0.18634
      13     H     0.41849  0.41849  0.00000  0.16303
      14     H     0.41414  0.41414  0.00000  0.17172
      15     H     0.41414  0.41414  0.00000  0.17172
      16     H     0.41513  0.41513  0.00000  0.16973
      17     H     0.41317  0.41317  0.00000  0.17367

   Total alpha = 28.00000, Total beta = 28.00000, Total charge =  0.00000
