  ==> Input File <==

--------------------------------------------------------------------------
set {
	reference rhf
	basis 6-31G*
}

set_num_threads( 4 )
memory 2 gb

molecule MOL {
0 1

H	 -0.216825	 0.021369	 -3.357402
C	 0.374198	 0.036393	 -2.447010
C	 -0.521757	 -0.028637	 -1.217342
H	 0.969602	 0.942322	 -2.434777
H	 1.053364	 -0.811668	 -2.481329
N	 0.263400	 0.031178	 0.000000
H	 -1.199035	 0.820290	 -1.219355
H	 -1.147901	 -0.924895	 -1.265384
C	 -0.521757	 -0.028637	 1.217342
H	 0.935769	 -0.712709	 0.000000
C	 -2.008328	 0.101163	 0.913520
H	 -0.332613	 -0.988249	 1.689313
H	 -0.226104	 0.736694	 1.941565
H	 -2.325101	 -0.678576	 0.230127
H	 -2.596837	 0.026532	 1.822604
H	 -2.231376	 1.061084	 0.454768

	symmetry c1
}
set optking {
	frozen_dihedral = ("
		12 9 6 3
	")
}

ee = optimize('scf')
oeprop('DIPOLE', 'QUADRUPOLE', 'MULLIKEN_CHARGES')
f=open( 'psi4out.xyz', 'w' )
f.write( "16  " )
f.write( str(ee) + "\n" )
f.write( MOL.save_string_xyz() )
f.close()
--------------------------------------------------------------------------

    Molecular point group: c1
  Charge       = 0
  Multiplicity = 1
  Basis Set: 6-31G*
  Basis Set:
  @DF-RHF Final Energy:  -212.29337009931058
    Total Energy =                       -212.2933700993106072
    Molecular point group: c1
  Basis Set: 6-31G*
  Basis Set:
  Basis Set: 6-31G*
  Basis Set:
  @DF-RHF Final Energy:  -212.29224207965015
    Total Energy =                       -212.2922420796501228
  Basis Set: 6-31G*
  Basis Set:
  Basis Set: 6-31G*
  Basis Set:
  @DF-RHF Final Energy:  -212.30096407311825
    Total Energy =                       -212.3009640731181094
  Basis Set: 6-31G*
  Basis Set:
  Basis Set: 6-31G*
  Basis Set:
  @DF-RHF Final Energy:  -212.30276531069157
    Total Energy =                       -212.3027653106915977
  Basis Set: 6-31G*
  Basis Set:
  Basis Set: 6-31G*
  Basis Set:
  @DF-RHF Final Energy:  -212.30308208584148
    Total Energy =                       -212.3030820858414813
  Basis Set: 6-31G*
  Basis Set:
  Basis Set: 6-31G*
  Basis Set:
  @DF-RHF Final Energy:  -212.30321111469837
    Total Energy =                       -212.3032111146983425
  Basis Set: 6-31G*
  Basis Set:
  Basis Set: 6-31G*
  Basis Set:
  @DF-RHF Final Energy:  -212.30322095951715
    Total Energy =                       -212.3032209595171480
  Basis Set: 6-31G*
  Basis Set:
  Charge       = 0
  Multiplicity = 1
  Basis Set: 6-31G*
  Basis Set:

    Orbital Energies (a.u.)
    -----------------------

    Doubly Occupied:

       1A    -15.528153     2A    -11.241496     3A    -11.239618
       4A    -11.211329     5A    -11.206750     6A     -1.195421
       7A     -1.024145     8A     -0.968975     9A     -0.853874
      10A     -0.791654    11A     -0.661577    12A     -0.626877
      13A     -0.604428    14A     -0.594095    15A     -0.537986
      16A     -0.519560    17A     -0.510621    18A     -0.494231
      19A     -0.482109    20A     -0.478345    21A     -0.343920

  @DF-RHF Final Energy:  -212.30322132450991

   => Energetics <=

    Nuclear Repulsion Energy =            191.5166136558345613
    One-Electron Energy =                -665.4093435777676859
    Two-Electron Energy =                 261.5895085974232188
    DFT Exchange-Correlation Energy =       0.0000000000000000
    Empirical Dispersion Energy =           0.0000000000000000
    PCM Polarization Energy =               0.0000000000000000
    EFP Energy =                            0.0000000000000000
    Total Energy =                       -212.3032213245098774
    Molecular point group: c1
  Basis Set: 6-31G*
  Basis Set:

  -Total Gradient:
     Atom            X                  Y                   Z
    ------   -----------------  -----------------  -----------------
       1        0.000007885016    -0.000000256741    -0.000004596553
       2       -0.000004387937    -0.000014597376    -0.000018221591
       3       -0.000230838075     0.002774778328    -0.000002201406
       4       -0.000006152668     0.000005419677    -0.000001557098
       5        0.000001473235    -0.000000750234    -0.000001118801
       6        0.001004684933    -0.003840344548     0.000449723859
       7        0.000004150865    -0.000000002894    -0.000022563438
       8       -0.000004510376     0.000006048177     0.000006053680
       9       -0.003390968440    -0.000358201764    -0.002040074681
      10        0.000014106892     0.000012659296    -0.000011629726
      11       -0.000002755161     0.000030421039     0.000008484439
      12        0.002614671287     0.001416938086     0.001643233379
      13       -0.000012225191    -0.000005723975    -0.000002688240
      14        0.000008628831    -0.000004114038    -0.000040079935
      15        0.000003202784    -0.000012249521    -0.000007625723
      16       -0.000006965993    -0.000010023511     0.000044861836

  **** Optimization is complete! (in 8 steps) ****
    Final optimized geometry and variables:
    Molecular point group: c1

    Geometry (in Angstrom), charge = 0, multiplicity = 1:

    H            0.484005859655     0.037724184801    -3.111613587138
    C            0.988861957423     0.061295042612    -2.150751035980
    C           -0.011551694118    -0.079978901875    -1.009987848231
    H            1.531464154412     0.995952196540    -2.065214382383
    H            1.712764088944    -0.749778325791    -2.139845229821
    N            0.681129890276    -0.010200101965     0.261209639185
    H           -0.724128023109     0.733669596707    -1.067480390085
    H           -0.579568152773    -1.004395326023    -1.147610595138
    C           -0.066248474306    -0.070951155107     1.517808470233
    H            1.432008931422    -0.668482843700     0.278394119881
    C           -1.574178008522     0.135377699325     1.409548624428
    H            0.126578184806    -1.015110547861     2.026255202156
    H            0.327035937350     0.696683085165     2.180133083906
    H           -2.052951114701    -0.626336349815     0.804407283741
    H           -2.010088257881     0.091570494345     2.402642003370
    H           -1.815367658619     1.105577311827     0.989431257264

  Mulliken Charges: (a.u.)
   Center  Symbol    Alpha    Beta     Spin     Total
       1     H     0.42081  0.42081  0.00000  0.15839
       2     C     3.24185  3.24185  0.00000 -0.48371
       3     C     3.04843  3.04843  0.00000 -0.09687
       4     H     0.41245  0.41245  0.00000  0.17509
       5     H     0.42564  0.42564  0.00000  0.14872
       6     N     3.86616  3.86616  0.00000 -0.73233
       7     H     0.41925  0.41925  0.00000  0.16150
       8     H     0.43608  0.43608  0.00000  0.12783
       9     C     3.04053  3.04053  0.00000 -0.08106
      10     H     0.33207  0.33207  0.00000  0.33586
      11     C     3.25460  3.25460  0.00000 -0.50920
      12     H     0.43109  0.43109  0.00000  0.13782
      13     H     0.42066  0.42066  0.00000  0.15868
      14     H     0.41786  0.41786  0.00000  0.16429
      15     H     0.41691  0.41691  0.00000  0.16618
      16     H     0.41560  0.41560  0.00000  0.16881

   Total alpha = 21.00000, Total beta = 21.00000, Total charge = -0.00000
