  ==> Input File <==

--------------------------------------------------------------------------
set {
	reference rhf
	basis 6-31G*
}

set_num_threads( 4 )
memory 2 gb

molecule MOL {
0 1

H	 2.591676	 2.013956	 0.335017
O	 3.341076	 1.666752	 -0.126416
C	 3.569581	 0.339145	 0.272707
C	 2.539767	 -0.640285	 -0.279495
H	 4.553106	 0.084646	 -0.100901
H	 3.608576	 0.269204	 1.359154
C	 1.115811	 -0.397273	 0.226630
H	 2.556196	 -0.582511	 -1.364741
H	 2.852081	 -1.648031	 -0.010655
C	 0.115918	 -1.429151	 -0.302766
H	 0.797950	 0.599468	 -0.066350
H	 1.109961	 -0.420744	 1.316472
C	 0.579824	 -2.886769	 -0.200376
H	 -0.829582	 -1.314582	 0.224254
H	 -0.090937	 -1.206329	 -1.347400
C	 0.727785	 -3.417141	 1.228361
H	 -0.136855	 -3.511425	 -0.729518
H	 1.526011	 -3.000648	 -0.727253
C	 1.089510	 -4.903113	 1.278129
H	 -0.203924	 -3.256926	 1.769064
H	 1.489685	 -2.852392	 1.760217
C	 1.244105	 -5.433542	 2.703053
H	 0.324002	 -5.477389	 0.760738
H	 2.015148	 -5.066637	 0.730097
H	 0.323796	 -5.314109	 3.267847
H	 1.498359	 -6.488998	 2.704892
H	 2.028698	 -4.903778	 3.236090

	symmetry c1
}
set optking {
	frozen_dihedral = ("
		14 10 7 4
	")
}

ee = optimize('scf')
oeprop('DIPOLE', 'QUADRUPOLE', 'MULLIKEN_CHARGES')
f=open( 'psi4out.xyz', 'w' )
f.write( "27  " )
f.write( str(ee) + "\n" )
f.write( MOL.save_string_xyz() )
f.close()
--------------------------------------------------------------------------

    Molecular point group: c1
  Charge       = 0
  Multiplicity = 1
  Basis Set: 6-31G*
  Basis Set:
  @DF-RHF Final Energy:  -388.27759551576537
    Total Energy =                       -388.2775955157657108
    Molecular point group: c1
  Basis Set: 6-31G*
  Basis Set:
  Basis Set: 6-31G*
  Basis Set:
  @DF-RHF Final Energy:  -388.27851699970205
    Total Energy =                       -388.2785169997014236
  Basis Set: 6-31G*
  Basis Set:
  Basis Set: 6-31G*
  Basis Set:
  @DF-RHF Final Energy:  -388.27919657365885
    Total Energy =                       -388.2791965736593056
  Basis Set: 6-31G*
  Basis Set:
  Basis Set: 6-31G*
  Basis Set:
  @DF-RHF Final Energy:  -388.27925658687775
    Total Energy =                       -388.2792565868779775
  Basis Set: 6-31G*
  Basis Set:
  Basis Set: 6-31G*
  Basis Set:
  @DF-RHF Final Energy:  -388.27925767594610
    Total Energy =                       -388.2792576759460417
  Basis Set: 6-31G*
  Basis Set:
  Basis Set: 6-31G*
  Basis Set:
  @DF-RHF Final Energy:  -388.27926999394174
    Total Energy =                       -388.2792699939417389
  Basis Set: 6-31G*
  Basis Set:
  Charge       = 0
  Multiplicity = 1
  Basis Set: 6-31G*
  Basis Set:

    Orbital Energies (a.u.)
    -----------------------

    Doubly Occupied:

       1A    -20.552299     2A    -11.267390     3A    -11.220357
       4A    -11.217634     5A    -11.216452     6A    -11.215040
       7A    -11.214991     8A    -11.214394     9A    -11.209858
      10A     -1.359160    11A     -1.095610    12A     -1.059901
      13A     -1.009633    14A     -0.950696    15A     -0.888123
      16A     -0.831931    17A     -0.800666    18A     -0.763509
      19A     -0.694378    20A     -0.655826    21A     -0.636904
      22A     -0.614428    23A     -0.604749    24A     -0.584525
      25A     -0.571389    26A     -0.554967    27A     -0.546679
      28A     -0.526694    29A     -0.513116    30A     -0.494626
      31A     -0.482667    32A     -0.479482    33A     -0.466858
      34A     -0.456885    35A     -0.448606    36A     -0.439362
      37A     -0.425582

  @DF-RHF Final Energy:  -388.27927079579501

   => Energetics <=

    Nuclear Repulsion Energy =            467.9608871951397759
    One-Electron Energy =               -1453.9095815698055958
    Two-Electron Energy =                 597.6694235788704646
    DFT Exchange-Correlation Energy =       0.0000000000000000
    Empirical Dispersion Energy =           0.0000000000000000
    PCM Polarization Energy =               0.0000000000000000
    EFP Energy =                            0.0000000000000000
    Total Energy =                       -388.2792707957953553
    Molecular point group: c1
  Basis Set: 6-31G*
  Basis Set:

  -Total Gradient:
     Atom            X                  Y                   Z
    ------   -----------------  -----------------  -----------------
       1       -0.000000184419     0.000002665418    -0.000000346138
       2        0.000010542573     0.000017088828    -0.000001687978
       3       -0.000025995685     0.000013335677    -0.000000197781
       4        0.000549587748    -0.001777475165     0.002204455773
       5       -0.000009178023    -0.000003580351    -0.000000481396
       6        0.000008195289    -0.000000401617     0.000004539985
       7       -0.000512134737     0.001919747789    -0.002602628735
       8       -0.000006070759    -0.000008422516     0.000000561444
       9        0.000001307990    -0.000013297079    -0.000000252875
      10       -0.001235392036     0.002432476787    -0.002191243519
      11       -0.000007838717    -0.000014873136    -0.000009882892
      12       -0.000016133006    -0.000011820869     0.000014470286
      13        0.000027813028     0.000002259675     0.000012442759
      14        0.001189619646    -0.002577524360     0.002574559903
      15       -0.000004120808     0.000010737298     0.000000901700
      16        0.000022681746    -0.000003746873     0.000002604153
      17        0.000000176424     0.000009601287    -0.000001502089
      18        0.000009539675     0.000003259673     0.000000069131
      19       -0.000006005736    -0.000001046513     0.000000085792
      20        0.000014058546     0.000005577744     0.000008878173
      21        0.000008689397     0.000000297904    -0.000014213117
      22       -0.000024040712    -0.000005876543     0.000000351660
      23        0.000005226920    -0.000005316818    -0.000013127384
      24        0.000005004912     0.000007456712     0.000011079736
      25        0.000000045418     0.000000328746     0.000007060288
      26       -0.000004873810    -0.000001066557     0.000000637206
      27       -0.000000520867    -0.000000385152    -0.000007134082

  **** Optimization is complete! (in 7 steps) ****
    Final optimized geometry and variables:
    Molecular point group: c1

    Geometry (in Angstrom), charge = 0, multiplicity = 1:

    H            0.884122948766     3.925495801000    -0.317657118104
    O            1.651928886809     3.587643009275    -0.754865731690
    C            1.949648983025     2.304170546929    -0.267734994375
    C            0.990691042893     1.228945550597    -0.769215747222
    H            2.952640405551     2.085319204906    -0.610940034490
    H            1.974433338648     2.305779324240     0.821480571661
    C           -0.447446093367     1.415498772450    -0.277885545905
    H            1.013917946923     1.228631145060    -1.856451790465
    H            1.373357604974     0.265618113820    -0.443533636355
    C           -1.465922888905     0.405108730892    -0.830305128829
    H           -0.795474258655     2.409924575805    -0.546435455671
    H           -0.451741397974     1.375904763702     0.810198326538
    C           -1.073561876973    -1.076352697230    -0.741670599794
    H           -2.395458847869     0.527764564533    -0.278365422296
    H           -1.677144956382     0.646550637475    -1.868932644710
    C           -0.887881057758    -1.598663945092     0.685396852899
    H           -1.857498286275    -1.656790679556    -1.223807693049
    H           -0.170820635068    -1.262163028007    -1.317838780546
    C           -0.588386457263    -3.098235490619     0.739498510660
    H           -1.788470376908    -1.392430323790     1.262226439587
    H           -0.082251541756    -1.060230085773     1.179729683887
    C           -0.410428764160    -3.621922455092     2.164188586118
    H           -1.394070056416    -3.643664195195     0.252844051446
    H            0.311107944821    -3.306478714444     0.163844947187
    H           -1.306267471917    -3.458565239478     2.756700801709
    H           -0.200941346081    -4.687138263349     2.168875752469
    H            0.412567221712    -3.121161108793     2.666497353509

  Mulliken Charges: (a.u.)
   Center  Symbol    Alpha    Beta     Spin     Total
       1     H     0.27980  0.27980  0.00000  0.44040
       2     O     4.37099  4.37099  0.00000 -0.74197
       3     C     2.99688  2.99688  0.00000  0.00624
       4     C     3.16393  3.16393  0.00000 -0.32786
       5     H     0.41442  0.41442  0.00000  0.17117
       6     H     0.43230  0.43230  0.00000  0.13540
       7     C     3.16339  3.16339  0.00000 -0.32677
       8     H     0.41544  0.41544  0.00000  0.16911
       9     H     0.42189  0.42189  0.00000  0.15622
      10     C     3.15184  3.15184  0.00000 -0.30368
      11     H     0.42476  0.42476  0.00000  0.15047
      12     H     0.42336  0.42336  0.00000  0.15328
      13     C     3.15778  3.15778  0.00000 -0.31555
      14     H     0.42204  0.42204  0.00000  0.15593
      15     H     0.41943  0.41943  0.00000  0.16114
      16     C     3.15261  3.15261  0.00000 -0.30521
      17     H     0.42096  0.42096  0.00000  0.15809
      18     H     0.42089  0.42089  0.00000  0.15822
      19     C     3.15112  3.15112  0.00000 -0.30224
      20     H     0.42438  0.42438  0.00000  0.15124
      21     H     0.42372  0.42372  0.00000  0.15256
      22     C     3.23920  3.23920  0.00000 -0.47841
      23     H     0.42265  0.42265  0.00000  0.15470
      24     H     0.42314  0.42314  0.00000  0.15373
      25     H     0.42177  0.42177  0.00000  0.15646
      26     H     0.41906  0.41906  0.00000  0.16189
      27     H     0.42229  0.42229  0.00000  0.15543

   Total alpha = 37.00000, Total beta = 37.00000, Total charge =  0.00000
