  ==> Input File <==

--------------------------------------------------------------------------
set {
	reference rhf
	basis 6-31G*
}

set_num_threads( 4 )
memory 2 gb

molecule MOL {
0 1

H	 2.642502	 -0.488860	 -0.983212
N	 1.662328	 -0.288473	 -1.004763
C	 1.297767	 0.581364	 0.098500
C	 0.892308	 -1.518712	 -0.987582
H	 1.882521	 1.492917	 0.036020
H	 1.489070	 0.123925	 1.072047
C	 -0.182733	 0.917294	 -0.000000
H	 1.183438	 -2.127988	 -1.836578
H	 1.059053	 -2.103346	 -0.079815
C	 -0.587941	 -1.181481	 -1.085409
H	 -0.354915	 1.509610	 -0.903667
H	 -0.475412	 1.521767	 0.852349
N	 -0.975995	 -0.298722	 0.000000
H	 -1.173247	 -2.092672	 -1.016905
H	 -0.787270	 -0.729775	 -2.061794
C	 -2.393863	 -0.024976	 0.000000
H	 -2.854032	 -0.467193	 -0.876721
H	 -2.854032	 -0.467193	 0.876721
H	 -2.623281	 1.044943	 0.000000

	symmetry c1
}
set optking {
	frozen_dihedral = ("
		7 13 16 19
	")
}

ee = optimize('scf')
oeprop('DIPOLE', 'QUADRUPOLE', 'MULLIKEN_CHARGES')
f=open( 'psi4out.xyz', 'w' )
f.write( "19  " )
f.write( str(ee) + "\n" )
f.write( MOL.save_string_xyz() )
f.close()
--------------------------------------------------------------------------

    Molecular point group: c1
  Charge       = 0
  Multiplicity = 1
  Basis Set: 6-31G*
  Basis Set:
  @DF-RHF Final Energy:  -305.19252856716918
    Total Energy =                       -305.1925285671690062
    Molecular point group: c1
  Basis Set: 6-31G*
  Basis Set:
  Basis Set: 6-31G*
  Basis Set:
  @DF-RHF Final Energy:  -305.19324290539015
    Total Energy =                       -305.1932429053900933
  Basis Set: 6-31G*
  Basis Set:
  Basis Set: 6-31G*
  Basis Set:
  @DF-RHF Final Energy:  -305.19339696961578
    Total Energy =                       -305.1933969696162308
  Basis Set: 6-31G*
  Basis Set:
  Basis Set: 6-31G*
  Basis Set:
  @DF-RHF Final Energy:  -305.19340720350436
    Total Energy =                       -305.1934072035045347
  Basis Set: 6-31G*
  Basis Set:
  Charge       = 0
  Multiplicity = 1
  Basis Set: 6-31G*
  Basis Set:

    Orbital Energies (a.u.)
    -----------------------

    Doubly Occupied:

       1A    -15.536739     2A    -15.535842     3A    -11.237606
       4A    -11.237584     5A    -11.236847     6A    -11.236801
       7A    -11.234769     8A     -1.243704     9A     -1.182529
      10A     -1.022373    11A     -0.963733    12A     -0.860087
      13A     -0.857872    14A     -0.755809    15A     -0.690069
      16A     -0.630434    17A     -0.623067    18A     -0.604260
      19A     -0.603335    20A     -0.580248    21A     -0.543869
      22A     -0.535130    23A     -0.511548    24A     -0.487860
      25A     -0.466090    26A     -0.456073    27A     -0.362580
      28A     -0.337065

  @DF-RHF Final Energy:  -305.19340824233387

   => Energetics <=

    Nuclear Repulsion Energy =            339.2343436400983023
    One-Electron Energy =               -1085.7076505926456775
    Two-Electron Energy =                 441.2798987102131036
    DFT Exchange-Correlation Energy =       0.0000000000000000
    Empirical Dispersion Energy =           0.0000000000000000
    PCM Polarization Energy =               0.0000000000000000
    EFP Energy =                            0.0000000000000000
    Total Energy =                       -305.1934082423342147
    Molecular point group: c1
  Basis Set: 6-31G*
  Basis Set:

  -Total Gradient:
     Atom            X                  Y                   Z
    ------   -----------------  -----------------  -----------------
       1        0.000008447667     0.000005901124     0.000002238703
       2       -0.000010694220     0.000007039472     0.000005274795
       3        0.000014836873    -0.000010997320     0.000013493358
       4        0.000001019032    -0.000014593646    -0.000047063015
       5        0.000003481912     0.000000860662     0.000000230604
       6       -0.000002756767     0.000002801092     0.000006581534
       7        0.000012401384    -0.000023594138     0.001079319899
       8        0.000020362121    -0.000006563784    -0.000002928640
       9       -0.000017295330     0.000005082268    -0.000006555938
      10       -0.000009623719    -0.000025322243     0.000021155846
      11       -0.000012448144    -0.000006691488    -0.000000254776
      12        0.000001764995    -0.000002120885    -0.000002109144
      13       -0.000000256885     0.000073175694    -0.001884321525
      14        0.000001883724     0.000001825568    -0.000003445175
      15        0.000007597890    -0.000006446841     0.000003892972
      16       -0.000018030232    -0.000064997331     0.002299974327
      17       -0.000002160221     0.000002810758    -0.000000442540
      18        0.000039363128    -0.000002553610    -0.000040023931
      19       -0.000037893208     0.000064384647    -0.001445017354

  **** Optimization is complete! (in 5 steps) ****
    Final optimized geometry and variables:
    Molecular point group: c1

    Geometry (in Angstrom), charge = 0, multiplicity = 1:

    H            2.698552141793    -0.242342180371    -0.534100134999
    N            1.719342374224    -0.038650433012    -0.566103948912
    C            1.347923955893     0.837805288793     0.529560755225
    C            0.945311055022    -1.266317105030    -0.548802496012
    H            1.942277709790     1.743677651562     0.472864662114
    H            1.521709346422     0.380531168951     1.506572529895
    C           -0.127858492780     1.187782241641     0.411732148276
    H            1.246333350666    -1.884336977609    -1.388161118746
    H            1.098102819356    -1.842745140062     0.366711249303
    C           -0.532482562912    -0.926312891839    -0.669297367010
    H           -0.278939476742     1.792424367633    -0.487705761400
    H           -0.423335197029     1.786345240607     1.266700097750
    N           -0.929063394866    -0.021379258272     0.392136143969
    H           -1.118152777801    -1.835984403774    -0.586967896400
    H           -0.720251165311    -0.497733711474    -1.658416665289
    C           -2.362755048302     0.216102762480     0.450977598171
    H           -2.867867515421    -0.164527955016    -0.433488614154
    H           -2.805537775780    -0.262928922868     1.319246586186
    H           -2.582973410672     1.277541879462     0.500094726905

  Mulliken Charges: (a.u.)
   Center  Symbol    Alpha    Beta     Spin     Total
       1     H     0.32959  0.32959  0.00000  0.34083
       2     N     3.85432  3.85432  0.00000 -0.70865
       3     C     3.06362  3.06362  0.00000 -0.12724
       4     C     3.06351  3.06351  0.00000 -0.12702
       5     H     0.41808  0.41808  0.00000  0.16385
       6     H     0.42811  0.42811  0.00000  0.14379
       7     C     3.05291  3.05291  0.00000 -0.10581
       8     H     0.41805  0.41805  0.00000  0.16390
       9     H     0.42812  0.42812  0.00000  0.14376
      10     C     3.05313  3.05313  0.00000 -0.10627
      11     H     0.42885  0.42885  0.00000  0.14229
      12     H     0.41849  0.41849  0.00000  0.16303
      13     N     3.79459  3.79459  0.00000 -0.58918
      14     H     0.41842  0.41842  0.00000  0.16317
      15     H     0.42866  0.42866  0.00000  0.14268
      16     C     3.13868  3.13868  0.00000 -0.27737
      17     H     0.42425  0.42425  0.00000  0.15150
      18     H     0.41683  0.41683  0.00000  0.16635
      19     H     0.42180  0.42180  0.00000  0.15639

   Total alpha = 28.00000, Total beta = 28.00000, Total charge = -0.00000
