                              Psi4 1.0.54 Driver

  ==> Input File <==

--------------------------------------------------------------------------
set {
	reference rhf
	basis cc-pvtz
}

set_num_threads( 4 )
memory 2 gb

molecule MOL {
0 1

H	 -2.847674	 -1.393813	 0.633092
O	 -2.025108	 -1.066990	 0.319069
C	 -2.021813	 0.336996	 0.342658
C	 -0.669613	 0.837286	 -0.127252
H	 -2.799868	 0.726405	 -0.309043
H	 -2.222213	 0.700454	 1.348701
C	 0.490865	 -0.082543	 0.241244
H	 -0.708709	 0.967192	 -1.204587
H	 -0.507562	 1.822272	 0.303070
C	 1.839800	 0.429565	 -0.255472
H	 0.305636	 -1.070211	 -0.165276
H	 0.527397	 -0.195943	 1.322876
C	 3.001144	 -0.485193	 0.119072
H	 1.804373	 0.541073	 -1.335756
H	 2.020437	 1.423114	 0.146921
H	 2.866892	 -1.477297	 -0.298806
H	 3.943543	 -0.095749	 -0.249061
H	 3.085064	 -0.590459	 1.195790

	symmetry c1
}
set optking {
	frozen_dihedral = ("
		2 3 4 8
	")
}

ee,wfn = optimize('scf', return_wfn=True)
oeprop( wfn, 'DIPOLE', 'QUADRUPOLE', 'MULLIKEN_CHARGES')
f=open( 'psi4out.xyz', 'w' )
f.write( "18  " )
f.write( str(ee) + "\n" )
f.write( MOL.save_string_xyz() )
f.close()
--------------------------------------------------------------------------

    Molecular point group: c1
  Charge       = 0
  Multiplicity = 1
  Basis Set: CC-PVTZ
  Basis Set:
  @DF-RHF Final Energy:  -271.28209390263970
    Total Energy =                       -271.2820939026398150
    Molecular point group: c1
  Basis Set: CC-PVTZ
  Basis Set:
  Basis Set: CC-PVTZ
  Basis Set:
  @DF-RHF Final Energy:  -271.28271292672923
    Total Energy =                       -271.2827129267292321
  Basis Set: CC-PVTZ
  Basis Set:
  Basis Set: CC-PVTZ
  Basis Set:
  @DF-RHF Final Energy:  -271.28304671198509
    Total Energy =                       -271.2830467119850937
  Basis Set: CC-PVTZ
  Basis Set:
  Basis Set: CC-PVTZ
  Basis Set:
  @DF-RHF Final Energy:  -271.28306189503724
    Total Energy =                       -271.2830618950372923
  Basis Set: CC-PVTZ
  Basis Set:
  Charge       = 0
  Multiplicity = 1
  Basis Set: CC-PVTZ
  Basis Set:

    Orbital Energies (a.u.)
    -----------------------

    Doubly Occupied:

       1A    -20.545871     2A    -11.266549     3A    -11.210965
       4A    -11.207995     5A    -11.203355     6A    -11.201657
       7A     -1.363983     8A     -1.074680     9A     -1.008258
      10A     -0.914769    11A     -0.818086    12A     -0.783759
      13A     -0.702357    14A     -0.653479    15A     -0.620010
      16A     -0.583299    17A     -0.573881    18A     -0.553675
      19A     -0.521262    20A     -0.503619    21A     -0.490801
      22A     -0.465751    23A     -0.457999    24A     -0.445191
      25A     -0.430850

  @DF-RHF Final Energy:  -271.28306276124295

   => Energetics <=

    Nuclear Repulsion Energy =            249.9078051598096408
    One-Electron Energy =                -863.1775385441272874
    Two-Electron Energy =                 341.9866706230749287
    DFT Exchange-Correlation Energy =       0.0000000000000000
    Empirical Dispersion Energy =           0.0000000000000000
    PCM Polarization Energy =               0.0000000000000000
    EFP Energy =                            0.0000000000000000
    Total Energy =                       -271.2830627612427179
    Molecular point group: c1
  Basis Set: CC-PVTZ
  Basis Set:

  -Total Gradient:
     Atom            X                  Y                   Z
    ------   -----------------  -----------------  -----------------
       1       -0.000015200621    -0.000056219216     0.000016635574
       2        0.001611918772    -0.000064386341     0.004514166750
       3       -0.002416221747     0.001680953308    -0.005776021703
       4        0.002658670786    -0.007540555272     0.000515656034
       5        0.000002110495    -0.000079100945    -0.000025602122
       6       -0.000020203429     0.000025988350     0.000000244679
       7       -0.000101958966     0.000000906460    -0.000137412378
       8       -0.001756898076     0.005939225208     0.000858034720
       9        0.000020744873     0.000100194512    -0.000001001111
      10        0.000032978421     0.000002632974     0.000032435220
      11       -0.000022854111    -0.000029087743    -0.000028771298
      12       -0.000000087715     0.000014610703    -0.000010213171
      13        0.000024397135     0.000024686519     0.000011890976
      14       -0.000023479531    -0.000034460400     0.000028242009
      15        0.000000865499     0.000011004771    -0.000008540399
      16       -0.000008005728     0.000010318179    -0.000004137855
      17        0.000008257513    -0.000002721502     0.000008050388
      18        0.000004966435    -0.000003989568     0.000006343686

  **** Optimization is complete! (in 5 steps) ****
    Final optimized geometry and variables:
    Molecular point group: c1

    Geometry (in Angstrom), charge = 0, multiplicity = 1:

    H           -3.010876478544    -1.335488615332     0.403180849625
    O           -2.153680707898    -1.053786115906     0.142913026304
    C           -2.082645799162     0.348379629385     0.170265589404
    C           -0.710843410077     0.818494154366    -0.304935049270
    H           -2.856879991844     0.786884893208    -0.452642063469
    H           -2.246619284336     0.695636625349     1.188222330603
    C            0.456186704782    -0.068651999810     0.112251556303
    H           -0.724953614867     0.968211466070    -1.380477878991
    H           -0.562519719177     1.814808384713     0.106512940773
    C            1.808147710673     0.509836362361    -0.296017695165
    H            0.335256612764    -1.053764955668    -0.320316922658
    H            0.434070875890    -0.206714726188     1.190467373011
    C            2.982269008652    -0.372880682642     0.113981383091
    H            1.826419062555     0.653704700092    -1.373119585976
    H            1.929440424226     1.496161546422     0.144311971224
    H            2.908902371370    -1.355580447645    -0.339597025918
    H            3.927386282442     0.062528631076    -0.190291571896
    H            3.012038483465    -0.509083582683     1.190017466038

  Mulliken Charges: (a.u.)
   Center  Symbol    Alpha    Beta     Spin     Total
       1     H     0.39702  0.39702  0.00000  0.20596
       2     O     4.19493  4.19493  0.00000 -0.38985
       3     C     2.97193  2.97193  0.00000  0.05614
       4     C     3.09563  3.09563  0.00000 -0.19127
       5     H     0.46723  0.46723  0.00000  0.06554
       6     H     0.47349  0.47349  0.00000  0.05303
       7     C     3.08136  3.08136  0.00000 -0.16272
       8     H     0.45349  0.45349  0.00000  0.09303
       9     H     0.45779  0.45779  0.00000  0.08442
      10     C     3.08462  3.08462  0.00000 -0.16924
      11     H     0.44360  0.44360  0.00000  0.11281
      12     H     0.45675  0.45675  0.00000  0.08651
      13     C     3.14974  3.14974  0.00000 -0.29948
      14     H     0.45567  0.45567  0.00000  0.08866
      15     H     0.45680  0.45680  0.00000  0.08639
      16     H     0.45456  0.45456  0.00000  0.09088
      17     H     0.44971  0.44971  0.00000  0.10058
      18     H     0.45569  0.45569  0.00000  0.08863

   Total alpha = 25.00000, Total beta = 25.00000, Total charge =  0.00000

*** Psi4 exiting successfully. Buy a developer a beer!
