  ==> Input File <==

--------------------------------------------------------------------------
set {
	reference rhf
	basis cc-pvtz
}

set_num_threads( 4 )
memory 2 gb

molecule MOL {
0 1

H	 -3.162190	 0.493205	 -0.000107
C	 -2.363908	 -0.234727	 0.000005
O	 -1.158738	 0.454634	 -0.000087
H	 -2.464314	 -0.863616	 -0.882153
H	 -2.464327	 -0.863359	 0.882345
C	 -0.028611	 -0.359694	 0.000037
C	 -0.028376	 -1.213450	 -1.251959
H	 -0.024648	 -0.993584	 0.887058
H	 0.873025	 0.252080	 0.037808
C	 1.182365	 -2.136953	 -1.326791
H	 -0.943531	 -1.794776	 -1.273802
H	 -0.052941	 -0.559015	 -2.116287
H	 1.213121	 -2.817757	 -0.482606
H	 1.157128	 -2.734546	 -2.229712
H	 2.109640	 -1.573738	 -1.331024

	symmetry c1
}
set optking {
	frozen_dihedral = ("
		8 6 3 2
	")
}

ee = optimize('scf')
oeprop('DIPOLE', 'QUADRUPOLE', 'MULLIKEN_CHARGES')
f=open( 'psi4out.xyz', 'w' )
f.write( "15  " )
f.write( str(ee) + "\n" )
f.write( MOL.save_string_xyz() )
f.close()
--------------------------------------------------------------------------

    Molecular point group: c1
  Charge       = 0
  Multiplicity = 1
  Basis Set: CC-PVTZ
  Basis Set:
  @DF-RHF Final Energy:  -232.21913917877330
    Total Energy =                       -232.2191391787732755
    Molecular point group: c1
  Basis Set: CC-PVTZ
  Basis Set:
  Basis Set: CC-PVTZ
  Basis Set:
  @DF-RHF Final Energy:  -232.22045995776335
    Total Energy =                       -232.2204599577632962
  Basis Set: CC-PVTZ
  Basis Set:
  Basis Set: CC-PVTZ
  Basis Set:
  @DF-RHF Final Energy:  -232.22411609802978
    Total Energy =                       -232.2241160980298673
  Basis Set: CC-PVTZ
  Basis Set:
  Basis Set: CC-PVTZ
  Basis Set:
  @DF-RHF Final Energy:  -232.22476635104843
    Total Energy =                       -232.2247663510484017
  Basis Set: CC-PVTZ
  Basis Set:
  Basis Set: CC-PVTZ
  Basis Set:
  @DF-RHF Final Energy:  -232.22485251516179
    Total Energy =                       -232.2248525151617287
  Basis Set: CC-PVTZ
  Basis Set:
  Basis Set: CC-PVTZ
  Basis Set:
  @DF-RHF Final Energy:  -232.22486054155038
    Total Energy =                       -232.2248605415503562
  Basis Set: CC-PVTZ
  Basis Set:
  Charge       = 0
  Multiplicity = 1
  Basis Set: CC-PVTZ
  Basis Set:

    Orbital Energies (a.u.)
    -----------------------

    Doubly Occupied:

       1A    -20.545737     2A    -11.264235     3A    -11.260657
       4A    -11.216218     5A    -11.213414     6A     -1.377875
       7A     -1.057975     8A     -0.960730     9A     -0.884082
      10A     -0.803883    11A     -0.671418    12A     -0.659746
      13A     -0.634813    14A     -0.604457    15A     -0.565040
      16A     -0.530611    17A     -0.524518    18A     -0.498532
      19A     -0.485990    20A     -0.454762    21A     -0.410010

  @DF-RHF Final Energy:  -232.22486101637855

   => Energetics <=

    Nuclear Repulsion Energy =            192.0538357556188771
    One-Electron Energy =                -695.3079886160228398
    Two-Electron Energy =                 271.0292918440252947
    DFT Exchange-Correlation Energy =       0.0000000000000000
    Empirical Dispersion Energy =           0.0000000000000000
    PCM Polarization Energy =               0.0000000000000000
    EFP Energy =                            0.0000000000000000
    Total Energy =                       -232.2248610163786680
    Molecular point group: c1
  Basis Set: CC-PVTZ
  Basis Set:

  -Total Gradient:
     Atom            X                  Y                   Z
    ------   -----------------  -----------------  -----------------
       1        0.000022583345     0.000009511378    -0.000003039662
       2       -0.000026593224    -0.000054119158    -0.001456427013
       3        0.000404177486     0.000352875324     0.002356483060
       4        0.000001662416    -0.000001098317    -0.000006606980
       5       -0.000005895206    -0.000002316578     0.000003334982
       6       -0.001318292156    -0.001535595397    -0.001711123402
       7        0.000015957206     0.000006749750    -0.000035381738
       8        0.000976039910     0.001222253287     0.000850832364
       9       -0.000051878331     0.000033042505     0.000013833410
      10       -0.000012045985    -0.000021059525     0.000004488988
      11        0.000003811715    -0.000013961828    -0.000005128919
      12       -0.000005767931     0.000003044001    -0.000010816598
      13        0.000007298141    -0.000000472616     0.000003200560
      14       -0.000001697503    -0.000002126111     0.000001438670
      15       -0.000009359883     0.000003273286    -0.000005087722

  **** Optimization is complete! (in 7 steps) ****
    Final optimized geometry and variables:
    Molecular point group: c1

    Geometry (in Angstrom), charge = 0, multiplicity = 1:

    H           -2.635852818573     1.366991228245     0.764095852374
    C           -1.929738357017     0.575589113944     0.557080113466
    O           -0.665299840129     1.150373840118     0.498011521472
    H           -2.211364099195     0.100885786196    -0.377374064505
    H           -1.994922154661    -0.163537490800     1.353542445280
    C            0.416980320032     0.269661853949     0.469561459802
    C            0.497675931122    -0.605651924921    -0.773567443090
    H            0.415929872433    -0.347492969968     1.368650502345
    H            1.298527039638     0.896542772657     0.520305572677
    C            1.790592510948    -1.414542763788    -0.808666320360
    H           -0.347761477149    -1.283687284815    -0.813452419255
    H            0.433190530392     0.031455629172    -1.649854498239
    H            1.871979120532    -2.064762332305     0.056126391538
    H            1.835218360171    -2.037785679882    -1.693414155257
    H            2.659977349698    -0.766023710154    -0.817088844287

  Mulliken Charges: (a.u.)
   Center  Symbol    Alpha    Beta     Spin     Total
       1     H     0.44421  0.44421  0.00000  0.11158
       2     C     3.03593  3.03593  0.00000 -0.07185
       3     O     4.17598  4.17598  0.00000 -0.35195
       4     H     0.46869  0.46869  0.00000  0.06263
       5     H     0.47295  0.47295  0.00000  0.05409
       6     C     2.97693  2.97693  0.00000  0.04614
       7     C     3.09145  3.09145  0.00000 -0.18290
       8     H     0.47068  0.47068  0.00000  0.05865
       9     H     0.45018  0.45018  0.00000  0.09964
      10     C     3.15241  3.15241  0.00000 -0.30482
      11     H     0.45594  0.45594  0.00000  0.08811
      12     H     0.44939  0.44939  0.00000  0.10122
      13     H     0.45518  0.45518  0.00000  0.08964
      14     H     0.44671  0.44671  0.00000  0.10657
      15     H     0.45337  0.45337  0.00000  0.09325

   Total alpha = 21.00000, Total beta = 21.00000, Total charge = -0.00000
