                              Psi4 1.0.54 Driver

  ==> Input File <==

--------------------------------------------------------------------------
set {
	reference rhf
	basis cc-pvtz
}

set_num_threads( 4 )
memory 2 gb

molecule MOL {
0 1

H	 -3.434599	 -0.187624	 -0.158771
O	 -2.658848	 -0.704215	 -0.000460
C	 -1.605397	 0.107680	 0.001145
C	 -0.310616	 -0.658853	 0.000791
O	 -1.718351	 1.284629	 -0.000627
C	 0.926581	 0.227233	 0.000178
H	 -0.327628	 -1.313681	 -0.864448
H	 -0.327041	 -1.313334	 0.866298
C	 2.220156	 -0.582071	 -0.000088
H	 0.899945	 0.878221	 -0.866390
H	 0.900542	 0.878581	 0.866486
C	 3.466689	 0.296012	 -0.000457
H	 2.239073	 -1.234095	 -0.869382
H	 2.239505	 -1.233985	 0.869270
H	 3.493549	 0.935857	 -0.875887
H	 4.368821	 -0.304526	 -0.001199
H	 3.494559	 0.935166	 0.875458

	symmetry c1
}
set optking {
	frozen_dihedral = ("
		1 2 3 5
	")
}

ee,wfn = optimize('scf', return_wfn=True)
oeprop( wfn, 'DIPOLE', 'QUADRUPOLE', 'MULLIKEN_CHARGES')
f=open( 'psi4out.xyz', 'w' )
f.write( "17  " )
f.write( str(ee) + "\n" )
f.write( MOL.save_string_xyz() )
f.close()
--------------------------------------------------------------------------

    Molecular point group: c1
  Charge       = 0
  Multiplicity = 1
  Basis Set: CC-PVTZ
  Basis Set:
  @DF-RHF Final Energy:  -345.04831453187023
    Total Energy =                       -345.0483145318704601
    Molecular point group: c1
  Basis Set: CC-PVTZ
  Basis Set:
  Basis Set: CC-PVTZ
  Basis Set:
  @DF-RHF Final Energy:  -345.04673136630748
    Total Energy =                       -345.0467313663075402
  Basis Set: CC-PVTZ
  Basis Set:
  Basis Set: CC-PVTZ
  Basis Set:
  @DF-RHF Final Energy:  -345.04837516488863
    Total Energy =                       -345.0483751648887392
  Basis Set: CC-PVTZ
  Basis Set:
  Basis Set: CC-PVTZ
  Basis Set:
  @DF-RHF Final Energy:  -345.04838428748877
    Total Energy =                       -345.0483842874886022
  Basis Set: CC-PVTZ
  Basis Set:
  Basis Set: CC-PVTZ
  Basis Set:
  @DF-RHF Final Energy:  -345.04838647916978
    Total Energy =                       -345.0483864791696078
  Basis Set: CC-PVTZ
  Basis Set:
  Charge       = 0
  Multiplicity = 1
  Basis Set: CC-PVTZ
  Basis Set:

    Orbital Energies (a.u.)
    -----------------------

    Doubly Occupied:

       1A    -20.603714     2A    -20.540972     3A    -11.373734
       4A    -11.239358     5A    -11.221313     6A    -11.220680
       7A    -11.210703     8A     -1.477245     9A     -1.369378
      10A     -1.092894    11A     -1.019808    12A     -0.914835
      13A     -0.824982    14A     -0.791146    15A     -0.704113
      16A     -0.687930    17A     -0.671865    18A     -0.631778
      19A     -0.593304    20A     -0.585460    21A     -0.573732
      22A     -0.538691    23A     -0.509323    24A     -0.485462
      25A     -0.482525    26A     -0.478400    27A     -0.472665
      28A     -0.446278

  @DF-RHF Final Energy:  -345.04838784457183

   => Energetics <=

    Nuclear Repulsion Energy =            304.7726465553727166
    One-Electron Energy =               -1074.1174932599433305
    Two-Electron Energy =                 424.2964588599987792
    DFT Exchange-Correlation Energy =       0.0000000000000000
    Empirical Dispersion Energy =           0.0000000000000000
    PCM Polarization Energy =               0.0000000000000000
    EFP Energy =                            0.0000000000000000
    Total Energy =                       -345.0483878445718346
    Molecular point group: c1
  Basis Set: CC-PVTZ
  Basis Set:

  -Total Gradient:
     Atom            X                  Y                   Z
    ------   -----------------  -----------------  -----------------
       1        0.000268078078    -0.000641753235    -0.003571908378
       2       -0.000280764451     0.000808887225     0.005973281388
       3       -0.000124267277    -0.000186165033    -0.005820851006
       4        0.000003266192     0.000001407342     0.000032755468
       5        0.000118341391     0.000047680601     0.003359891669
       6        0.000002309944    -0.000015332897    -0.000000892966
       7        0.000002027753    -0.000013439316     0.000016549339
       8        0.000008735026    -0.000004409896     0.000018231367
       9        0.000000578457     0.000001674727    -0.000004882092
      10        0.000005039179     0.000003959022    -0.000002693992
      11       -0.000002529081    -0.000002765285    -0.000003792108
      12       -0.000000310297    -0.000001160813     0.000004785083
      13       -0.000001452445    -0.000000109630    -0.000000626234
      14        0.000000288738    -0.000000933854    -0.000000255476
      15       -0.000000497669    -0.000000029713    -0.000000392744
      16        0.000000054142    -0.000000221224     0.000000648125
      17        0.000001102314     0.000002711982     0.000000152555

  **** Optimization is complete! (in 6 steps) ****
    Final optimized geometry and variables:
    Molecular point group: c1

    Geometry (in Angstrom), charge = 0, multiplicity = 1:

    H           -3.440871591456    -0.191959769368    -0.106207556494
    O           -2.658893018936    -0.702821267295     0.038786379528
    C           -1.605450587177     0.108314625946    -0.021550428260
    C           -0.310830520509    -0.658321936769    -0.008949114346
    O           -1.717888762577     1.284603750905    -0.053719655748
    C            0.926629190600     0.227203147030     0.005362153563
    H           -0.319040195539    -1.309805838767    -0.877083859167
    H           -0.336827728455    -1.316228031697     0.853514575542
    C            2.219865006936    -0.582552813048     0.014474376549
    H            0.908359200081     0.881528121479    -0.858774166794
    H            0.892706991807     0.875178525786     0.874064877233
    C            3.466593834343     0.295083054533     0.029695965764
    H            2.246940285804    -1.231004240580    -0.857276286789
    H            2.230618242288    -1.237955867663     0.881329972561
    H            3.502350241817     0.938049026792    -0.843130469418
    H            4.368500921139    -0.305767907969     0.035814747287
    H            3.485891250648     0.931082821000     0.908127982533

  Mulliken Charges: (a.u.)
   Center  Symbol    Alpha    Beta     Spin     Total
       1     H     0.38215  0.38215  0.00000  0.23570
       2     O     4.16053  4.16053  0.00000 -0.32105
       3     C     2.80483  2.80483  0.00000  0.39033
       4     C     3.11080  3.11080  0.00000 -0.22160
       5     O     4.19028  4.19028  0.00000 -0.38056
       6     C     3.08209  3.08209  0.00000 -0.16419
       7     H     0.43897  0.43897  0.00000  0.12206
       8     H     0.43766  0.43766  0.00000  0.12469
       9     C     3.08600  3.08600  0.00000 -0.17199
      10     H     0.44596  0.44596  0.00000  0.10808
      11     H     0.44650  0.44650  0.00000  0.10701
      12     C     3.14924  3.14924  0.00000 -0.29847
      13     H     0.45491  0.45491  0.00000  0.09018
      14     H     0.45476  0.45476  0.00000  0.09047
      15     H     0.45367  0.45367  0.00000  0.09265
      16     H     0.44801  0.44801  0.00000  0.10398
      17     H     0.45365  0.45365  0.00000  0.09271

   Total alpha = 28.00000, Total beta = 28.00000, Total charge =  0.00000

*** Psi4 exiting successfully. Buy a developer a beer!
