  ==> Input File <==

--------------------------------------------------------------------------
set {
	reference rhf
	basis 6-31G*
}

set_num_threads( 1 )
memory 2 gb

molecule MOL {
0 1

H	 -2.798360	 -0.862255	 -0.071053
N	 -1.863561	 -0.715187	 0.256814
C	 -1.344686	 0.554728	 -0.219830
H	 -1.300452	 -1.461917	 -0.101532
C	 -2.141004	 1.020641	 -1.420637
H	 -1.361191	 1.345450	 0.531495
H	 -0.311613	 0.415457	 -0.523383
O	 -3.452849	 1.273487	 -1.005645
H	 -1.699246	 1.925501	 -1.837430
H	 -2.130007	 0.249905	 -2.188153
C	 -4.321518	 1.630228	 -2.033128
H	 -5.295569	 1.800378	 -1.594985
H	 -3.996100	 2.542012	 -2.530859
H	 -4.402373	 0.840776	 -2.777465

	symmetry c1
}
set optking {
	frozen_dihedral = ("
		8 5 3 6,
		5 8 11 13,
		11 8 5 3
	")
}

ee = energy('scf')
oeprop('DIPOLE', 'QUADRUPOLE', 'MULLIKEN_CHARGES')
f=open( 'psi4out.xyz', 'w' )
f.write( "14  " )
f.write( str(ee) + "\n" )
f.write( MOL.save_string_xyz() )
f.close()
--------------------------------------------------------------------------

    Molecular point group: c1

    Geometry (in Angstrom), charge = 0, multiplicity = 1:

       Center              X                  Y                   Z               Mass
    ------------   -----------------  -----------------  -----------------  -----------------
           H         -0.154274590118    -1.603847114969     0.831488133752     1.007825032070
           N          0.780524409882    -1.456779114969     1.159355133752    14.003074004780
           C          1.299399409882    -0.186864114969     0.682711133752    12.000000000000
           H          1.343633409882    -2.203509114969     0.801009133752     1.007825032070
           C          0.503081409882     0.279048885031    -0.518095866248    12.000000000000
           H          1.282894409882     0.603857885031     1.434036133752     1.007825032070
           H          2.332472409882    -0.326135114969     0.379158133752     1.007825032070
           O         -0.808763590118     0.531894885031    -0.103103866248    15.994914619560
           H          0.944839409882     1.183908885031    -0.934888866248     1.007825032070
           H          0.514078409882    -0.491687114969    -1.285611866248     1.007825032070
           C         -1.677432590118     0.888635885031    -1.130586866248    12.000000000000
           H         -2.651483590118     1.058785885031    -0.692443866248     1.007825032070
           H         -1.352014590118     1.800419885031    -1.628317866248     1.007825032070
           H         -1.758287590118     0.099183885031    -1.874923866248     1.007825032070

  Charge       = 0
  Multiplicity = 1
  Basis Set: 6-31G*
  Basis Set:

    Orbital Energies (a.u.)
    -----------------------

    Doubly Occupied:

       1A    -20.561995     2A    -15.527009     3A    -11.269902
       4A    -11.269580     5A    -11.242110     6A     -1.386144
       7A     -1.175907     8A     -1.000078     9A     -0.909914
      10A     -0.823122    11A     -0.687389    12A     -0.675927
      13A     -0.648540    14A     -0.618756    15A     -0.591340
      16A     -0.561000    17A     -0.520248    18A     -0.501427
      19A     -0.482155    20A     -0.423163    21A     -0.375030

  @DF-RHF Final Energy:  -248.11909226009072

   => Energetics <=

    Nuclear Repulsion Energy =            195.1986834843112888
    One-Electron Energy =                -724.1340124492203358
    Two-Electron Energy =                 280.8162367048183228
    DFT Exchange-Correlation Energy =       0.0000000000000000
    Empirical Dispersion Energy =           0.0000000000000000
    PCM Polarization Energy =               0.0000000000000000
    EFP Energy =                            0.0000000000000000
    Total Energy =                       -248.1190922600907811

  Mulliken Charges: (a.u.)
   Center  Symbol    Alpha    Beta     Spin     Total
       1     H     0.32304  0.32304  0.00000  0.35393
       2     N     3.92397  3.92397  0.00000 -0.84793
       3     C     3.06025  3.06025  0.00000 -0.12049
       4     H     0.33505  0.33505  0.00000  0.32989
       5     C     3.00342  3.00342  0.00000 -0.00684
       6     H     0.41208  0.41208  0.00000  0.17585
       7     H     0.42390  0.42390  0.00000  0.15221
       8     O     4.30521  4.30521  0.00000 -0.61043
       9     H     0.43003  0.43003  0.00000  0.13994
      10     H     0.43442  0.43442  0.00000  0.13115
      11     C     3.07955  3.07955  0.00000 -0.15910
      12     H     0.41035  0.41035  0.00000  0.17930
      13     H     0.42859  0.42859  0.00000  0.14282
      14     H     0.43015  0.43015  0.00000  0.13970

   Total alpha = 21.00000, Total beta = 21.00000, Total charge =  0.00000
