                              Psi4 1.0.54 Driver

  ==> Input File <==

--------------------------------------------------------------------------
set {
	reference rhf
	basis cc-pvtz
}

set_num_threads( 4 )
memory 2 gb

molecule MOL {
0 1

H	 3.209057	 1.103456	 -0.763390
C	 2.497918	 0.921990	 0.031992
C	 1.322304	 0.099773	 -0.484271
H	 3.018500	 0.406707	 0.831270
H	 2.170443	 1.883841	 0.410071
C	 0.308557	 -0.162619	 0.622645
H	 1.672342	 -0.848909	 -0.871841
H	 0.829458	 0.622061	 -1.294984
N	 -1.069352	 -0.004081	 0.085342
H	 0.371632	 -1.172932	 0.991288
H	 0.400391	 0.548875	 1.426218
O	 -1.584901	 -0.965470	 -0.377818
O	 -1.548033	 1.079343	 0.130056

	symmetry c1
}
set optking {
	frozen_dihedral = ("
		7 3 6 9
	")
}

ee,wfn = optimize('scf', return_wfn=True)
oeprop( wfn, 'DIPOLE', 'QUADRUPOLE', 'MULLIKEN_CHARGES')
f=open( 'psi4out.xyz', 'w' )
f.write( "13  " )
f.write( str(ee) + "\n" )
f.write( MOL.save_string_xyz() )
f.close()
--------------------------------------------------------------------------

    Molecular point group: c1
  Charge       = 0
  Multiplicity = 1
  Basis Set: CC-PVTZ
  Basis Set:
  @DF-RHF Final Energy:  -321.85689884488193
    Total Energy =                       -321.8568988448816981
    Molecular point group: c1
  Basis Set: CC-PVTZ
  Basis Set:
  Basis Set: CC-PVTZ
  Basis Set:
  @DF-RHF Final Energy:  -321.85481288904060
    Total Energy =                       -321.8548128890404314
  Basis Set: CC-PVTZ
  Basis Set:
  Basis Set: CC-PVTZ
  Basis Set:
  @DF-RHF Final Energy:  -321.85286281671296
    Total Energy =                       -321.8528628167129000
  Basis Set: CC-PVTZ
  Basis Set:
  Basis Set: CC-PVTZ
  Basis Set:
  @DF-RHF Final Energy:  -321.85707143329728
    Total Energy =                       -321.8570714332972784
  Basis Set: CC-PVTZ
  Basis Set:
  Basis Set: CC-PVTZ
  Basis Set:
  @DF-RHF Final Energy:  -321.85713103739323
    Total Energy =                       -321.8571310373934011
  Basis Set: CC-PVTZ
  Basis Set:
  Basis Set: CC-PVTZ
  Basis Set:
  @DF-RHF Final Energy:  -321.85724172728624
    Total Energy =                       -321.8572417272861230
  Basis Set: CC-PVTZ
  Basis Set:
  Basis Set: CC-PVTZ
  Basis Set:
  @DF-RHF Final Energy:  -321.85724339024824
    Total Energy =                       -321.8572433902484704
  Basis Set: CC-PVTZ
  Basis Set:
  Charge       = 0
  Multiplicity = 1
  Basis Set: CC-PVTZ
  Basis Set:

    Orbital Energies (a.u.)
    -----------------------

    Doubly Occupied:

       1A    -20.590754     2A    -20.589902     3A    -15.836862
       4A    -11.297360     5A    -11.255309     6A    -11.235233
       7A     -1.635959     8A     -1.420213     9A     -1.132092
      10A     -1.027498    11A     -0.883817    12A     -0.834548
      13A     -0.762327    14A     -0.738044    15A     -0.727622
      16A     -0.665486    17A     -0.610881    18A     -0.592017
      19A     -0.542558    20A     -0.520233    21A     -0.515065
      22A     -0.485117    23A     -0.474812    24A     -0.453749

  @DF-RHF Final Energy:  -321.85724380907880

   => Energetics <=

    Nuclear Repulsion Energy =            248.3973142786509527
    One-Electron Energy =                -930.8542023718479186
    Two-Electron Energy =                 360.5996442841180283
    DFT Exchange-Correlation Energy =       0.0000000000000000
    Empirical Dispersion Energy =           0.0000000000000000
    PCM Polarization Energy =               0.0000000000000000
    EFP Energy =                            0.0000000000000000
    Total Energy =                       -321.8572438090789660
    Molecular point group: c1
  Basis Set: CC-PVTZ
  Basis Set:

  -Total Gradient:
     Atom            X                  Y                   Z
    ------   -----------------  -----------------  -----------------
       1       -0.000009850493    -0.000006260313     0.000004939835
       2       -0.000000629368    -0.000006835893     0.000000963545
       3       -0.003253182136     0.001038714336    -0.002906744740
       4       -0.000006345272     0.000011582056    -0.000007888910
       5       -0.000000725477    -0.000012028055    -0.000001316230
       6        0.000393397982    -0.003558124523    -0.000300868758
       7        0.002713566731    -0.000135311464     0.002538145277
       8       -0.000002550146     0.000005910627    -0.000015043919
       9        0.000156311765     0.002692588800     0.000718243181
      10        0.000010500474    -0.000001113257     0.000011278535
      11       -0.000001771760     0.000006959965    -0.000003729944
      12        0.000002996168    -0.000020222852    -0.000030248373
      13       -0.000001718466    -0.000015859426    -0.000007729499

  **** Optimization is complete! (in 8 steps) ****
    Final optimized geometry and variables:
    Molecular point group: c1

    Geometry (in Angstrom), charge = 0, multiplicity = 1:

    H            3.341070965447     0.723969204078    -0.726238363766
    C            2.594392492304     0.622904792336     0.051126402715
    C            1.370630362791    -0.120367574781    -0.477120890322
    H            3.050219250050     0.091747370411     0.879830092129
    H            2.329306592335     1.615978287967     0.393993446963
    C            0.322961002984    -0.339036741929     0.625883935478
    H            1.683132907105    -1.081730657680    -0.862209827190
    H            0.929954785173     0.437489719616    -1.292300158887
    N           -1.041818103704    -0.119590858147     0.078855046369
    H            0.337372973266    -1.341049827157     1.017822452954
    H            0.427669167123     0.382076737259     1.418691441714
    O           -1.605039206398    -1.058773591177    -0.374407237935
    O           -1.462220045848     0.988605677132     0.103135576115

  Mulliken Charges: (a.u.)
   Center  Symbol    Alpha    Beta     Spin     Total
       1     H     0.44375  0.44375  0.00000  0.11250
       2     C     3.15055  3.15055  0.00000 -0.30111
       3     C     3.09012  3.09012  0.00000 -0.18023
       4     H     0.45253  0.45253  0.00000  0.09495
       5     H     0.44848  0.44848  0.00000  0.10304
       6     C     3.03865  3.03865  0.00000 -0.07731
       7     H     0.44248  0.44248  0.00000  0.11504
       8     H     0.43865  0.43865  0.00000  0.12270
       9     N     3.27954  3.27954  0.00000  0.44091
      10     H     0.43261  0.43261  0.00000  0.13477
      11     H     0.43686  0.43686  0.00000  0.12628
      12     O     4.17203  4.17203  0.00000 -0.34405
      13     O     4.17375  4.17375  0.00000 -0.34750

   Total alpha = 24.00000, Total beta = 24.00000, Total charge = -0.00000

*** Psi4 exiting successfully. Buy a developer a beer!
