  ==> Input File <==

--------------------------------------------------------------------------
set {
	reference rhf
	basis 6-31G*
}

set_num_threads( 1 )
memory 2 gb

molecule MOL {
0 1

H	 3.629583	 -0.939285	 -0.584837
O	 2.721019	 -1.170325	 -0.417842
C	 2.077727	 -0.067559	 -0.035091
C	 0.624473	 -0.343591	 0.253101
O	 2.624156	 0.983399	 0.053898
C	 -0.265902	 0.883932	 0.072916
H	 0.324016	 -1.163849	 -0.390541
H	 0.565024	 -0.726111	 1.268924
C	 -1.728698	 0.646073	 0.462102
H	 -0.209144	 1.219470	 -0.958188
H	 0.135059	 1.692851	 0.673903
C	 -2.482460	 -0.343073	 -0.431425
H	 -2.245265	 1.602650	 0.432430
H	 -1.779332	 0.308348	 1.496285
C	 -3.960546	 -0.461025	 -0.060175
H	 -2.395034	 -0.026811	 -1.468912
H	 -2.024850	 -1.327147	 -0.371646
H	 -4.472726	 -1.168004	 -0.705284
H	 -4.465146	 0.496508	 -0.151489
H	 -4.081218	 -0.800940	 0.964585

	symmetry c1
}
set optking {
	frozen_dihedral = ("
		16 12 9 6,
		7 4 6 10,
		12 9 6 10,
		1 2 3 5
	")
}

ee = energy('scf')
oeprop('DIPOLE', 'QUADRUPOLE', 'MULLIKEN_CHARGES')
f=open( 'psi4out.xyz', 'w' )
f.write( "20  " )
f.write( str(ee) + "\n" )
f.write( MOL.save_string_xyz() )
f.close()
--------------------------------------------------------------------------

    Molecular point group: c1

    Geometry (in Angstrom), charge = 0, multiplicity = 1:

       Center              X                  Y                   Z               Mass
    ------------   -----------------  -----------------  -----------------  -----------------
           H          3.633730538410    -0.938840369723    -0.563496530642     1.007825032070
           O          2.725166538410    -1.169880369723    -0.396501530642    15.994914619560
           C          2.081874538410    -0.067114369723    -0.013750530642    12.000000000000
           C          0.628620538410    -0.343146369723     0.274441469358    12.000000000000
           O          2.628303538410     0.983843630277     0.075238469358    15.994914619560
           C         -0.261754461590     0.884376630277     0.094256469358    12.000000000000
           H          0.328163538410    -1.163404369723    -0.369200530642     1.007825032070
           H          0.569171538410    -0.725666369723     1.290264469358     1.007825032070
           C         -1.724550461590     0.646517630277     0.483442469358    12.000000000000
           H         -0.204996461590     1.219914630277    -0.936847530642     1.007825032070
           H          0.139206538410     1.693295630277     0.695243469358     1.007825032070
           C         -2.478312461590    -0.342628369723    -0.410084530642    12.000000000000
           H         -2.241117461590     1.603094630277     0.453770469358     1.007825032070
           H         -1.775184461590     0.308792630277     1.517625469358     1.007825032070
           C         -3.956398461590    -0.460580369723    -0.038834530642    12.000000000000
           H         -2.390886461590    -0.026366369723    -1.447571530642     1.007825032070
           H         -2.020702461590    -1.326702369723    -0.350305530642     1.007825032070
           H         -4.468578461590    -1.167559369723    -0.683943530642     1.007825032070
           H         -4.460998461590     0.496952630277    -0.130148530642     1.007825032070
           H         -4.077070461590    -0.800495369723     0.985925469358     1.007825032070

  Charge       = 0
  Multiplicity = 1
  Basis Set: 6-31G*
  Basis Set:

    Orbital Energies (a.u.)
    -----------------------

    Doubly Occupied:

       1A    -20.613257     2A    -20.550996     3A    -11.381181
       4A    -11.239564     5A    -11.224563     6A    -11.221215
       7A    -11.220457     8A    -11.212606     9A     -1.474706
      10A     -1.365537    11A     -1.096747    12A     -1.041132
      13A     -0.961412    14A     -0.869009    15A     -0.816297
      16A     -0.779474    17A     -0.700887    18A     -0.689356
      19A     -0.657373    20A     -0.638213    21A     -0.605326
      22A     -0.593875    23A     -0.575379    24A     -0.555389
      25A     -0.542289    26A     -0.512557    27A     -0.497594
      28A     -0.478553    29A     -0.471276    30A     -0.467913
      31A     -0.456975    32A     -0.442673

  @DF-RHF Final Energy:  -383.94807147694252

   => Energetics <=

    Nuclear Repulsion Energy =            375.9207664703463365
    One-Electron Energy =               -1267.8301066906019514
    Two-Electron Energy =                 507.9612687433122460
    DFT Exchange-Correlation Energy =       0.0000000000000000
    Empirical Dispersion Energy =           0.0000000000000000
    PCM Polarization Energy =               0.0000000000000000
    EFP Energy =                            0.0000000000000000
    Total Energy =                       -383.9480714769434258

  Mulliken Charges: (a.u.)
   Center  Symbol    Alpha    Beta     Spin     Total
       1     H     0.26821  0.26821  0.00000  0.46359
       2     O     4.35089  4.35089  0.00000 -0.70179
       3     C     2.62086  2.62086  0.00000  0.75829
       4     C     3.21497  3.21497  0.00000 -0.42995
       5     O     4.27922  4.27922  0.00000 -0.55844
       6     C     3.15742  3.15742  0.00000 -0.31484
       7     H     0.39721  0.39721  0.00000  0.20558
       8     H     0.39800  0.39800  0.00000  0.20400
       9     C     3.15545  3.15545  0.00000 -0.31089
      10     H     0.41560  0.41560  0.00000  0.16879
      11     H     0.40305  0.40305  0.00000  0.19389
      12     C     3.15474  3.15474  0.00000 -0.30949
      13     H     0.41781  0.41781  0.00000  0.16439
      14     H     0.42307  0.42307  0.00000  0.15386
      15     C     3.23931  3.23931  0.00000 -0.47861
      16     H     0.42183  0.42183  0.00000  0.15633
      17     H     0.42213  0.42213  0.00000  0.15574
      18     H     0.41826  0.41826  0.00000  0.16349
      19     H     0.42070  0.42070  0.00000  0.15859
      20     H     0.42127  0.42127  0.00000  0.15747

   Total alpha = 32.00000, Total beta = 32.00000, Total charge =  0.00000
