  ==> Input File <==

--------------------------------------------------------------------------
set {
	reference rhf
	basis 6-31G*
}

set_num_threads( 4 )
memory 2 gb

molecule MOL {
0 1

O	 1.368994	 -2.782646	 0.023900
C	 0.436947	 -2.046071	 0.012866
C	 -1.005392	 -2.472945	 0.014791
O	 0.550821	 -0.724572	 0.000672
H	 -1.507288	 -2.063051	 0.883567
H	 -1.063729	 -3.551057	 0.027555
H	 -1.503089	 -2.084087	 -0.865929
C	 1.863949	 -0.193559	 -0.000319
H	 2.028859	 0.409284	 -0.881648
H	 2.526261	 -1.045082	 -0.000003
H	 2.029520	 0.410555	 0.880008

	symmetry c1
}
set optking {
	frozen_dihedral = ("
		2 4 8 9
	")
}

ee = optimize('scf')
oeprop('DIPOLE', 'QUADRUPOLE', 'MULLIKEN_CHARGES')
f=open( 'psi4out.xyz', 'w' )
f.write( "11  " )
f.write( str(ee) + "\n" )
f.write( MOL.save_string_xyz() )
f.close()
--------------------------------------------------------------------------

    Molecular point group: c1
  Charge       = 0
  Multiplicity = 1
  Basis Set: 6-31G*
  Basis Set:
  @DF-RHF Final Energy:  -266.83216031058510
    Total Energy =                       -266.8321603105849249
    Molecular point group: c1
  Basis Set: 6-31G*
  Basis Set:
  Basis Set: 6-31G*
  Basis Set:
  @DF-RHF Final Energy:  -266.83313464801239
    Total Energy =                       -266.8331346480123329
  Basis Set: 6-31G*
  Basis Set:
  Basis Set: 6-31G*
  Basis Set:
  @DF-RHF Final Energy:  -266.83421731185513
    Total Energy =                       -266.8342173118549567
  Basis Set: 6-31G*
  Basis Set:
  Basis Set: 6-31G*
  Basis Set:
  @DF-RHF Final Energy:  -266.83405124509625
    Total Energy =                       -266.8340512450964752
  Basis Set: 6-31G*
  Basis Set:
  Basis Set: 6-31G*
  Basis Set:
  @DF-RHF Final Energy:  -266.83429341067426
    Total Energy =                       -266.8342934106744906
  Basis Set: 6-31G*
  Basis Set:
  Charge       = 0
  Multiplicity = 1
  Basis Set: 6-31G*
  Basis Set:

    Orbital Energies (a.u.)
    -----------------------

    Doubly Occupied:

       1A    -20.604764     2A    -20.545676     3A    -11.377916
       4A    -11.280516     5A    -11.234020     6A     -1.468324
       7A     -1.364978     8A     -1.035957     9A     -0.953423
      10A     -0.777080    11A     -0.697034    12A     -0.678591
      13A     -0.676955    14A     -0.597430    15A     -0.591046
      16A     -0.560468    17A     -0.528973    18A     -0.518705
      19A     -0.453723    20A     -0.442652

  @DF-RHF Final Energy:  -266.83429730065200

   => Energetics <=

    Nuclear Repulsion Energy =            182.8317579706622098
    One-Electron Energy =                -726.5556480115715203
    Two-Electron Energy =                 276.8895927402575694
    DFT Exchange-Correlation Energy =       0.0000000000000000
    Empirical Dispersion Energy =           0.0000000000000000
    PCM Polarization Energy =               0.0000000000000000
    EFP Energy =                            0.0000000000000000
    Total Energy =                       -266.8342973006517127
    Molecular point group: c1
  Basis Set: 6-31G*
  Basis Set:

  -Total Gradient:
     Atom            X                  Y                   Z
    ------   -----------------  -----------------  -----------------
       1        0.000073242458     0.000160238973    -0.000021687775
       2       -0.000037923310    -0.000033939233     0.000113725606
       3       -0.000054953341    -0.000019391148    -0.000026862044
       4        0.000074232910     0.000074705522    -0.000100787861
       5       -0.000016303783     0.000001912763     0.000005407561
       6       -0.000007784184     0.000005734990    -0.000003622484
       7       -0.000004517010    -0.000008650144     0.000011473158
       8       -0.000018863071    -0.000199708056    -0.000015575760
       9       -0.000055211337     0.000047623104     0.000041848593
      10        0.000075850765    -0.000021769806     0.000002046603
      11       -0.000027770096    -0.000006756963    -0.000005965595

  **** Optimization is complete! (in 6 steps) ****
    Final optimized geometry and variables:
    Molecular point group: c1

    Geometry (in Angstrom), charge = 0, multiplicity = 1:

    O            0.683946208797    -1.195030184917     0.002076155705
    C           -0.221343808301    -0.426220209003     0.001888685050
    C           -1.675983658452    -0.810805274794     0.006569583217
    O           -0.081726982524     0.894209264336    -0.003084727206
    H           -2.161864629073    -0.393027112054     0.880665688329
    H           -1.765920074835    -1.886717300365     0.010964262517
    H           -2.165389109130    -0.400022976433    -0.868847819476
    C            1.219910634978     1.457041224875    -0.007014804959
    H            1.320014389214     2.057905498337    -0.899998919843
    H            1.972093136723     0.686720868923     0.011241737171
    H            1.309296309811     2.089697594845     0.864794742597

  Mulliken Charges: (a.u.)
   Center  Symbol    Alpha    Beta     Spin     Total
       1     O     4.28169  4.28169  0.00000 -0.56338
       2     C     2.62206  2.62206  0.00000  0.75589
       3     C     3.28217  3.28217  0.00000 -0.56434
       4     O     4.30162  4.30162  0.00000 -0.60325
       5     H     0.40009  0.40009  0.00000  0.19981
       6     H     0.39682  0.39682  0.00000  0.20636
       7     H     0.40007  0.40007  0.00000  0.19986
       8     C     3.09887  3.09887  0.00000 -0.19774
       9     H     0.41198  0.41198  0.00000  0.17603
      10     H     0.39276  0.39276  0.00000  0.21449
      11     H     0.41186  0.41186  0.00000  0.17627

   Total alpha = 20.00000, Total beta = 20.00000, Total charge =  0.00000
