  ==> Input File <==

--------------------------------------------------------------------------
set {
	reference rhf
	basis 6-31G*
}

set_num_threads( 4 )
memory 2 gb

molecule MOL {
0 1

O	 -0.682937	 1.318834	 -0.186099
C	 -0.860635	 0.152188	 -0.042321
C	 -2.173363	 -0.477127	 0.338347
O	 0.083258	 -0.765189	 -0.202595
H	 -2.477673	 -1.180929	 -0.427595
H	 -2.923125	 0.290956	 0.455536
H	 -2.058825	 -1.029004	 1.264191
C	 0.871714	 -1.131578	 0.927402
C	 0.177055	 -2.182422	 1.773464
H	 1.095821	 -0.247867	 1.505305
H	 1.787832	 -1.518279	 0.504685
H	 0.831880	 -2.495403	 2.580915
H	 -0.733346	 -1.788419	 2.207399
H	 -0.066677	 -3.053733	 1.175278

	symmetry c1
}
set optking {
	frozen_dihedral = ("
		8 4 2 1
	")
}

ee = optimize('scf')
oeprop('DIPOLE', 'QUADRUPOLE', 'MULLIKEN_CHARGES')
f=open( 'psi4out.xyz', 'w' )
f.write( "14  " )
f.write( str(ee) + "\n" )
f.write( MOL.save_string_xyz() )
f.close()
--------------------------------------------------------------------------

    Molecular point group: c1
  Charge       = 0
  Multiplicity = 1
  Basis Set: 6-31G*
  Basis Set:
  @DF-RHF Final Energy:  -305.84767159296428
    Total Energy =                       -305.8476715929643888
    Molecular point group: c1
  Basis Set: 6-31G*
  Basis Set:
  Basis Set: 6-31G*
  Basis Set:
  @DF-RHF Final Energy:  -305.85253259528190
    Total Energy =                       -305.8525325952817298
  Basis Set: 6-31G*
  Basis Set:
  Basis Set: 6-31G*
  Basis Set:
  @DF-RHF Final Energy:  -305.85272937716900
    Total Energy =                       -305.8527293771691120
  Basis Set: 6-31G*
  Basis Set:
  Basis Set: 6-31G*
  Basis Set:
  @DF-RHF Final Energy:  -305.85313607950729
    Total Energy =                       -305.8531360795071805
  Basis Set: 6-31G*
  Basis Set:
  @DF-RHF Final Energy:  -305.85321549914386
    Total Energy =                       -305.8532154991437437
  @DF-RHF Final Energy:  -305.85334414707842
    Total Energy =                       -305.8533441470783600
  @DF-RHF Final Energy:  -305.85343300857028
    Total Energy =                       -305.8534330085705051
  @DF-RHF Final Energy:  -305.85353348922467
    Total Energy =                       -305.8535334892243327
  @DF-RHF Final Energy:  -305.85354055128926
    Total Energy =                       -305.8535405512889156
  @DF-RHF Final Energy:  -305.85354376171807
    Total Energy =                       -305.8535437617185266
  @DF-RHF Final Energy:  -305.85352882301288
    Total Energy =                       -305.8535288230128799
  @DF-RHF Final Energy:  -305.85354546874828
    Total Energy =                       -305.8535454687482229
  @DF-RHF Final Energy:  -305.85353021059154
    Total Energy =                       -305.8535302105916003
  @DF-RHF Final Energy:  -305.85247590039307
    Total Energy =                       -305.8524759003931877
  @DF-RHF Final Energy:  -305.85210570962158
    Total Energy =                       -305.8521057096214122
  @DF-RHF Final Energy:  -305.85239058131333
    Total Energy =                       -305.8523905813134434
  @DF-RHF Final Energy:  -305.85239460775085
    Total Energy =                       -305.8523946077507389
  @DF-RHF Final Energy:  -305.85234694521091
    Total Energy =                       -305.8523469452110817
  @DF-RHF Final Energy:  -305.85277286556936
    Total Energy =                       -305.8527728655694773
  @DF-RHF Final Energy:  -305.85326394672757
    Total Energy =                       -305.8532639467276795
  @DF-RHF Final Energy:  -305.85067538957173
    Total Energy =                       -305.8506753895717338
  @DF-RHF Final Energy:  -305.85242973079494
    Total Energy =                       -305.8524297307951656
  @DF-RHF Final Energy:  -305.85320718458524
    Total Energy =                       -305.8532071845853011
  @DF-RHF Final Energy:  -305.85341845437699
    Total Energy =                       -305.8534184543771630
  @DF-RHF Final Energy:  -305.85344838873641
    Total Energy =                       -305.8534483887365241
  @DF-RHF Final Energy:  -305.85347700369584
    Total Energy =                       -305.8534770036957866
  @DF-RHF Final Energy:  -305.85348864278006
    Total Energy =                       -305.8534886427800075
  @DF-RHF Final Energy:  -305.85349516990345
    Total Energy =                       -305.8534951699036810
  @DF-RHF Final Energy:  -305.85350274601160
    Total Energy =                       -305.8535027460116567
  @DF-RHF Final Energy:  -305.85350462829723
    Total Energy =                       -305.8535046282972871
  @DF-RHF Final Energy:  -305.85350547008824
    Total Energy =                       -305.8535054700882370
  @DF-RHF Final Energy:  -305.85350541405035
    Total Energy =                       -305.8535054140503462
  @DF-RHF Final Energy:  -305.85350487756273
    Total Energy =                       -305.8535048775629548
  @DF-RHF Final Energy:  -305.75780397338019
    Total Energy =                       -305.7578039733800779
  @DF-RHF Final Energy:  -305.73926859282676
    Total Energy =                       -305.7392685928269884
  @DF-RHF Final Energy:  -305.70316138652259
    Total Energy =                       -305.7031613865227087
  Basis Set: 6-31G*
  Basis Set:
  @DF-RHF Final Energy:  -305.77652123410962
    Total Energy =                       -305.7765212341097367
  Basis Set: 6-31G*
  Basis Set:
  Basis Set: 6-31G*
  Basis Set:
  @DF-RHF Final Energy:  -305.77595190400154
    Total Energy =                       -305.7759519040017722
  Basis Set: 6-31G*
  Basis Set:
  Basis Set: 6-31G*
  Basis Set:
  @DF-RHF Final Energy:  -305.82543398053008
    Total Energy =                       -305.8254339805301925
  Basis Set: 6-31G*
  Basis Set:
  Charge       = 0
  Multiplicity = 1
  Basis Set: 6-31G*
  Basis Set:

    Orbital Energies (a.u.)
    -----------------------

    Doubly Occupied:

       1A    -20.586810     2A    -20.548018     3A    -11.373222
       4A    -11.300102     5A    -11.227612     6A    -11.225998
       7A     -1.463884     8A     -1.362417     9A     -1.063506
      10A     -1.016034    11A     -0.890088    12A     -0.779627
      13A     -0.697015    14A     -0.691815    15A     -0.666283
      16A     -0.620425    17A     -0.598581    18A     -0.581734
      19A     -0.566479    20A     -0.543353    21A     -0.516723
      22A     -0.483104    23A     -0.457717    24A     -0.434889

  @DF-RHF Final Energy:  -305.84199925464952

   => Energetics <=

    Nuclear Repulsion Energy =            248.8272158380285930
    One-Electron Energy =                -909.9475515701028598
    Two-Electron Energy =                 355.2783364774245456
    DFT Exchange-Correlation Energy =       0.0000000000000000
    Empirical Dispersion Energy =           0.0000000000000000
    PCM Polarization Energy =               0.0000000000000000
    EFP Energy =                            0.0000000000000000
    Total Energy =                       -305.8419992546497497
    Molecular point group: c1
  Basis Set: 6-31G*
  Basis Set:

  -Total Gradient:
     Atom            X                  Y                   Z
    ------   -----------------  -----------------  -----------------
       1       -0.001626740251     0.008940204306    -0.003223027015
       2        0.026856694549    -0.040891598189     0.003909644477
       3       -0.005322848396    -0.009533228833    -0.014032714144
       4       -0.027731125332     0.026167106982    -0.011040525183
       5        0.006100233037     0.027227548142     0.010575818422
       6       -0.000729110272    -0.021564172396     0.004207453708
       7        0.003058137884     0.011288640070    -0.002097634654
       8       -0.013752272775    -0.005155773651     0.018080082560
       9       -0.024088104807     0.005582511654     0.000190410040
      10        0.004100134507    -0.004733624556    -0.002948378147
      11       -0.005165625295    -0.001223889164     0.004222601784
      12       -0.008899248178     0.000446113778     0.005012051122
      13        0.039557551104     0.005039425656    -0.007317462772
      14        0.007642324227    -0.001589263798    -0.005538320197

    Molecular point group: c1

    Geometry (in Angstrom), charge = 0, multiplicity = 1:

    O           -0.181217847004     1.768221954734    -0.868243352401
    C           -0.447688912893     0.667176273423    -0.532301415641
    C           -1.830202013743     0.227025883127    -0.058332334166
    O            0.452914975235    -0.328720380874    -0.565121984034
    H           -2.201749340521    -0.493257965262    -0.740651296648
    H           -2.503155038056     1.070723279780    -0.032198518384
    H           -1.782937303431    -0.201885152684     0.936358686497
    C            1.247935296441    -0.545173055078     0.602305074785
    C            0.755967382428    -1.754214258022     1.364545547211
    H            1.237270916260     0.336803829393     1.195280123865
    H            2.262936898138    -0.722433607905     0.306692675503
    H            1.415440956612    -1.865015967397     2.184804462646
    H           -0.212421540540    -1.591986008016     1.756494422710
    H            0.734914988272    -2.647584077707     0.755388971861

  Mulliken Charges: (a.u.)
   Center  Symbol    Alpha    Beta     Spin     Total
       1     O     4.25782  4.25782  0.00000 -0.51564
       2     C     2.63741  2.63741  0.00000  0.72519
       3     C     3.28359  3.28359  0.00000 -0.56719
       4     O     4.30946  4.30946  0.00000 -0.61892
       5     H     0.39758  0.39758  0.00000  0.20485
       6     H     0.39772  0.39772  0.00000  0.20456
       7     H     0.41226  0.41226  0.00000  0.17549
       8     C     3.00936  3.00936  0.00000 -0.01873
       9     C     3.24883  3.24883  0.00000 -0.49766
      10     H     0.41010  0.41010  0.00000  0.17981
      11     H     0.40258  0.40258  0.00000  0.19484
      12     H     0.41548  0.41548  0.00000  0.16904
      13     H     0.41232  0.41232  0.00000  0.17536
      14     H     0.40550  0.40550  0.00000  0.18900

   Total alpha = 24.00000, Total beta = 24.00000, Total charge =  0.00000
