  ==> Input File <==

--------------------------------------------------------------------------
set {
	reference rhf
	basis 6-31G*
}

set_num_threads( 4 )
memory 2 gb

molecule MOL {
0 1

O	 2.939920	 -0.104677	 -1.656558
C	 2.548289	 -0.516191	 -0.612365
C	 1.112039	 -0.512858	 -0.147643
O	 3.347903	 -1.046386	 0.304773
C	 0.150067	 0.077527	 -1.176317
H	 0.857512	 -1.536394	 0.106879
H	 1.075864	 0.042931	 0.785891
C	 -1.295571	 0.184595	 -0.679164
H	 0.184019	 -0.519170	 -2.082915
H	 0.504097	 1.064364	 -1.454234
C	 -1.991303	 -1.155589	 -0.424262
H	 -1.866986	 0.736932	 -1.421548
H	 -1.323005	 0.784252	 0.229498
C	 -3.462906	 -0.997686	 -0.036383
H	 -1.919564	 -1.771763	 -1.319249
H	 -1.477064	 -1.700752	 0.363982
C	 -4.166957	 -2.330231	 0.225849
H	 -3.988055	 -0.464231	 -0.826876
H	 -3.536002	 -0.372747	 0.852328
C	 -5.637110	 -2.163956	 0.608867
H	 -4.093991	 -2.956348	 -0.660884
H	 -3.646053	 -2.862978	 1.018705
H	 -6.108430	 -3.125337	 0.788340
H	 -6.193580	 -1.664948	 -0.179503
H	 -5.742108	 -1.570338	 1.512675
C	 4.728119	 -1.109107	 -0.004993
H	 4.882018	 -1.033965	 -1.071845
H	 5.068212	 -2.067527	 0.355250
H	 5.265056	 -0.311663	 0.488280

	symmetry c1
}
set optking {
	frozen_dihedral = ("
		2 4 26 27
	")
}

ee = optimize('scf')
oeprop('DIPOLE', 'QUADRUPOLE', 'MULLIKEN_CHARGES')
f=open( 'psi4out.xyz', 'w' )
f.write( "29  " )
f.write( str(ee) + "\n" )
f.write( MOL.save_string_xyz() )
f.close()
--------------------------------------------------------------------------

    Molecular point group: c1
  Charge       = 0
  Multiplicity = 1
  Basis Set: 6-31G*
  Basis Set:
  @DF-RHF Final Energy:  -501.04190929377137
    Total Energy =                       -501.0419092937709138
    Molecular point group: c1
  Basis Set: 6-31G*
  Basis Set:
  Basis Set: 6-31G*
  Basis Set:
  @DF-RHF Final Energy:  -501.04209211502712
    Total Energy =                       -501.0420921150274580
  Basis Set: 6-31G*
  Basis Set:
  Basis Set: 6-31G*
  Basis Set:
  @DF-RHF Final Energy:  -501.04238119772822
    Total Energy =                       -501.0423811977283322
  Basis Set: 6-31G*
  Basis Set:
  Basis Set: 6-31G*
  Basis Set:
  @DF-RHF Final Energy:  -501.04220012905489
    Total Energy =                       -501.0422001290554590
  Basis Set: 6-31G*
  Basis Set:
  Basis Set: 6-31G*
  Basis Set:
  @DF-RHF Final Energy:  -501.04244327712570
    Total Energy =                       -501.0424432771255852
  Basis Set: 6-31G*
  Basis Set:
  Charge       = 0
  Multiplicity = 1
  Basis Set: 6-31G*
  Basis Set:

    Orbital Energies (a.u.)
    -----------------------

    Doubly Occupied:

       1A    -20.602521     2A    -20.544608     3A    -11.373148
       4A    -11.279489     5A    -11.234198     6A    -11.218654
       7A    -11.217356     8A    -11.215824     9A    -11.215711
      10A    -11.214305    11A    -11.208980    12A     -1.466810
      13A     -1.362934    14A     -1.097776    15A     -1.066568
      16A     -1.019560    17A     -0.977719    18A     -0.928462
      19A     -0.861338    20A     -0.798993    21A     -0.790248
      22A     -0.763114    23A     -0.701514    24A     -0.680471
      25A     -0.672039    26A     -0.650690    27A     -0.628634
      28A     -0.604936    29A     -0.595452    30A     -0.580629
      31A     -0.567650    32A     -0.549917    33A     -0.533714
      34A     -0.527238    35A     -0.515605    36A     -0.511535
      37A     -0.496226    38A     -0.477634    39A     -0.469896
      40A     -0.462203    41A     -0.458567    42A     -0.452591
      43A     -0.441297    44A     -0.435138

  @DF-RHF Final Energy:  -501.04244371327115

   => Energetics <=

    Nuclear Repulsion Energy =            609.8224838088427759
    One-Electron Energy =               -1890.7860748407313167
    Two-Electron Energy =                 779.9211473186169314
    DFT Exchange-Correlation Energy =       0.0000000000000000
    Empirical Dispersion Energy =           0.0000000000000000
    PCM Polarization Energy =               0.0000000000000000
    EFP Energy =                            0.0000000000000000
    Total Energy =                       -501.0424437132714957
    Molecular point group: c1
  Basis Set: 6-31G*
  Basis Set:

  -Total Gradient:
     Atom            X                  Y                   Z
    ------   -----------------  -----------------  -----------------
       1        0.000005070452    -0.000009379237     0.000040723934
       2       -0.000161428898    -0.001030481308    -0.000510217685
       3       -0.000000972473    -0.000027154113     0.000006727819
       4        0.000323065651     0.001918048257     0.000707151836
       5        0.000006864551     0.000009336345     0.000000794509
       6       -0.000004594553     0.000000311373     0.000006612702
       7        0.000007107438     0.000007429896    -0.000006336474
       8       -0.000003903208     0.000001021322    -0.000006985239
       9       -0.000001744432     0.000003208621    -0.000004454293
      10        0.000004364525    -0.000001782306     0.000004901252
      11        0.000004157353    -0.000001211465     0.000000311578
      12       -0.000002157766    -0.000004030637    -0.000001486326
      13       -0.000003814093     0.000004416034    -0.000003270508
      14        0.000000666772     0.000000076912     0.000003821326
      15       -0.000002094896     0.000002486941     0.000001022059
      16        0.000008803041    -0.000003796631     0.000000531896
      17        0.000000197274    -0.000000046199     0.000000788190
      18        0.000000793576    -0.000000320829    -0.000000021246
      19       -0.000000811084     0.000000425013     0.000000475751
      20       -0.000000059993    -0.000000045858    -0.000000108094
      21        0.000000309202     0.000000042778     0.000000005172
      22       -0.000000319115     0.000000056331    -0.000000063164
      23       -0.000000080028     0.000000007192    -0.000000098398
      24       -0.000000010398     0.000000026547     0.000000018746
      25        0.000000000499    -0.000000046047     0.000000016647
      26       -0.000283436747    -0.002213042644    -0.000299893153
      27        0.000112329021     0.001336638460     0.000066617231
      28        0.000028953313    -0.000001581416    -0.000010022015
      29       -0.000037254988     0.000009386667     0.000002435956

  **** Optimization is complete! (in 6 steps) ****
    Final optimized geometry and variables:
    Molecular point group: c1

    Geometry (in Angstrom), charge = 0, multiplicity = 1:

    O            3.041008621190     0.798517703450    -1.351939462622
    C            2.660041169434     0.382467389537    -0.305898875328
    C            1.225346187883     0.381077390546     0.164739061520
    O            3.457325872880    -0.147807999782     0.614581241430
    C            0.257456298745     0.973847198821    -0.856896841739
    H            0.974050127518    -0.643882188932     0.416476028192
    H            1.192504267252     0.933055711742     1.100620912108
    C           -1.186226384247     1.074728640645    -0.352757777059
    H            0.288827285201     0.381639627271    -1.766509595487
    H            0.607633937613     1.962938620256    -1.131617201577
    C           -1.876927795446    -0.268483730908    -0.100043259421
    H           -1.762678690353     1.628322955986    -1.090306875357
    H           -1.211300861804     1.670662471778     0.558425920038
    C           -3.347012766472    -0.116395439478     0.295852153219
    H           -1.807951530039    -0.880659671093    -0.997985955153
    H           -1.357208826783    -0.815515902198     0.683285041712
    C           -4.045939238273    -1.451993568859     0.556229432428
    H           -3.877660588183     0.418733055249    -0.489820367024
    H           -3.417418719514     0.504744490228     1.187435735173
    C           -5.514503575106    -1.291477564637     0.947726318258
    H           -3.975929425376    -2.074209697861    -0.333483725603
    H           -3.519347065863    -1.986567427133     1.344083179262
    H           -5.982135043431    -2.254924939876     1.125798953433
    H           -6.076572435884    -0.790872058543     0.164358586045
    H           -5.616371044950    -0.701817481647     1.854477525728
    C            4.843577105192    -0.256633444479     0.340769422726
    H            5.031703231963    -0.207166506423    -0.718814935215
    H            5.170807684769    -1.202023207248     0.746942169557
    H            5.365305449024     0.551290076805     0.836671133157

  Mulliken Charges: (a.u.)
   Center  Symbol    Alpha    Beta     Spin     Total
       1     O     4.28556  4.28556  0.00000 -0.57112
       2     C     2.60450  2.60450  0.00000  0.79100
       3     C     3.21008  3.21008  0.00000 -0.42016
       4     O     4.30918  4.30918  0.00000 -0.61835
       5     C     3.15375  3.15375  0.00000 -0.30749
       6     H     0.39900  0.39900  0.00000  0.20200
       7     H     0.40124  0.40124  0.00000  0.19751
       8     C     3.15659  3.15659  0.00000 -0.31317
       9     H     0.41318  0.41318  0.00000  0.17364
      10     H     0.40881  0.40881  0.00000  0.18238
      11     C     3.15504  3.15504  0.00000 -0.31009
      12     H     0.41831  0.41831  0.00000  0.16339
      13     H     0.42390  0.42390  0.00000  0.15219
      14     C     3.15028  3.15028  0.00000 -0.30056
      15     H     0.42266  0.42266  0.00000  0.15469
      16     H     0.42361  0.42361  0.00000  0.15277
      17     C     3.15145  3.15145  0.00000 -0.30289
      18     H     0.42334  0.42334  0.00000  0.15332
      19     H     0.42398  0.42398  0.00000  0.15203
      20     C     3.23934  3.23934  0.00000 -0.47869
      21     H     0.42282  0.42282  0.00000  0.15436
      22     H     0.42345  0.42345  0.00000  0.15310
      23     H     0.41926  0.41926  0.00000  0.16149
      24     H     0.42155  0.42155  0.00000  0.15690
      25     H     0.42183  0.42183  0.00000  0.15633
      26     C     3.09710  3.09710  0.00000 -0.19419
      27     H     0.39623  0.39623  0.00000  0.20754
      28     H     0.41048  0.41048  0.00000  0.17903
      29     H     0.41348  0.41348  0.00000  0.17304

   Total alpha = 44.00000, Total beta = 44.00000, Total charge =  0.00000
