                              Psi4 1.0.54 Driver

  ==> Input File <==

--------------------------------------------------------------------------
set {
	reference rhf
	basis cc-pvtz
}

set_num_threads( 4 )
memory 2 gb

molecule MOL {
0 1

H	 0.939812	 4.203698	 1.926799
N	 0.122584	 3.636190	 1.851363
C	 0.350669	 2.504155	 0.967093
H	 -0.609502	 4.219013	 1.502485
C	 -0.869995	 1.597229	 0.920316
H	 1.196287	 1.946007	 1.354788
H	 0.613264	 2.804957	 -0.048051
C	 -0.678115	 0.376691	 0.025731
H	 -1.106734	 1.284608	 1.932062
H	 -1.724872	 2.171094	 0.567687
C	 -1.900706	 -0.535531	 -0.022488
H	 0.178764	 -0.194443	 0.375758
H	 -0.435034	 0.700361	 -0.983735
C	 -3.220513	 0.226854	 0.028039
H	 -1.865036	 -1.134397	 -0.928236
H	 -1.857948	 -1.236381	 0.806820
H	 -3.309098	 0.911849	 -0.808725
H	 -4.066838	 -0.449485	 -0.008086
H	 -3.301685	 0.809374	 0.939860

	symmetry c1
}
set optking {
	frozen_dihedral = ("
		12 8 11 15
	")
}

ee,wfn = optimize('scf', return_wfn=True)
oeprop( wfn, 'DIPOLE', 'QUADRUPOLE', 'MULLIKEN_CHARGES')
f=open( 'psi4out.xyz', 'w' )
f.write( "19  " )
f.write( str(ee) + "\n" )
f.write( MOL.save_string_xyz() )
f.close()
--------------------------------------------------------------------------

    Molecular point group: c1
  Charge       = 0
  Multiplicity = 1
  Basis Set: CC-PVTZ
  Basis Set:
  @DF-RHF Final Energy:  -251.44127826066656
    Total Energy =                       -251.4412782606666497
    Molecular point group: c1
  Basis Set: CC-PVTZ
  Basis Set:
  Basis Set: CC-PVTZ
  Basis Set:
  @DF-RHF Final Energy:  -251.43513212365309
    Total Energy =                       -251.4351321236533181
  Basis Set: CC-PVTZ
  Basis Set:
  Basis Set: CC-PVTZ
  Basis Set:
  @DF-RHF Final Energy:  -251.44313032910497
    Total Energy =                       -251.4431303291053155
  Basis Set: CC-PVTZ
  Basis Set:
  Basis Set: CC-PVTZ
  Basis Set:
  @DF-RHF Final Energy:  -251.44348296751721
    Total Energy =                       -251.4434829675172978
  Basis Set: CC-PVTZ
  Basis Set:
  Basis Set: CC-PVTZ
  Basis Set:
  @DF-RHF Final Energy:  -251.44349896468452
    Total Energy =                       -251.4434989646844087
  Basis Set: CC-PVTZ
  Basis Set:
  Basis Set: CC-PVTZ
  Basis Set:
  @DF-RHF Final Energy:  -251.44352246273320
    Total Energy =                       -251.4435224627330854
  Basis Set: CC-PVTZ
  Basis Set:
  Charge       = 0
  Multiplicity = 1
  Basis Set: CC-PVTZ
  Basis Set:

    Orbital Energies (a.u.)
    -----------------------

    Doubly Occupied:

       1A    -15.526203     2A    -11.237629     3A    -11.212565
       4A    -11.211016     5A    -11.206869     6A    -11.204336
       7A     -1.177953     8A     -1.072532     9A     -0.995343
      10A     -0.904794    11A     -0.825556    12A     -0.772356
      13A     -0.666611    14A     -0.634772    15A     -0.618500
      16A     -0.603405    17A     -0.568784    18A     -0.544837
      19A     -0.522112    20A     -0.506356    21A     -0.487246
      22A     -0.456274    23A     -0.455550    24A     -0.451442
      25A     -0.383594

  @DF-RHF Final Energy:  -251.44352313812297

   => Energetics <=

    Nuclear Repulsion Energy =            249.9492763195060832
    One-Electron Energy =                -834.2923260780403325
    Two-Electron Energy =                 332.8995266204113932
    DFT Exchange-Correlation Energy =       0.0000000000000000
    Empirical Dispersion Energy =           0.0000000000000000
    PCM Polarization Energy =               0.0000000000000000
    EFP Energy =                            0.0000000000000000
    Total Energy =                       -251.4435231381228277
    Molecular point group: c1
  Basis Set: CC-PVTZ
  Basis Set:

  -Total Gradient:
     Atom            X                  Y                   Z
    ------   -----------------  -----------------  -----------------
       1       -0.000014526355     0.000018897777    -0.000000073779
       2        0.000016114327     0.000034985826    -0.000030984492
       3       -0.000021467736    -0.000032524920     0.000063391492
       4       -0.000000593887     0.000021806148     0.000016472360
       5        0.000030566144    -0.000042358261     0.000015553706
       6       -0.000001310559    -0.000013437130    -0.000020224320
       7       -0.000012114850    -0.000005443383     0.000011543167
       8        0.002008287121    -0.000308889486    -0.006933144216
       9        0.000024908617     0.000025026307     0.000005999393
      10        0.000001846370    -0.000010615630     0.000002426870
      11        0.003012381430    -0.004477121446     0.004748716676
      12       -0.002205798492     0.000945857947     0.005124222155
      13        0.000001065278    -0.000023794588    -0.000010366876
      14       -0.000020059781     0.000004367371     0.000014642549
      15       -0.002846292527     0.003844452205    -0.002995571971
      16        0.000018773738     0.000012510409     0.000001726402
      17       -0.000006045437    -0.000011264782     0.000013727868
      18        0.000016183715     0.000029946476     0.000007665235
      19       -0.000001917116    -0.000012400841    -0.000035722219

  **** Optimization is complete! (in 7 steps) ****
    Final optimized geometry and variables:
    Molecular point group: c1

    Geometry (in Angstrom), charge = 0, multiplicity = 1:

    H            1.624989291041     2.807497613837     1.866143044750
    N            0.846258959087     2.246991626000     1.592094505278
    C            1.254556876115     1.195913168137     0.673313296623
    H            0.181458735825     2.856704330592     1.163578657976
    C            0.080020567793     0.293636916345     0.323757660613
    H            2.024866321810     0.609128080937     1.162261840689
    H            1.694307561599     1.584077980002    -0.246642291882
    C            0.471562508911    -0.830345994648    -0.636374350610
    H           -0.320813538554    -0.120298626250     1.243791160484
    H           -0.708094700971     0.901635959479    -0.110536542217
    C           -0.629423516262    -1.864611403337    -0.917789351380
    H            1.311564899296    -1.349213277468    -0.183079719063
    H            0.818825577609    -0.400123368641    -1.570870673866
    C           -2.031200815286    -1.287801476364    -1.119433729733
    H           -0.373611783960    -2.388821806485    -1.833175515769
    H           -0.657897292579    -2.597291248486    -0.118324853098
    H           -2.039754930370    -0.539874731451    -1.906166990987
    H           -2.722598490091    -2.071884765417    -1.406464179329
    H           -2.417260935506    -0.825814908681    -0.219519138924

  Mulliken Charges: (a.u.)
   Center  Symbol    Alpha    Beta     Spin     Total
       1     H     0.43021  0.43021  0.00000  0.13957
       2     N     3.68878  3.68878  0.00000 -0.37757
       3     C     3.02886  3.02886  0.00000 -0.05771
       4     H     0.43104  0.43104  0.00000  0.13793
       5     C     3.08470  3.08470  0.00000 -0.16939
       6     H     0.45656  0.45656  0.00000  0.08688
       7     H     0.46888  0.46888  0.00000  0.06225
       8     C     3.10084  3.10084  0.00000 -0.20168
       9     H     0.44835  0.44835  0.00000  0.10330
      10     H     0.45711  0.45711  0.00000  0.08578
      11     C     3.08732  3.08732  0.00000 -0.17464
      12     H     0.45212  0.45212  0.00000  0.09576
      13     H     0.45345  0.45345  0.00000  0.09311
      14     C     3.15794  3.15794  0.00000 -0.31587
      15     H     0.45097  0.45097  0.00000  0.09806
      16     H     0.45175  0.45175  0.00000  0.09650
      17     H     0.45480  0.45480  0.00000  0.09040
      18     H     0.44559  0.44559  0.00000  0.10883
      19     H     0.45074  0.45074  0.00000  0.09851

   Total alpha = 25.00000, Total beta = 25.00000, Total charge = -0.00000

*** Psi4 exiting successfully. Buy a developer a beer!
