  ==> Input File <==

--------------------------------------------------------------------------
set {
	reference rhf
	basis 6-31G*
}

set_num_threads( 4 )
memory 2 gb

molecule MOL {
0 1

H	 -3.420663	 1.227371	 -1.044276
O	 -3.452007	 0.283848	 -0.965577
C	 -3.181085	 -0.079926	 0.364119
C	 -1.765924	 0.277073	 0.805136
H	 -3.327791	 -1.152017	 0.410903
H	 -3.905698	 0.375695	 1.036898
C	 -0.677594	 -0.417312	 -0.014550
H	 -1.637766	 1.358238	 0.744969
H	 -1.659588	 0.017670	 1.857098
C	 0.738335	 -0.034840	 0.421385
H	 -0.814977	 -0.178223	 -1.064632
H	 -0.802730	 -1.495410	 0.071702
C	 1.822265	 -0.738362	 -0.399735
H	 0.853533	 1.043532	 0.342250
H	 0.871597	 -0.279636	 1.474438
C	 1.896146	 -2.256253	 -0.197988
H	 2.791079	 -0.298505	 -0.168176
H	 1.643996	 -0.538994	 -1.454386
C	 2.323456	 -2.691211	 1.205088
H	 2.600107	 -2.665383	 -0.918641
H	 0.930084	 -2.697880	 -0.434404
H	 3.281467	 -2.254140	 1.474019
H	 2.427100	 -3.770640	 1.259212
H	 1.601742	 -2.396226	 1.959592

	symmetry c1
}
set optking {
	frozen_dihedral = ("
		17 13 10 7
	")
}

ee = optimize('scf')
oeprop('DIPOLE', 'QUADRUPOLE', 'MULLIKEN_CHARGES')
f=open( 'psi4out.xyz', 'w' )
f.write( "24  " )
f.write( str(ee) + "\n" )
f.write( MOL.save_string_xyz() )
f.close()
--------------------------------------------------------------------------

    Molecular point group: c1
  Charge       = 0
  Multiplicity = 1
  Basis Set: 6-31G*
  Basis Set:
  @DF-RHF Final Energy:  -349.24544082403111
    Total Energy =                       -349.2454408240313342
    Molecular point group: c1
  Basis Set: 6-31G*
  Basis Set:
  Basis Set: 6-31G*
  Basis Set:
  @DF-RHF Final Energy:  -349.24589439124628
    Total Energy =                       -349.2458943912462246
  Basis Set: 6-31G*
  Basis Set:
  Basis Set: 6-31G*
  Basis Set:
  @DF-RHF Final Energy:  -349.24605205199140
    Total Energy =                       -349.2460520519913416
  Basis Set: 6-31G*
  Basis Set:
  Basis Set: 6-31G*
  Basis Set:
  @DF-RHF Final Energy:  -349.24603429012438
    Total Energy =                       -349.2460342901243848
  Basis Set: 6-31G*
  Basis Set:
  Basis Set: 6-31G*
  Basis Set:
  @DF-RHF Final Energy:  -349.24605708632930
    Total Energy =                       -349.2460570863294151
  Basis Set: 6-31G*
  Basis Set:
  Basis Set: 6-31G*
  Basis Set:
  @DF-RHF Final Energy:  -349.24605965804977
    Total Energy =                       -349.2460596580497736
  Basis Set: 6-31G*
  Basis Set:
  Charge       = 0
  Multiplicity = 1
  Basis Set: 6-31G*
  Basis Set:

    Orbital Energies (a.u.)
    -----------------------

    Doubly Occupied:

       1A    -20.553676     2A    -11.267809     3A    -11.217629
       4A    -11.213089     5A    -11.212537     6A    -11.211844
       7A    -11.210923     8A    -11.207181     9A     -1.360278
      10A     -1.088450    11A     -1.046562    12A     -0.984590
      13A     -0.916129    14A     -0.853243    15A     -0.808864
      16A     -0.763136    17A     -0.680085    18A     -0.652275
      19A     -0.623327    20A     -0.617931    21A     -0.609340
      22A     -0.573847    23A     -0.557180    24A     -0.544912
      25A     -0.521492    26A     -0.509268    27A     -0.494341
      28A     -0.475334    29A     -0.468740    30A     -0.460852
      31A     -0.451320    32A     -0.445194    33A     -0.420314

  @DF-RHF Final Energy:  -349.24606019605687

   => Energetics <=

    Nuclear Repulsion Energy =            390.4462634270897752
    One-Electron Energy =               -1247.3412649065598998
    Two-Electron Energy =                 507.6489412834131940
    DFT Exchange-Correlation Energy =       0.0000000000000000
    Empirical Dispersion Energy =           0.0000000000000000
    PCM Polarization Energy =               0.0000000000000000
    EFP Energy =                            0.0000000000000000
    Total Energy =                       -349.2460601960569306
    Molecular point group: c1
  Basis Set: 6-31G*
  Basis Set:

  -Total Gradient:
     Atom            X                  Y                   Z
    ------   -----------------  -----------------  -----------------
       1        0.000001338835    -0.000003115364     0.000000900904
       2        0.000011986926    -0.000001472809    -0.000004317598
       3        0.000010017421     0.000000421565    -0.000006514423
       4        0.000002763365    -0.000019104553     0.000020006093
       5       -0.000002278514    -0.000001841476     0.000005772281
       6        0.000014560315     0.000003571107    -0.000000490389
       7       -0.000065477911     0.000552079610    -0.000512589280
       8       -0.000007082263     0.000000380701    -0.000001235926
       9       -0.000005868324     0.000003173242     0.000014092607
      10       -0.000006538361    -0.000680693179     0.000542354784
      11       -0.000017354049     0.000001631948    -0.000029235381
      12       -0.000006305228     0.000032443883     0.000006899682
      13        0.000221210486    -0.000492311045     0.000683761392
      14        0.000017257596    -0.000035068745    -0.000026959051
      15        0.000029870509     0.000021258887     0.000000308937
      16       -0.000079337408    -0.000059477075    -0.000013206825
      17       -0.000123419035     0.000681828562    -0.000707619893
      18       -0.000011193326    -0.000010510615     0.000033711977
      19       -0.000019170158     0.000031317023     0.000007004741
      20       -0.000000804879     0.000025920933    -0.000000418436
      21        0.000031939386    -0.000053401319    -0.000004678945
      22        0.000003265597    -0.000001441514    -0.000004181999
      23       -0.000005855059     0.000010620441    -0.000019539200
      24        0.000006474085    -0.000006210208     0.000016173954

  **** Optimization is complete! (in 7 steps) ****
    Final optimized geometry and variables:
    Molecular point group: c1

    Geometry (in Angstrom), charge = 0, multiplicity = 1:

    H           -3.065923806326     1.890777998263    -1.241317948268
    O           -3.119736785040     0.954530259864    -1.107536972021
    C           -2.854523779651     0.662745972335     0.240934876546
    C           -1.430557028693     1.011786087325     0.659168627386
    H           -3.026080868772    -0.401002654515     0.350205229392
    H           -3.566819067732     1.173513033497     0.886638782348
    C           -0.360039115303     0.250329340022    -0.124252609036
    H           -1.278889606779     2.085002869579     0.540549923590
    H           -1.326750095442     0.807305714231     1.723497971649
    C            1.062691214691     0.631732795396     0.293409087802
    H           -0.491916563851     0.439765965291    -1.185270016360
    H           -0.518231385956    -0.816291687410     0.017522205370
    C            2.167739323827    -0.041568013380    -0.531126062874
    H            1.176456361559     1.709056647499     0.187893214073
    H            1.202900137707     0.421791331188     1.351067958929
    C            2.303941385298    -1.561416201386    -0.371633986070
    H            3.119433310262     0.423487657184    -0.280795673802
    H            1.996139181939     0.180838267966    -1.582533840564
    C            2.679992628328    -2.018957757974     1.038770255873
    H            3.068875848821    -1.904055184026    -1.064249032344
    H            1.384400959412    -2.052711106893    -0.677807936216
    H            3.592790836102    -1.535405303754     1.376497624366
    H            2.846308893681    -3.091554741368     1.063926219278
    H            1.901408259434    -1.794693239131     1.760645118849

  Mulliken Charges: (a.u.)
   Center  Symbol    Alpha    Beta     Spin     Total
       1     H     0.28336  0.28336  0.00000  0.43328
       2     O     4.36828  4.36828  0.00000 -0.73656
       3     C     2.99604  2.99604  0.00000  0.00792
       4     C     3.16878  3.16878  0.00000 -0.33757
       5     H     0.41646  0.41646  0.00000  0.16708
       6     H     0.42817  0.42817  0.00000  0.14365
       7     C     3.15349  3.15349  0.00000 -0.30698
       8     H     0.42823  0.42823  0.00000  0.14355
       9     H     0.42247  0.42247  0.00000  0.15507
      10     C     3.15547  3.15547  0.00000 -0.31095
      11     H     0.41246  0.41246  0.00000  0.17508
      12     H     0.42211  0.42211  0.00000  0.15578
      13     C     3.15361  3.15361  0.00000 -0.30722
      14     H     0.42347  0.42347  0.00000  0.15306
      15     H     0.42276  0.42276  0.00000  0.15448
      16     C     3.15416  3.15416  0.00000 -0.30832
      17     H     0.42306  0.42306  0.00000  0.15387
      18     H     0.42208  0.42208  0.00000  0.15584
      19     C     3.24089  3.24089  0.00000 -0.48178
      20     H     0.42103  0.42103  0.00000  0.15794
      21     H     0.42051  0.42051  0.00000  0.15898
      22     H     0.42237  0.42237  0.00000  0.15527
      23     H     0.41934  0.41934  0.00000  0.16132
      24     H     0.42140  0.42140  0.00000  0.15721

   Total alpha = 33.00000, Total beta = 33.00000, Total charge =  0.00000
