  ==> Input File <==

--------------------------------------------------------------------------
set {
	reference rhf
	basis cc-pvtz
}

set_num_threads( 4 )
memory 2 gb

molecule MOL {
0 1

H	 -2.258876	 -1.314426	 1.451722
C	 -1.562750	 -0.785374	 0.835729
C	 -1.955794	 0.350316	 0.057991
C	 -0.285495	 -1.168873	 0.768032
H	 -2.975909	 0.684195	 0.090346
C	 -1.065474	 0.993580	 -0.703665
H	 0.084221	 -2.009547	 1.320950
N	 0.640204	 -0.530428	 -0.000115
H	 -1.323608	 1.845780	 -1.297873
C	 0.326303	 0.572737	 -0.774920
C	 2.006991	 -1.033007	 -0.000020
O	 1.155010	 1.124265	 -1.446713
H	 2.182444	 -1.636914	 -0.880881
H	 2.678769	 -0.195442	 -0.002236
H	 2.183828	 -1.633244	 0.883082

	symmetry c1
}
set optking {
	frozen_dihedral = ("
		10 8 11 13
	")
}

ee = optimize('scf')
oeprop('DIPOLE', 'QUADRUPOLE', 'MULLIKEN_CHARGES')
f=open( 'psi4out.xyz', 'w' )
f.write( "15  " )
f.write( str(ee) + "\n" )
f.write( MOL.save_string_xyz() )
f.close()
--------------------------------------------------------------------------

    Molecular point group: c1
  Charge       = 0
  Multiplicity = 1
  Basis Set: CC-PVTZ
  Basis Set:
  @DF-RHF Final Energy:  -360.72278337285451
    Total Energy =                       -360.7227833728546784
    Molecular point group: c1
  Basis Set: CC-PVTZ
  Basis Set:
  Basis Set: CC-PVTZ
  Basis Set:
  @DF-RHF Final Energy:  -360.72322181920288
    Total Energy =                       -360.7232218192028768
  Basis Set: CC-PVTZ
  Basis Set:
  Basis Set: CC-PVTZ
  Basis Set:
  @DF-RHF Final Energy:  -360.72327761738745
    Total Energy =                       -360.7232776173874527
  Basis Set: CC-PVTZ
  Basis Set:
  Basis Set: CC-PVTZ
  Basis Set:
  @DF-RHF Final Energy:  -360.72325372680649
    Total Energy =                       -360.7232537268064334
  Basis Set: CC-PVTZ
  Basis Set:
  Charge       = 0
  Multiplicity = 1
  Basis Set: CC-PVTZ
  Basis Set:

    Orbital Energies (a.u.)
    -----------------------

    Doubly Occupied:

       1A    -20.501916     2A    -15.617516     3A    -11.338025
       4A    -11.294267     5A    -11.265494     6A    -11.258135
       7A    -11.229751     8A    -11.227904     9A     -1.391118
      10A     -1.285837    11A     -1.118806    12A     -1.029215
      13A     -0.972592    14A     -0.876391    15A     -0.838863
      16A     -0.719543    17A     -0.702177    18A     -0.663928
      19A     -0.653296    20A     -0.626037    21A     -0.611914
      22A     -0.574860    23A     -0.553646    24A     -0.550951
      25A     -0.530907    26A     -0.484345    27A     -0.420558
      28A     -0.410580    29A     -0.310267

  @DF-RHF Final Energy:  -360.72328442126616

   => Energetics <=

    Nuclear Repulsion Energy =            358.7667867105521964
    One-Electron Energy =               -1200.8624584770377623
    Two-Electron Energy =                 481.3723873452194084
    DFT Exchange-Correlation Energy =       0.0000000000000000
    Empirical Dispersion Energy =           0.0000000000000000
    PCM Polarization Energy =               0.0000000000000000
    EFP Energy =                            0.0000000000000000
    Total Energy =                       -360.7232844212661576
    Molecular point group: c1
  Basis Set: CC-PVTZ
  Basis Set:

  -Total Gradient:
     Atom            X                  Y                   Z
    ------   -----------------  -----------------  -----------------
       1       -0.000000719978     0.000002892437     0.000005868037
       2        0.000189785758    -0.000097925619    -0.000002049097
       3       -0.000007034387     0.000155481435    -0.000119552754
       4       -0.000245180475    -0.000083226551     0.000159681897
       5        0.000004977194    -0.000006522189     0.000002920289
       6       -0.000181933230    -0.000003796559     0.000041496895
       7        0.000016982950     0.000011356763    -0.000016378738
       8       -0.000247761834    -0.000677574398    -0.000913261334
       9        0.000012920813     0.000009195497    -0.000013977983
      10        0.000351968481     0.000253216025     0.000782776661
      11        0.000387492742     0.001110169898    -0.000324887800
      12       -0.000036443725     0.000049876602    -0.000071593747
      13       -0.000252955879    -0.000733392072     0.000473298707
      14       -0.000000163512     0.000010971336    -0.000000810775
      15        0.000008065082    -0.000000722605    -0.000003530260

  **** Optimization is complete! (in 5 steps) ****
    Final optimized geometry and variables:
    Molecular point group: c1

    Geometry (in Angstrom), charge = 0, multiplicity = 1:

    H           -2.252776279350    -1.248393471747     1.617500064741
    C           -1.550611387478    -0.721178167615     1.006828056753
    C           -1.933612226515     0.419373970642     0.232445755523
    C           -0.273310988895    -1.110345505306     0.950169487372
    H           -2.952234043773     0.758070946134     0.262205572507
    C           -1.036704582737     1.062740920415    -0.522633096334
    H            0.086808030933    -1.952595833364     1.505549716373
    N            0.657538860367    -0.470149057248     0.192165087637
    H           -1.287677216318     1.918081860949    -1.115583889826
    C            0.348608840821     0.626085106559    -0.592237473947
    C            2.031625147384    -0.948106261947     0.164146237632
    O            1.189772830514     1.150227252011    -1.270693263994
    H            2.211203579073    -1.553477889072    -0.714628048921
    H            2.703677830407    -0.107624779571     0.145642082998
    H            2.215510968154    -1.541985106407     1.046915156834

  Mulliken Charges: (a.u.)
   Center  Symbol    Alpha    Beta     Spin     Total
       1     H     0.41393  0.41393  0.00000  0.17214
       2     C     3.10577  3.10577  0.00000 -0.21154
       3     C     3.06023  3.06023  0.00000 -0.12045
       4     C     3.03633  3.03633  0.00000 -0.07266
       5     H     0.41842  0.41842  0.00000  0.16316
       6     C     3.11825  3.11825  0.00000 -0.23650
       7     H     0.42039  0.42039  0.00000  0.15922
       8     N     3.50955  3.50955  0.00000 -0.01910
       9     H     0.40920  0.40920  0.00000  0.18160
      10     C     2.84538  2.84538  0.00000  0.30924
      11     C     3.09498  3.09498  0.00000 -0.18995
      12     O     4.23595  4.23595  0.00000 -0.47189
      13     H     0.44501  0.44501  0.00000  0.10998
      14     H     0.43121  0.43121  0.00000  0.13758
      15     H     0.45542  0.45542  0.00000  0.08916

   Total alpha = 29.00000, Total beta = 29.00000, Total charge = -0.00000
