  ==> Input File <==

--------------------------------------------------------------------------
set {
	reference rhf
	basis 6-31G*
}

set_num_threads( 4 )
memory 2 gb

molecule MOL {
0 1

H	 -4.236494	 0.538104	 0.039757
O	 -3.517110	 -0.026191	 -0.205115
C	 -2.306886	 0.532354	 0.237577
C	 -1.177863	 -0.397191	 -0.171080
H	 -2.156308	 1.517575	 -0.201710
H	 -2.315015	 0.655684	 1.319734
C	 0.198102	 0.111031	 0.262842
H	 -1.208843	 -0.518759	 -1.250427
H	 -1.368741	 -1.376554	 0.258909
C	 1.331804	 -0.827780	 -0.158768
H	 0.361943	 1.100838	 -0.156218
H	 0.217265	 0.229072	 1.345532
C	 2.723619	 -0.410569	 0.329459
H	 1.342964	 -0.912588	 -1.244120
H	 1.116806	 -1.824343	 0.220779
C	 2.937921	 1.101226	 0.423727
H	 3.464463	 -0.825570	 -0.349520
H	 2.915092	 -0.863943	 1.300003
H	 2.741146	 1.583349	 -0.530147
H	 2.290912	 1.558314	 1.165095
H	 3.962328	 1.328446	 0.702500

	symmetry c1
}
set optking {
	frozen_dihedral = ("
		16 13 10 14
	")
}

ee = optimize('scf')
oeprop('DIPOLE', 'QUADRUPOLE', 'MULLIKEN_CHARGES')
f=open( 'psi4out.xyz', 'w' )
f.write( "21  " )
f.write( str(ee) + "\n" )
f.write( MOL.save_string_xyz() )
f.close()
--------------------------------------------------------------------------

    Molecular point group: c1
  Charge       = 0
  Multiplicity = 1
  Basis Set: 6-31G*
  Basis Set:
  @DF-RHF Final Energy:  -310.20847326043940
    Total Energy =                       -310.2084732604394048
    Molecular point group: c1
  Basis Set: 6-31G*
  Basis Set:
  Basis Set: 6-31G*
  Basis Set:
  @DF-RHF Final Energy:  -310.20891077083411
    Total Energy =                       -310.2089107708338815
  Basis Set: 6-31G*
  Basis Set:
  Basis Set: 6-31G*
  Basis Set:
  @DF-RHF Final Energy:  -310.20925699977312
    Total Energy =                       -310.2092569997730038
  Basis Set: 6-31G*
  Basis Set:
  Basis Set: 6-31G*
  Basis Set:
  @DF-RHF Final Energy:  -310.20925712817092
    Total Energy =                       -310.2092571281714299
  Basis Set: 6-31G*
  Basis Set:
  Basis Set: 6-31G*
  Basis Set:
  @DF-RHF Final Energy:  -310.20926840626578
    Total Energy =                       -310.2092684062660055
  Basis Set: 6-31G*
  Basis Set:
  Basis Set: 6-31G*
  Basis Set:
  @DF-RHF Final Energy:  -310.20926985718091
    Total Energy =                       -310.2092698571811411
  Basis Set: 6-31G*
  Basis Set:
  Basis Set: 6-31G*
  Basis Set:
  @DF-RHF Final Energy:  -310.20927090647166
    Total Energy =                       -310.2092709064717724
  Basis Set: 6-31G*
  Basis Set:
  Charge       = 0
  Multiplicity = 1
  Basis Set: 6-31G*
  Basis Set:

    Orbital Energies (a.u.)
    -----------------------

    Doubly Occupied:

       1A    -20.551897     2A    -11.267114     3A    -11.216183
       4A    -11.215343     5A    -11.213543     6A    -11.210748
       7A    -11.208146     8A     -1.358719     9A     -1.085417
      10A     -1.032103    11A     -0.953933    12A     -0.878953
      13A     -0.809078    14A     -0.773730    15A     -0.692273
      16A     -0.662184    17A     -0.626783    18A     -0.600113
      19A     -0.585023    20A     -0.573743    21A     -0.534049
      22A     -0.524163    23A     -0.508046    24A     -0.486248
      25A     -0.483296    26A     -0.457725    27A     -0.450647
      28A     -0.444932    29A     -0.433968

  @DF-RHF Final Energy:  -310.20927115408074

   => Energetics <=

    Nuclear Repulsion Energy =            313.1782302447431903
    One-Electron Energy =               -1041.0988014874278633
    Two-Electron Energy =                 417.7113000886039913
    DFT Exchange-Correlation Energy =       0.0000000000000000
    Empirical Dispersion Energy =           0.0000000000000000
    PCM Polarization Energy =               0.0000000000000000
    EFP Energy =                            0.0000000000000000
    Total Energy =                       -310.2092711540806818
    Molecular point group: c1
  Basis Set: 6-31G*
  Basis Set:

  -Total Gradient:
     Atom            X                  Y                   Z
    ------   -----------------  -----------------  -----------------
       1       -0.000004359693    -0.000001434220    -0.000000840985
       2       -0.000003849631     0.000004299975     0.000002474492
       3        0.000004661496    -0.000005584068    -0.000001102168
       4        0.000007566457    -0.000002920658    -0.000001689475
       5       -0.000000678577    -0.000000811371     0.000000424007
       6       -0.000001038638     0.000001570494     0.000000211400
       7       -0.000001323861     0.000002652608    -0.000000713095
       8       -0.000002533815     0.000000553006    -0.000000316166
       9       -0.000000883838    -0.000000460089    -0.000001652408
      10       -0.002307739879     0.007071157738     0.001089349648
      11        0.000000948864     0.000000195281    -0.000000747119
      12        0.000001846026    -0.000000983305    -0.000001417162
      13        0.002428697556    -0.001429872425    -0.005759242026
      14        0.001341052988    -0.005694410673     0.000562791810
      15        0.000001494129     0.000000850304    -0.000002324590
      16       -0.001469073609     0.000057798201     0.004115475272
      17       -0.000001995771     0.000001917142     0.000001252295
      18        0.000003070810    -0.000003458002     0.000000384758
      19        0.000000035081     0.000002801688    -0.000001392001
      20        0.000002517806    -0.000002854126    -0.000001073477
      21        0.000001586097    -0.000001007500     0.000000146992

  **** Optimization is complete! (in 8 steps) ****
    Final optimized geometry and variables:
    Molecular point group: c1

    Geometry (in Angstrom), charge = 0, multiplicity = 1:

    H           -4.219767642524     0.453446893370    -0.058025537080
    O           -3.490427592583    -0.096698981054    -0.305654204842
    C           -2.290417846798     0.480498957976     0.140888907870
    C           -1.145103278160    -0.426479958959    -0.273234983826
    H           -2.157282015055     1.470922819637    -0.292238101550
    H           -2.301009812856     0.596944838148     1.223801242054
    C            0.221189867295     0.103496687030     0.165188442507
    H           -1.172987740883    -0.541009042420    -1.353427519961
    H           -1.319272158977    -1.411902384098     0.149744428067
    C            1.365545819108    -0.812761849462    -0.269913160914
    H            0.366992723414     1.100203314816    -0.243226899417
    H            0.237120515425     0.210225429156     1.249019780950
    C            2.773449527363    -0.430717088589     0.227991283197
    H            1.376062748973    -0.916913669413    -1.353097277009
    H            1.152360749950    -1.816718488053     0.092704136486
    C            3.068772496245     1.068573078612     0.312698290113
    H            3.510665796124    -0.910618027554    -0.409121158886
    H            2.917228643799    -0.851793490630     1.220810732431
    H            2.927417669072     1.562479327535    -0.645197993114
    H            2.431078027541     1.562517843240     1.037301894177
    H            4.097846053749     1.233959453669     0.616769525403

  Mulliken Charges: (a.u.)
   Center  Symbol    Alpha    Beta     Spin     Total
       1     H     0.28116  0.28116  0.00000  0.43768
       2     O     4.37183  4.37183  0.00000 -0.74366
       3     C     2.98961  2.98961  0.00000  0.02077
       4     C     3.15922  3.15922  0.00000 -0.31844
       5     H     0.43285  0.43285  0.00000  0.13430
       6     H     0.43295  0.43295  0.00000  0.13409
       7     C     3.16289  3.16289  0.00000 -0.32579
       8     H     0.41466  0.41466  0.00000  0.17068
       9     H     0.41464  0.41464  0.00000  0.17072
      10     C     3.15371  3.15371  0.00000 -0.30741
      11     H     0.42049  0.42049  0.00000  0.15903
      12     H     0.42365  0.42365  0.00000  0.15269
      13     C     3.15206  3.15206  0.00000 -0.30413
      14     H     0.42180  0.42180  0.00000  0.15640
      15     H     0.42131  0.42131  0.00000  0.15739
      16     C     3.24250  3.24250  0.00000 -0.48500
      17     H     0.41999  0.41999  0.00000  0.16002
      18     H     0.42310  0.42310  0.00000  0.15380
      19     H     0.42235  0.42235  0.00000  0.15530
      20     H     0.41990  0.41990  0.00000  0.16020
      21     H     0.41932  0.41932  0.00000  0.16135

   Total alpha = 29.00000, Total beta = 29.00000, Total charge = -0.00000
