  ==> Input File <==

--------------------------------------------------------------------------
set {
	reference rhf
	basis 6-31G*
}

set_num_threads( 4 )
memory 2 gb

molecule MOL {
0 1

H	 1.089672	 1.778039	 -0.466341
O	 0.268573	 1.296402	 -0.489877
C	 0.489431	 0.077273	 0.000046
C	 -0.764129	 -0.759190	 0.000191
O	 1.560292	 -0.268409	 0.379948
C	 -2.038368	 0.075731	 -0.000248
H	 -0.717284	 -1.412404	 -0.866059
H	 -0.717458	 -1.411724	 0.866967
H	 -2.086483	 0.712501	 -0.875098
H	 -2.908485	 -0.571682	 -0.000042
H	 -2.086576	 0.713280	 0.874068

	symmetry c1
}
set optking {
	frozen_dihedral = ("
		2 3 4 7
	")
}

ee = optimize('scf')
oeprop('DIPOLE', 'QUADRUPOLE', 'MULLIKEN_CHARGES')
f=open( 'psi4out.xyz', 'w' )
f.write( "11  " )
f.write( str(ee) + "\n" )
f.write( MOL.save_string_xyz() )
f.close()
--------------------------------------------------------------------------

    Molecular point group: c1
  Charge       = 0
  Multiplicity = 1
  Basis Set: 6-31G*
  Basis Set:
  @DF-RHF Final Energy:  -266.84279578716621
    Total Energy =                       -266.8427957871660965
    Molecular point group: c1
  Basis Set: 6-31G*
  Basis Set:
  Basis Set: 6-31G*
  Basis Set:
  @DF-RHF Final Energy:  -266.84330301650982
    Total Energy =                       -266.8433030165093669
  Basis Set: 6-31G*
  Basis Set:
  Basis Set: 6-31G*
  Basis Set:
  @DF-RHF Final Energy:  -266.84268472288352
    Total Energy =                       -266.8426847228836891
  Basis Set: 6-31G*
  Basis Set:
  Basis Set: 6-31G*
  Basis Set:
  @DF-RHF Final Energy:  -266.84368165246212
    Total Energy =                       -266.8436816524620099
  Basis Set: 6-31G*
  Basis Set:
  Basis Set: 6-31G*
  Basis Set:
  @DF-RHF Final Energy:  -266.84369865661756
    Total Energy =                       -266.8436986566176188
  Basis Set: 6-31G*
  Basis Set:
  Charge       = 0
  Multiplicity = 1
  Basis Set: 6-31G*
  Basis Set:

    Orbital Energies (a.u.)
    -----------------------

    Doubly Occupied:

       1A    -20.615964     2A    -20.548676     3A    -11.382295
       4A    -11.244408     5A    -11.225213     6A     -1.476469
       7A     -1.365385     8A     -1.066531     9A     -0.909549
      10A     -0.823124    11A     -0.701670    12A     -0.676659
      13A     -0.657161    14A     -0.598926    15A     -0.587470
      16A     -0.552868    17A     -0.524945    18A     -0.514206
      19A     -0.472250    20A     -0.440217

  @DF-RHF Final Energy:  -266.84369933627886

   => Energetics <=

    Nuclear Repulsion Energy =            180.0433016816377858
    One-Electron Energy =                -721.0060296813959440
    Two-Electron Energy =                 274.1190286634794120
    DFT Exchange-Correlation Energy =       0.0000000000000000
    Empirical Dispersion Energy =           0.0000000000000000
    PCM Polarization Energy =               0.0000000000000000
    EFP Energy =                            0.0000000000000000
    Total Energy =                       -266.8436993362787462
    Molecular point group: c1
  Basis Set: 6-31G*
  Basis Set:

  -Total Gradient:
     Atom            X                  Y                   Z
    ------   -----------------  -----------------  -----------------
       1        0.000000830670    -0.000007474441    -0.000002247711
       2       -0.000161442952     0.000264807621     0.000549401817
       3        0.000310119268    -0.000496337961    -0.000656031291
       4       -0.000446718779     0.000723810033    -0.000264746935
       5       -0.000052254276     0.000036755214    -0.000010940210
       6        0.000022718341    -0.000022682274    -0.000002593880
       7        0.000327552084    -0.000496721705     0.000371137060
       8       -0.000016209830     0.000004016950     0.000003734385
       9        0.000011707156    -0.000013719355     0.000000447946
      10       -0.000001471639    -0.000000417278     0.000003988718
      11        0.000005169954     0.000007963195     0.000007850103

  **** Optimization is complete! (in 6 steps) ****
    Final optimized geometry and variables:
    Molecular point group: c1

    Geometry (in Angstrom), charge = 0, multiplicity = 1:

    H            1.257252540792     1.634382673929    -0.433233238258
    O            0.409390620196     1.200708777403    -0.449813985962
    C            0.571133482634    -0.029455097548     0.030784208216
    C           -0.695158769549    -0.852142837628     0.032431529383
    O            1.628830040888    -0.428703751655     0.397132835247
    C           -2.003211081351    -0.064714262001     0.030808145944
    H           -0.636627753974    -1.496398851468    -0.841393122763
    H           -0.628665089810    -1.507235811349     0.892334834778
    H           -2.095245415644     0.548986309937    -0.856018534365
    H           -2.843191867090    -0.750116637726     0.059220290877
    H           -2.072924399303     0.585679540882     0.895651587834

  Mulliken Charges: (a.u.)
   Center  Symbol    Alpha    Beta     Spin     Total
       1     H     0.26718  0.26718  0.00000  0.46564
       2     O     4.34779  4.34779  0.00000 -0.69559
       3     C     2.62442  2.62442  0.00000  0.75117
       4     C     3.20990  3.20990  0.00000 -0.41981
       5     O     4.28164  4.28164  0.00000 -0.56328
       6     C     3.24183  3.24183  0.00000 -0.48366
       7     H     0.39704  0.39704  0.00000  0.20592
       8     H     0.39499  0.39499  0.00000  0.21003
       9     H     0.40715  0.40715  0.00000  0.18571
      10     H     0.41481  0.41481  0.00000  0.17038
      11     H     0.41326  0.41326  0.00000  0.17348

   Total alpha = 20.00000, Total beta = 20.00000, Total charge =  0.00000
