  ==> Input File <==

--------------------------------------------------------------------------
set {
	reference rhf
	basis 6-31G*
}

set_num_threads( 4 )
memory 2 gb

molecule MOL {
0 1

H	 1.914825	 -2.484613	 -1.706158
O	 1.732351	 -2.096118	 -0.856140
C	 0.962692	 -1.025003	 -1.047853
C	 0.624473	 -0.343591	 0.253101
O	 0.610526	 -0.686200	 -2.130538
C	 -0.265902	 0.883932	 0.072916
H	 0.165294	 -1.090697	 0.892132
H	 1.564153	 -0.080208	 0.732041
C	 -1.728698	 0.646073	 0.462102
H	 -0.209144	 1.219470	 -0.958188
H	 0.135059	 1.692851	 0.673903
C	 -2.482460	 -0.343073	 -0.431425
H	 -2.245265	 1.602650	 0.432430
H	 -1.779332	 0.308348	 1.496285
C	 -3.960546	 -0.461025	 -0.060175
H	 -2.395034	 -0.026811	 -1.468912
H	 -2.024850	 -1.327147	 -0.371646
H	 -4.472726	 -1.168004	 -0.705284
H	 -4.465146	 0.496508	 -0.151489
H	 -4.081218	 -0.800940	 0.964585

	symmetry c1
}
set optking {
	frozen_dihedral = ("
		7 4 6 10
	")
}

ee = optimize('scf')
oeprop('DIPOLE', 'QUADRUPOLE', 'MULLIKEN_CHARGES')
f=open( 'psi4out.xyz', 'w' )
f.write( "20  " )
f.write( str(ee) + "\n" )
f.write( MOL.save_string_xyz() )
f.close()
--------------------------------------------------------------------------

    Molecular point group: c1
  Charge       = 0
  Multiplicity = 1
  Basis Set: 6-31G*
  Basis Set:
  @DF-RHF Final Energy:  -383.94533025209523
    Total Energy =                       -383.9453302520952320
    Molecular point group: c1
  Basis Set: 6-31G*
  Basis Set:
  Basis Set: 6-31G*
  Basis Set:
  @DF-RHF Final Energy:  -383.94561176355222
    Total Energy =                       -383.9456117635525061
  Basis Set: 6-31G*
  Basis Set:
  Basis Set: 6-31G*
  Basis Set:
  @DF-RHF Final Energy:  -383.94567917344500
    Total Energy =                       -383.9456791734448871
  Basis Set: 6-31G*
  Basis Set:
  Basis Set: 6-31G*
  Basis Set:
  @DF-RHF Final Energy:  -383.94557379917359
    Total Energy =                       -383.9455737991736441
  Basis Set: 6-31G*
  Basis Set:
  Basis Set: 6-31G*
  Basis Set:
  @DF-RHF Final Energy:  -383.94572208182785
    Total Energy =                       -383.9457220818280803
  Basis Set: 6-31G*
  Basis Set:
  Charge       = 0
  Multiplicity = 1
  Basis Set: 6-31G*
  Basis Set:

    Orbital Energies (a.u.)
    -----------------------

    Doubly Occupied:

       1A    -20.613142     2A    -20.552543     3A    -11.381946
       4A    -11.240708     5A    -11.221633     6A    -11.217405
       7A    -11.213893     8A    -11.208075     9A     -1.475428
      10A     -1.366183    11A     -1.093045    12A     -1.036814
      13A     -0.959316    14A     -0.868902    15A     -0.812391
      16A     -0.774299    17A     -0.700887    18A     -0.692012
      19A     -0.661926    20A     -0.630611    21A     -0.602582
      22A     -0.590665    23A     -0.574089    24A     -0.553168
      25A     -0.534558    26A     -0.513050    27A     -0.494859
      28A     -0.480777    29A     -0.464136    30A     -0.463676
      31A     -0.453305    32A     -0.444280

  @DF-RHF Final Energy:  -383.94572227622467

   => Energetics <=

    Nuclear Repulsion Energy =            386.7707527129857112
    One-Electron Energy =               -1289.6523436196532657
    Two-Electron Energy =                 518.9358686304433377
    DFT Exchange-Correlation Energy =       0.0000000000000000
    Empirical Dispersion Energy =           0.0000000000000000
    PCM Polarization Energy =               0.0000000000000000
    EFP Energy =                            0.0000000000000000
    Total Energy =                       -383.9457222762241599
    Molecular point group: c1
  Basis Set: 6-31G*
  Basis Set:

  -Total Gradient:
     Atom            X                  Y                   Z
    ------   -----------------  -----------------  -----------------
       1        0.000064400670    -0.000127501557    -0.000018084276
       2       -0.000118217371    -0.000050649639    -0.000274316469
       3        0.000286409214     0.000344985067     0.000162243216
       4        0.000653781618     0.000866936342     0.002206993921
       5       -0.000081331905    -0.000221350823     0.000096697655
       6        0.001868290294     0.001206500647     0.000337085530
       7       -0.000965425579    -0.000924920782    -0.001825811026
       8       -0.000003656872     0.000010357913     0.000044860772
       9        0.000059020379     0.000048574983    -0.000074835854
      10       -0.001764659553    -0.001278286671    -0.000498798105
      11       -0.000059766249     0.000096622162    -0.000099270840
      12        0.000011057313     0.000048506464    -0.000059682077
      13       -0.000009292570     0.000026364611     0.000029890038
      14        0.000053539757    -0.000036325776    -0.000049074073
      15        0.000023292961    -0.000029153824     0.000046071696
      16       -0.000020136218     0.000059728860    -0.000053290546
      17       -0.000029562841    -0.000028400314     0.000027323011
      18        0.000021626608    -0.000012898457     0.000011372608
      19        0.000023312992    -0.000010130729    -0.000021931315
      20       -0.000012682647     0.000011041530     0.000012556139

  **** Optimization is complete! (in 6 steps) ****
    Final optimized geometry and variables:
    Molecular point group: c1

    Geometry (in Angstrom), charge = 0, multiplicity = 1:

    H            2.424953344059    -2.059019516349    -1.191997122717
    O            2.242265682294    -1.656110650110    -0.348750824742
    C            1.498499132487    -0.570575071609    -0.560389820692
    C            1.169283590876     0.130634011303     0.735517934069
    O            1.164912770568    -0.240891238271    -1.651933880279
    C            0.274437631110     1.369387836187     0.576187567007
    H            0.711526719380    -0.617042407420     1.376292496053
    H            2.118821963208     0.378892854215     1.199119310612
    C           -1.193296842442     1.134694219492     0.953346629594
    H            0.320499565933     1.708821952892    -0.451535891340
    H            0.667330793619     2.168455083867     1.196329517807
    C           -1.932593153017     0.146503948726     0.047639095291
    H           -1.710451332629     2.091265083661     0.922411993034
    H           -1.251336836967     0.792645263045     1.985915750838
    C           -3.402950596903    -0.014091938583     0.432889990811
    H           -1.858282722970     0.480127791283    -0.983633252503
    H           -1.449931593056    -0.827322545603     0.084580427847
    H           -3.904465617681    -0.721781047171    -0.219770960567
    H           -3.931961140353     0.932193398440     0.363058969867
    H           -3.505824991918    -0.374419653230     1.452847296655

  Mulliken Charges: (a.u.)
   Center  Symbol    Alpha    Beta     Spin     Total
       1     H     0.26763  0.26763  0.00000  0.46474
       2     O     4.35008  4.35008  0.00000 -0.70016
       3     C     2.62751  2.62751  0.00000  0.74498
       4     C     3.21266  3.21266  0.00000 -0.42532
       5     O     4.27972  4.27972  0.00000 -0.55945
       6     C     3.16248  3.16248  0.00000 -0.32496
       7     H     0.39652  0.39652  0.00000  0.20695
       8     H     0.39471  0.39471  0.00000  0.21058
       9     C     3.15492  3.15492  0.00000 -0.30983
      10     H     0.39729  0.39729  0.00000  0.20543
      11     H     0.41633  0.41633  0.00000  0.16735
      12     C     3.15360  3.15360  0.00000 -0.30719
      13     H     0.42001  0.42001  0.00000  0.15998
      14     H     0.42525  0.42525  0.00000  0.14950
      15     C     3.23964  3.23964  0.00000 -0.47929
      16     H     0.41289  0.41289  0.00000  0.17422
      17     H     0.42594  0.42594  0.00000  0.14813
      18     H     0.41826  0.41826  0.00000  0.16348
      19     H     0.42154  0.42154  0.00000  0.15691
      20     H     0.42303  0.42303  0.00000  0.15394

   Total alpha = 32.00000, Total beta = 32.00000, Total charge = -0.00000
