  ==> Input File <==

--------------------------------------------------------------------------
set {
	reference rhf
	basis 6-31G*
}

set_num_threads( 4 )
memory 2 gb

molecule MOL {
0 1

H	 -2.995051	 1.290787	 -1.947066
C	 -2.039063	 1.809691	 -2.090063
C	 -1.368747	 2.271752	 -0.821290
O	 -1.605512	 1.972073	 -3.184328
C	 -1.220012	 1.144545	 0.209990
H	 -0.409366	 2.704942	 -1.079441
H	 -1.989676	 3.061983	 -0.401008
C	 -0.252658	 0.041456	 -0.226725
H	 -0.875804	 1.576916	 1.144795
H	 -2.198255	 0.713809	 0.417989
C	 1.180775	 0.282413	 0.250794
H	 -0.266029	 -0.034465	 -1.312038
H	 -0.597733	 -0.921000	 0.146291
C	 2.148627	 -0.814315	 -0.201312
H	 1.516199	 1.249228	 -0.115937
H	 1.192670	 0.346017	 1.338083
C	 3.580890	 -0.659131	 0.322722
H	 2.166869	 -0.852443	 -1.289387
H	 1.762857	 -1.776509	 0.128956
C	 4.324889	 0.564933	 -0.213704
H	 4.142010	 -1.551473	 0.056605
H	 3.564836	 -0.624694	 1.410140
H	 4.342616	 0.565491	 -1.300421
H	 3.866655	 1.493402	 0.110242
H	 5.353900	 0.572371	 0.132816

	symmetry c1
}
set optking {
	frozen_dihedral = ("
		3 5 8 12
	")
}

ee = optimize('scf')
oeprop('DIPOLE', 'QUADRUPOLE', 'MULLIKEN_CHARGES')
f=open( 'psi4out.xyz', 'w' )
f.write( "25  " )
f.write( str(ee) + "\n" )
f.write( MOL.save_string_xyz() )
f.close()
--------------------------------------------------------------------------

    Molecular point group: c1
  Charge       = 0
  Multiplicity = 1
  Basis Set: 6-31G*
  Basis Set:
  @DF-RHF Final Energy:  -387.11859780694158
    Total Energy =                       -387.1185978069418070
    Molecular point group: c1
  Basis Set: 6-31G*
  Basis Set:
  Basis Set: 6-31G*
  Basis Set:
  @DF-RHF Final Energy:  -387.11855955334522
    Total Energy =                       -387.1185595533456762
  Basis Set: 6-31G*
  Basis Set:
  Basis Set: 6-31G*
  Basis Set:
  @DF-RHF Final Energy:  -387.11631799918393
    Total Energy =                       -387.1163179991831385
  Basis Set: 6-31G*
  Basis Set:
  Basis Set: 6-31G*
  Basis Set:
  @DF-RHF Final Energy:  -387.11885517913805
    Total Energy =                       -387.1188551791381087
  Basis Set: 6-31G*
  Basis Set:
  @DF-RHF Final Energy:  -387.11888958467182
    Total Energy =                       -387.1188895846717060
  @DF-RHF Final Energy:  -387.11891972288112
    Total Energy =                       -387.1189197228814010
  Basis Set: 6-31G*
  Basis Set:
  @DF-RHF Final Energy:  -387.11892877266587
    Total Energy =                       -387.1189287726655266
  Basis Set: 6-31G*
  Basis Set:
  Basis Set: 6-31G*
  Basis Set:
  @DF-RHF Final Energy:  -387.11891116198990
    Total Energy =                       -387.1189111619902405
  Basis Set: 6-31G*
  Basis Set:
  Basis Set: 6-31G*
  Basis Set:
  @DF-RHF Final Energy:  -387.11893374902337
    Total Energy =                       -387.1189337490237676
  Basis Set: 6-31G*
  Basis Set:
  Charge       = 0
  Multiplicity = 1
  Basis Set: 6-31G*
  Basis Set:

    Orbital Energies (a.u.)
    -----------------------

    Doubly Occupied:

       1A    -20.563039     2A    -11.326608     3A    -11.235446
       4A    -11.234833     5A    -11.222813     6A    -11.218280
       7A    -11.216519     8A    -11.215243     9A    -11.208672
      10A     -1.402779    11A     -1.102520    12A     -1.067817
      13A     -1.010935    14A     -0.941652    15A     -0.876024
      16A     -0.820564    17A     -0.786610    18A     -0.778712
      19A     -0.665992    20A     -0.653824    21A     -0.643182
      22A     -0.615999    23A     -0.608113    24A     -0.591833
      25A     -0.571694    26A     -0.545855    27A     -0.541000
      28A     -0.520447    29A     -0.513184    30A     -0.499769
      31A     -0.483293    32A     -0.475429    33A     -0.462436
      34A     -0.455585    35A     -0.441041    36A     -0.410426

  @DF-RHF Final Energy:  -387.11893458739365

   => Energetics <=

    Nuclear Repulsion Energy =            445.8142910193478770
    One-Electron Energy =               -1408.0101099116100158
    Two-Electron Energy =                 575.0768843048683721
    DFT Exchange-Correlation Energy =       0.0000000000000000
    Empirical Dispersion Energy =           0.0000000000000000
    PCM Polarization Energy =               0.0000000000000000
    EFP Energy =                            0.0000000000000000
    Total Energy =                       -387.1189345873938237
    Molecular point group: c1
  Basis Set: 6-31G*
  Basis Set:

  -Total Gradient:
     Atom            X                  Y                   Z
    ------   -----------------  -----------------  -----------------
       1       -0.000001570064    -0.000000650042     0.000007895502
       2        0.000014777665    -0.000029633562    -0.000023394497
       3       -0.001722592322    -0.001198820251    -0.000937799987
       4       -0.000002938528     0.000033834050     0.000017628365
       5        0.002951928154     0.002145068507     0.001356214304
       6       -0.000003336831     0.000019696269    -0.000005053209
       7       -0.000011017506     0.000020826239    -0.000035750527
       8       -0.003617701915    -0.003071401744    -0.000175426945
       9       -0.000006283395    -0.000007305384    -0.000005361402
      10       -0.000005996702     0.000020613851     0.000010062863
      11        0.000016256129    -0.000021337412    -0.000017116142
      12        0.002369697485     0.002077640581    -0.000191483407
      13        0.000008855391     0.000010714196     0.000002104220
      14        0.000005769079     0.000008149110     0.000006213156
      15        0.000014666715     0.000003601311     0.000002791217
      16       -0.000004108650    -0.000008195502    -0.000006664825
      17        0.000009916618    -0.000015083099    -0.000013957546
      18        0.000004010656    -0.000007885342     0.000000933772
      19       -0.000009950602     0.000010598468     0.000007671633
      20       -0.000005390892     0.000006259869     0.000002967365
      21        0.000001638489     0.000002117355    -0.000005183151
      22        0.000003239871    -0.000009582828    -0.000000200137
      23        0.000005857350    -0.000002590096     0.000003204478
      24       -0.000012489425     0.000007690037    -0.000004456362
      25       -0.000003236773     0.000005675418     0.000004161265

  **** Optimization is complete! (in 10 steps) ****
    Final optimized geometry and variables:
    Molecular point group: c1

    Geometry (in Angstrom), charge = 0, multiplicity = 1:

    H           -3.605951332048     0.658420778578    -1.235749751522
    C           -2.606238732980     1.077087090994    -1.404898630661
    C           -1.891386163342     1.542937817910    -0.162426660614
    O           -2.162571202156     1.137417654393    -2.505753127548
    C           -1.760845674912     0.422125637992     0.881337977487
    H           -0.925247621891     1.939035951315    -0.452955152646
    H           -2.474647554893     2.360184944200     0.259457324987
    C           -0.793145468018    -0.701753559708     0.467060082292
    H           -1.442726726727     0.853453665782     1.825205600611
    H           -2.750477686068     0.007906690121     1.062732109061
    C            0.646242478777    -0.454114620179     0.931872690824
    H           -0.785516303831    -0.800546307481    -0.615895727155
    H           -1.137514496267    -1.650258016157     0.868950173198
    C            1.615844966138    -1.539463088407     0.457710640066
    H            0.975139843845     0.518341452730     0.574518408362
    H            0.666062953686    -0.404084790198     2.019562580360
    C            3.047300313726    -1.394743975749     0.986903205597
    H            1.635773133924    -1.553147643631    -0.630669962210
    H            1.230388343185    -2.509317473244     0.766180513549
    C            3.787121733423    -0.152685015801     0.486646285932
    H            3.611632250818    -2.277269613697     0.696013356397
    H            3.029923580394    -1.391629986187     2.074977687401
    H            3.808805441194    -0.122361806724    -0.599331915189
    H            3.323083157963     0.764545158707     0.833895910479
    H            4.814651315163    -0.149462414917     0.837126383155

  Mulliken Charges: (a.u.)
   Center  Symbol    Alpha    Beta     Spin     Total
       1     H     0.43201  0.43201  0.00000  0.13599
       2     C     2.83028  2.83028  0.00000  0.33943
       3     C     3.20813  3.20813  0.00000 -0.41627
       4     O     4.23814  4.23814  0.00000 -0.47627
       5     C     3.16976  3.16976  0.00000 -0.33951
       6     H     0.39962  0.39962  0.00000  0.20077
       7     H     0.40796  0.40796  0.00000  0.18408
       8     C     3.15973  3.15973  0.00000 -0.31946
       9     H     0.41134  0.41134  0.00000  0.17732
      10     H     0.41759  0.41759  0.00000  0.16482
      11     C     3.15473  3.15473  0.00000 -0.30946
      12     H     0.41360  0.41360  0.00000  0.17280
      13     H     0.41765  0.41765  0.00000  0.16469
      14     C     3.15357  3.15357  0.00000 -0.30714
      15     H     0.41994  0.41994  0.00000  0.16013
      16     H     0.42393  0.42393  0.00000  0.15214
      17     C     3.15256  3.15256  0.00000 -0.30512
      18     H     0.42106  0.42106  0.00000  0.15789
      19     H     0.42240  0.42240  0.00000  0.15521
      20     C     3.24145  3.24145  0.00000 -0.48290
      21     H     0.42033  0.42033  0.00000  0.15934
      22     H     0.42377  0.42377  0.00000  0.15247
      23     H     0.42068  0.42068  0.00000  0.15864
      24     H     0.42076  0.42076  0.00000  0.15849
      25     H     0.41903  0.41903  0.00000  0.16193

   Total alpha = 36.00000, Total beta = 36.00000, Total charge =  0.00000
