  ==> Input File <==

--------------------------------------------------------------------------
set {
	reference rhf
	basis cc-pvtz
}

set_num_threads( 4 )
memory 2 gb

molecule MOL {
0 1

H	 0.063689	 -0.125907	 -2.364549
O	 -0.393319	 0.695959	 -2.353053
C	 -0.203881	 1.322935	 -1.122345
C	 -0.793473	 0.591216	 0.050087
H	 -0.665578	 2.300097	 -1.201666
H	 0.854181	 1.494719	 -0.933413
C	 -1.534243	 -0.493009	 -0.013340
H	 -0.568003	 1.025853	 1.010036
H	 -1.101195	 -1.466332	 -0.144046
H	 -2.604242	 -0.437780	 0.050785

	symmetry c1
}
set optking {
	frozen_dihedral = ("
		3 4 7 9
	")
}

ee = optimize('scf')
oeprop('DIPOLE', 'QUADRUPOLE', 'MULLIKEN_CHARGES')
f=open( 'psi4out.xyz', 'w' )
f.write( "10  " )
f.write( str(ee) + "\n" )
f.write( MOL.save_string_xyz() )
f.close()
--------------------------------------------------------------------------

    Molecular point group: c1
  Charge       = 0
  Multiplicity = 1
  Basis Set: CC-PVTZ
  Basis Set:
  @DF-RHF Final Energy:  -191.85547110364521
    Total Energy =                       -191.8554711036452716
    Molecular point group: c1
  Basis Set: CC-PVTZ
  Basis Set:
  Basis Set: CC-PVTZ
  Basis Set:
  @DF-RHF Final Energy:  -191.89207686917626
    Total Energy =                       -191.8920768691763499
  Basis Set: CC-PVTZ
  Basis Set:
  Basis Set: CC-PVTZ
  Basis Set:
  @DF-RHF Final Energy:  -191.93044778675136
    Total Energy =                       -191.9304477867513867
  Basis Set: CC-PVTZ
  Basis Set:
  Basis Set: CC-PVTZ
  Basis Set:
  @DF-RHF Final Energy:  -191.94573809060648
    Total Energy =                       -191.9457380906063690
  Basis Set: CC-PVTZ
  Basis Set:
  @DF-RHF Final Energy:  -191.94701977441684
    Total Energy =                       -191.9470197744168729
  @DF-RHF Final Energy:  -191.94750631606158
    Total Energy =                       -191.9475063160615491
  @DF-RHF Final Energy:  -191.94763766663226
    Total Energy =                       -191.9476376666322324
  @DF-RHF Final Energy:  -191.94764789396629
    Total Energy =                       -191.9476478939664332
  @DF-RHF Final Energy:  -191.94765290549532
    Total Energy =                       -191.9476529054953744
  @DF-RHF Final Energy:  -191.94764911634485
    Total Energy =                       -191.9476491163447918
  @DF-RHF Final Energy:  -191.89607787418828
    Total Energy =                       -191.8960778741881938
  @DF-RHF Final Energy:  -191.86422610957965
    Total Energy =                       -191.8642261095796755
  @DF-RHF Final Energy:  -191.91870416461137
    Total Energy =                       -191.9187041646113983
  @DF-RHF Final Energy:  -191.90035545866618
    Total Energy =                       -191.9003554586662972
  @DF-RHF Final Energy:  -191.94258783511901
    Total Energy =                       -191.9425878351190988
  @DF-RHF Final Energy:  -191.94735479596591
    Total Energy =                       -191.9473547959660209
  @DF-RHF Final Energy:  -191.94748846399946
    Total Energy =                       -191.9474884639996048
  @DF-RHF Final Energy:  -191.94764741903836
    Total Energy =                       -191.9476474190383328
  @DF-RHF Final Energy:  -191.94765092656701
    Total Energy =                       -191.9476509265670074
  @DF-RHF Final Energy:  -191.94764973244310
    Total Energy =                       -191.9476497324432103
  @DF-RHF Final Energy:  -191.94611755972136
    Total Energy =                       -191.9461175597213298
  @DF-RHF Final Energy:  -191.94389544434804
    Total Energy =                       -191.9438954443480156
  @DF-RHF Final Energy:  -191.94629348260139
    Total Energy =                       -191.9462934826012770
  @DF-RHF Final Energy:  -191.94646299791071
    Total Energy =                       -191.9464629979107428
  @DF-RHF Final Energy:  -191.94660214134797
    Total Energy =                       -191.9466021413478529
  @DF-RHF Final Energy:  -191.94664917397378
    Total Energy =                       -191.9466491739738672
  @DF-RHF Final Energy:  -191.94665122895373
    Total Energy =                       -191.9466512289536411
  @DF-RHF Final Energy:  -191.94664655704514
    Total Energy =                       -191.9466465570451703
  @DF-RHF Final Energy:  -191.94661137572430
    Total Energy =                       -191.9466113757242169
  @DF-RHF Final Energy:  -191.94662989348731
    Total Energy =                       -191.9466298934872839
  @DF-RHF Final Energy:  -191.94663141366289
    Total Energy =                       -191.9466314136628853
  @DF-RHF Final Energy:  -191.94662816583639
    Total Energy =                       -191.9466281658363869
  @DF-RHF Final Energy:  -191.94662243468639
    Total Energy =                       -191.9466224346863328
  @DF-RHF Final Energy:  -191.94664663726684
    Total Energy =                       -191.9466466372667242
  @DF-RHF Final Energy:  -191.94668329679894
    Total Energy =                       -191.9466832967988523
  @DF-RHF Final Energy:  -191.94682199393145
    Total Energy =                       -191.9468219939313656
  Basis Set: CC-PVTZ
  Basis Set:
  @DF-RHF Final Energy:  -191.94692852236830
    Total Energy =                       -191.9469285223682959
  Basis Set: CC-PVTZ
  Basis Set:
  Basis Set: CC-PVTZ
  Basis Set:
  @DF-RHF Final Energy:  -191.94707124632626
    Total Energy =                       -191.9470712463262601
  Basis Set: CC-PVTZ
  Basis Set:
  Basis Set: CC-PVTZ
  Basis Set:
  @DF-RHF Final Energy:  -191.94711842370754
    Total Energy =                       -191.9471184237075363
  Basis Set: CC-PVTZ
  Basis Set:
  Charge       = 0
  Multiplicity = 1
  Basis Set: CC-PVTZ
  Basis Set:

    Orbital Energies (a.u.)
    -----------------------

    Doubly Occupied:

       1A    -20.552336     2A    -11.285537     3A    -11.242907
       4A    -11.226052     5A     -1.371887     6A     -1.063910
       7A     -0.936793     8A     -0.775842     9A     -0.687029
      10A     -0.651109    11A     -0.618381    12A     -0.574398
      13A     -0.553012    14A     -0.480384    15A     -0.452782
      16A     -0.353644

  @DF-RHF Final Energy:  -191.94712876305260

   => Energetics <=

    Nuclear Repulsion Energy =            117.4446866476607880
    One-Electron Energy =                -493.1316221782035996
    Two-Electron Energy =                 183.7398067674902506
    DFT Exchange-Correlation Energy =       0.0000000000000000
    Empirical Dispersion Energy =           0.0000000000000000
    PCM Polarization Energy =               0.0000000000000000
    EFP Energy =                            0.0000000000000000
    Total Energy =                       -191.9471287630525751
    Molecular point group: c1
  Basis Set: CC-PVTZ
  Basis Set:

  -Total Gradient:
     Atom            X                  Y                   Z
    ------   -----------------  -----------------  -----------------
       1       -0.001002071525    -0.000240994044    -0.000754382110
       2        0.002039496586    -0.001758253397     0.000135427783
       3       -0.024047678948     0.023025821447     0.005854967436
       4        0.038486689721    -0.046121514949     0.004680168684
       5       -0.000280467069    -0.000087937396     0.000335602416
       6        0.003297761915     0.002795233474     0.001768930211
       7       -0.033768061202     0.032558965512    -0.048064832562
       8        0.001809544414    -0.001274759118     0.000861814512
       9        0.013352954990    -0.012318311555     0.035922558633
      10        0.000111831119     0.003421750028    -0.000740255007

    Molecular point group: c1

    Geometry (in Angstrom), charge = 0, multiplicity = 1:

    H            1.092663946766    -0.573008020322    -1.373349504412
    O            0.569058415495     0.200770226129    -1.426094689286
    C            0.461781330027     0.795504478849    -0.176491948964
    C           -0.083795346773    -0.088453953713     0.919801465269
    H           -0.254900675760     1.598613752166    -0.280468266562
    H            1.405933897040     1.244606515321     0.123143515701
    C           -1.095558063116    -0.963154879195     0.927779926105
    H           -0.053758487786     0.513832628524     1.817764327426
    H           -1.093614965730    -1.979378846819     0.556777101742
    H           -1.583685900828    -0.941644543983     1.891914730575

  Mulliken Charges: (a.u.)
   Center  Symbol    Alpha    Beta     Spin     Total
       1     H     0.39257  0.39257  0.00000  0.21487
       2     O     4.19772  4.19772  0.00000 -0.39544
       3     C     2.95497  2.95497  0.00000  0.09006
       4     C     3.08455  3.08455  0.00000 -0.16910
       5     H     0.44598  0.44598  0.00000  0.10804
       6     H     0.46652  0.46652  0.00000  0.06695
       7     C     3.15573  3.15573  0.00000 -0.31146
       8     H     0.43685  0.43685  0.00000  0.12630
       9     H     0.42720  0.42720  0.00000  0.14559
      10     H     0.43791  0.43791  0.00000  0.12419

   Total alpha = 16.00000, Total beta = 16.00000, Total charge =  0.00000
