  ==> Input File <==

--------------------------------------------------------------------------
set {
	reference rhf
	basis cc-pvtz
}

set_num_threads( 4 )
memory 2 gb

molecule MOL {
0 1

H	 -3.144994	 -1.202467	 -0.018751
O	 -2.321472	 -0.864941	 -0.318626
C	 -2.021813	 0.336996	 0.342658
C	 -0.669613	 0.837286	 -0.127252
H	 -2.780861	 1.084746	 0.127159
H	 -2.006390	 0.184138	 1.420053
C	 0.490865	 -0.082543	 0.241244
H	 -0.708709	 0.967192	 -1.204587
H	 -0.507562	 1.822272	 0.303070
C	 1.839800	 0.429565	 -0.255472
H	 0.305636	 -1.070211	 -0.165276
H	 0.527397	 -0.195943	 1.322876
C	 2.680439	 -0.652735	 -0.924604
H	 1.677251	 1.243199	 -0.957099
H	 2.395458	 0.852864	 0.577446
H	 2.166117	 -1.071218	 -1.783243
H	 3.629966	 -0.257778	 -1.267695
H	 2.889692	 -1.466407	 -0.237875

	symmetry c1
}
set optking {
	frozen_dihedral = ("
		14 10 7 11
	")
}

ee = optimize('scf')
oeprop('DIPOLE', 'QUADRUPOLE', 'MULLIKEN_CHARGES')
f=open( 'psi4out.xyz', 'w' )
f.write( "18  " )
f.write( str(ee) + "\n" )
f.write( MOL.save_string_xyz() )
f.close()
--------------------------------------------------------------------------

    Molecular point group: c1
  Charge       = 0
  Multiplicity = 1
  Basis Set: CC-PVTZ
  Basis Set:
  @DF-RHF Final Energy:  -271.28177543237342
    Total Energy =                       -271.2817754323733652
    Molecular point group: c1
  Basis Set: CC-PVTZ
  Basis Set:
  Basis Set: CC-PVTZ
  Basis Set:
  @DF-RHF Final Energy:  -271.28206055193857
    Total Energy =                       -271.2820605519385140
  Basis Set: CC-PVTZ
  Basis Set:
  Basis Set: CC-PVTZ
  Basis Set:
  @DF-RHF Final Energy:  -271.28212048902299
    Total Energy =                       -271.2821204890233275
  Basis Set: CC-PVTZ
  Basis Set:
  Charge       = 0
  Multiplicity = 1
  Basis Set: CC-PVTZ
  Basis Set:

    Orbital Energies (a.u.)
    -----------------------

    Doubly Occupied:

       1A    -20.546263     2A    -11.265865     3A    -11.211119
       4A    -11.208842     5A    -11.204706     6A    -11.202577
       7A     -1.364153     8A     -1.074371     9A     -1.009701
      10A     -0.913980    11A     -0.820341    12A     -0.784707
      13A     -0.707597    14A     -0.642684    15A     -0.621627
      16A     -0.582668    17A     -0.573499    18A     -0.564237
      19A     -0.515980    20A     -0.503220    21A     -0.497313
      22A     -0.466960    23A     -0.451809    24A     -0.448630
      25A     -0.431583

  @DF-RHF Final Energy:  -271.28212139386000

   => Energetics <=

    Nuclear Repulsion Energy =            249.5608459658379275
    One-Electron Energy =                -862.4570734204748987
    Two-Electron Energy =                 341.6141060607768054
    DFT Exchange-Correlation Energy =       0.0000000000000000
    Empirical Dispersion Energy =           0.0000000000000000
    PCM Polarization Energy =               0.0000000000000000
    EFP Energy =                            0.0000000000000000
    Total Energy =                       -271.2821213938602227
    Molecular point group: c1
  Basis Set: CC-PVTZ
  Basis Set:

  -Total Gradient:
     Atom            X                  Y                   Z
    ------   -----------------  -----------------  -----------------
       1        0.000002628355     0.000002639934     0.000004036091
       2       -0.000021320738     0.000026279468    -0.000002569229
       3        0.000016931351    -0.000014720673     0.000040719438
       4       -0.000015474019     0.000025360264    -0.000024802205
       5       -0.000025778079    -0.000023170682    -0.000006177702
       6       -0.000017344509    -0.000005189638    -0.000005776330
       7       -0.001746148438     0.002156207514    -0.002613369398
       8        0.000024121438    -0.000000364311    -0.000004621073
       9        0.000010629631    -0.000021999997    -0.000002309821
      10        0.000274235656    -0.002910318794    -0.002440167527
      11        0.001423126530    -0.001335192618     0.002608368095
      12       -0.000007385875     0.000017211215    -0.000017277247
      13        0.000035093743    -0.000031540061    -0.000011920655
      14        0.000066787458     0.002091027805     0.002475324586
      15        0.000002466073    -0.000023006881    -0.000017130582
      16       -0.000013766747     0.000016516101     0.000012689788
      17        0.000005973389     0.000017056083     0.000004464717
      18       -0.000014775220     0.000013205271     0.000000519053

  **** Optimization is complete! (in 4 steps) ****
    Final optimized geometry and variables:
    Molecular point group: c1

    Geometry (in Angstrom), charge = 0, multiplicity = 1:

    H           -3.114249820032    -1.157201072233     0.203570430442
    O           -2.293782469555    -0.827593565475    -0.112788393391
    C           -1.971338264717     0.373275531687     0.539503312301
    C           -0.625309246277     0.861782083285     0.041145830569
    H           -2.728749385765     1.126579139232     0.337804619610
    H           -1.935029631119     0.222652835614     1.616665076175
    C            0.534791247334    -0.069357918436     0.379724511174
    H           -0.684761113949     0.996331046513    -1.034689187904
    H           -0.443061468231     1.843436728053     0.471382572162
    C            1.902665266421     0.452813447372    -0.098121995307
    H            0.347164219526    -1.052342953063    -0.034167441047
    H            0.563581492738    -0.214186760192     1.456747571695
    C            2.779367874357    -0.619401805791    -0.734932477424
    H            1.759932601305     1.273792532762    -0.794384330316
    H            2.433961640008     0.888448729434     0.742795006216
    H            2.305024212719    -1.036592503726    -1.616751826026
    H            3.741580223021    -0.217369591939    -1.032033991965
    H            2.960602181725    -1.435285215414    -0.042872527452

  Mulliken Charges: (a.u.)
   Center  Symbol    Alpha    Beta     Spin     Total
       1     H     0.39578  0.39578  0.00000  0.20844
       2     O     4.19825  4.19825  0.00000 -0.39650
       3     C     2.97402  2.97402  0.00000  0.05196
       4     C     3.09183  3.09183  0.00000 -0.18365
       5     H     0.46559  0.46559  0.00000  0.06881
       6     H     0.47384  0.47384  0.00000  0.05231
       7     C     3.09131  3.09131  0.00000 -0.18261
       8     H     0.45182  0.45182  0.00000  0.09636
       9     H     0.45296  0.45296  0.00000  0.09407
      10     C     3.08633  3.08633  0.00000 -0.17266
      11     H     0.44452  0.44452  0.00000  0.11095
      12     H     0.45714  0.45714  0.00000  0.08573
      13     C     3.14721  3.14721  0.00000 -0.29442
      14     H     0.45583  0.45583  0.00000  0.08834
      15     H     0.45368  0.45368  0.00000  0.09264
      16     H     0.45403  0.45403  0.00000  0.09194
      17     H     0.45100  0.45100  0.00000  0.09801
      18     H     0.45486  0.45486  0.00000  0.09028

   Total alpha = 25.00000, Total beta = 25.00000, Total charge = -0.00000
