  ==> Input File <==

--------------------------------------------------------------------------
set {
	reference rhf
	basis 6-31G*
}

set_num_threads( 4 )
memory 2 gb

molecule MOL {
0 1

H	 -2.606182	 -3.209700	 -0.740418
O	 -2.541631	 -2.267797	 -0.672919
C	 -1.244910	 -1.911071	 -0.268133
C	 -1.177863	 -0.397191	 -0.171080
H	 -1.008387	 -2.357468	 0.696799
H	 -0.507304	 -2.271764	 -0.983798
C	 0.198102	 0.111031	 0.262842
H	 -1.938008	 -0.065638	 0.531046
H	 -1.443665	 0.019530	 -1.138639
C	 1.331804	 -0.827780	 -0.158768
H	 0.361943	 1.100838	 -0.156218
H	 0.217265	 0.229072	 1.345532
C	 2.723619	 -0.410569	 0.329459
H	 1.342964	 -0.912588	 -1.244120
H	 1.116806	 -1.824343	 0.220779
C	 3.243875	 0.895854	 -0.272975
H	 3.424222	 -1.207124	 0.091250
H	 2.714788	 -0.329854	 1.414619
H	 3.251977	 0.848779	 -1.358681
H	 2.637085	 1.747371	 0.016682
H	 4.259473	 1.094070	 0.055697

	symmetry c1
}
set optking {
	frozen_dihedral = ("
		8 4 7 10
	")
}

ee = optimize('scf')
oeprop('DIPOLE', 'QUADRUPOLE', 'MULLIKEN_CHARGES')
f=open( 'psi4out.xyz', 'w' )
f.write( "21  " )
f.write( str(ee) + "\n" )
f.write( MOL.save_string_xyz() )
f.close()
--------------------------------------------------------------------------

    Molecular point group: c1
  Charge       = 0
  Multiplicity = 1
  Basis Set: 6-31G*
  Basis Set:
  @DF-RHF Final Energy:  -310.20337775592009
    Total Energy =                       -310.2033777559200871
    Molecular point group: c1
  Basis Set: 6-31G*
  Basis Set:
  Basis Set: 6-31G*
  Basis Set:
  @DF-RHF Final Energy:  -310.20402243303647
    Total Energy =                       -310.2040224330365845
  Basis Set: 6-31G*
  Basis Set:
  Basis Set: 6-31G*
  Basis Set:
  @DF-RHF Final Energy:  -310.20635790038801
    Total Energy =                       -310.2063579003881841
  Basis Set: 6-31G*
  Basis Set:
  Basis Set: 6-31G*
  Basis Set:
  @DF-RHF Final Energy:  -310.20667432089698
    Total Energy =                       -310.2066743208970365
  Basis Set: 6-31G*
  Basis Set:
  @DF-RHF Final Energy:  -310.20668819256656
    Total Energy =                       -310.2066881925665029
  @DF-RHF Final Energy:  -310.20670484382828
    Total Energy =                       -310.2067048438282768
  Basis Set: 6-31G*
  Basis Set:
  @DF-RHF Final Energy:  -310.20670357709417
    Total Energy =                       -310.2067035770942312
  Basis Set: 6-31G*
  Basis Set:
  Basis Set: 6-31G*
  Basis Set:
  @DF-RHF Final Energy:  -310.20670504378757
    Total Energy =                       -310.2067050437875650
  Basis Set: 6-31G*
  Basis Set:
  Basis Set: 6-31G*
  Basis Set:
  @DF-RHF Final Energy:  -310.20670947990482
    Total Energy =                       -310.2067094799046458
  Basis Set: 6-31G*
  Basis Set:
  Charge       = 0
  Multiplicity = 1
  Basis Set: 6-31G*
  Basis Set:

    Orbital Energies (a.u.)
    -----------------------

    Doubly Occupied:

       1A    -20.551201     2A    -11.266093     3A    -11.216968
       4A    -11.216297     5A    -11.215655     6A    -11.210911
       7A    -11.208946     8A     -1.357985     9A     -1.085730
      10A     -1.030637    11A     -0.950822    12A     -0.886063
      13A     -0.814153    14A     -0.765603    15A     -0.695097
      16A     -0.656740    17A     -0.625245    18A     -0.609100
      19A     -0.579369    20A     -0.571680    21A     -0.536720
      22A     -0.529110    23A     -0.513392    24A     -0.484935
      25A     -0.482760    26A     -0.459956    27A     -0.451441
      28A     -0.442409    29A     -0.431154

  @DF-RHF Final Energy:  -310.20671071928615

   => Energetics <=

    Nuclear Repulsion Energy =            316.6473182861298596
    One-Electron Energy =               -1048.0157202150317062
    Two-Electron Energy =                 421.1616912096155829
    DFT Exchange-Correlation Energy =       0.0000000000000000
    Empirical Dispersion Energy =           0.0000000000000000
    PCM Polarization Energy =               0.0000000000000000
    EFP Energy =                            0.0000000000000000
    Total Energy =                       -310.2067107192863205
    Molecular point group: c1
  Basis Set: 6-31G*
  Basis Set:

  -Total Gradient:
     Atom            X                  Y                   Z
    ------   -----------------  -----------------  -----------------
       1       -0.000017773700    -0.000006022992     0.000000505618
       2       -0.000010842578    -0.000026670659     0.000007793099
       3       -0.000002836929     0.000034834103    -0.000045431220
       4       -0.001044172194     0.005301953607    -0.002036617459
       5        0.000004712405     0.000010726369    -0.000005224850
       6       -0.000010705182    -0.000006405818     0.000004992613
       7        0.000871065691     0.002274362541    -0.004724429564
       8        0.000666702972    -0.005172882772     0.003024473201
       9       -0.000001715072    -0.000024343148    -0.000000224386
      10       -0.000485986763    -0.002388282677     0.003737346938
      11        0.000011461154    -0.000004584163     0.000013781086
      12        0.000000687329    -0.000003455959    -0.000006428509
      13        0.000007272626    -0.000000078817     0.000027244517
      14       -0.000008122441    -0.000008809790     0.000000090078
      15       -0.000007624866     0.000004461228     0.000001981297
      16        0.000010083834    -0.000004536020    -0.000017736614
      17        0.000004970407     0.000014134039     0.000013425341
      18        0.000006574713     0.000002856227     0.000008722579
      19        0.000000285604     0.000007042257    -0.000003224485
      20        0.000008274442    -0.000006319373     0.000004283419
      21       -0.000002311449     0.000002021817    -0.000005322699

  **** Optimization is complete! (in 10 steps) ****
    Final optimized geometry and variables:
    Molecular point group: c1

    Geometry (in Angstrom), charge = 0, multiplicity = 1:

    H           -3.145409326703    -2.383857814986    -0.589359537870
    O           -2.996336572220    -1.454869143782    -0.486017423039
    C           -1.646556437828    -1.226609227679    -0.166894272511
    C           -1.460697854035     0.280281453943    -0.049383030573
    H           -1.391285534269    -1.712621514510     0.774020033541
    H           -1.001672328442    -1.642389221858    -0.936707273810
    C           -0.067437858479     0.741494335759     0.426768537457
    H           -2.205500746534     0.603789397144     0.670491446701
    H           -1.711375585803     0.723890049967    -1.007385099261
    C            1.117321777197    -0.143572660993     0.018978372521
    H            0.090609224036     1.757376884200     0.080956070092
    H           -0.072774704767     0.794968354998     1.514015382832
    C            2.475633983866     0.374688397135     0.508330226002
    H            1.149314103509    -0.250527687109    -1.064592857816
    H            0.973595443227    -1.142521383461     0.420588950287
    C            2.941506951875     1.671424240089    -0.156448733159
    H            3.221910488406    -0.394890299980     0.326785144695
    H            2.440083961642     0.513019652168     1.587138027637
    H            2.978730331630     1.563617969232    -1.237138207524
    H            2.286176000476     2.505443866563     0.070514366156
    H            3.937421957256     1.940229925794     0.182074802476

  Mulliken Charges: (a.u.)
   Center  Symbol    Alpha    Beta     Spin     Total
       1     H     0.28133  0.28133  0.00000  0.43735
       2     O     4.37288  4.37288  0.00000 -0.74576
       3     C     2.99476  2.99476  0.00000  0.01049
       4     C     3.15996  3.15996  0.00000 -0.31992
       5     H     0.43306  0.43306  0.00000  0.13387
       6     H     0.43012  0.43012  0.00000  0.13976
       7     C     3.16146  3.16146  0.00000 -0.32292
       8     H     0.41165  0.41165  0.00000  0.17670
       9     H     0.41421  0.41421  0.00000  0.17157
      10     C     3.15880  3.15880  0.00000 -0.31759
      11     H     0.41640  0.41640  0.00000  0.16719
      12     H     0.42259  0.42259  0.00000  0.15483
      13     C     3.15218  3.15218  0.00000 -0.30435
      14     H     0.42340  0.42340  0.00000  0.15321
      15     H     0.42157  0.42157  0.00000  0.15687
      16     C     3.24118  3.24118  0.00000 -0.48235
      17     H     0.42088  0.42088  0.00000  0.15823
      18     H     0.42300  0.42300  0.00000  0.15400
      19     H     0.42194  0.42194  0.00000  0.15611
      20     H     0.41964  0.41964  0.00000  0.16072
      21     H     0.41899  0.41899  0.00000  0.16201

   Total alpha = 29.00000, Total beta = 29.00000, Total charge = -0.00000
