  ==> Input File <==

--------------------------------------------------------------------------
set {
	reference rhf
	basis 6-31G*
}

set_num_threads( 1 )
memory 2 gb

molecule MOL {
0 1

H	 -2.441017	 -3.051206	 -1.449789
O	 -2.442909	 -2.172793	 -1.097239
C	 -1.137067	 -1.808257	 -0.730522
C	 -1.177863	 -0.397191	 -0.171080
H	 -0.743503	 -2.494875	 0.017789
H	 -0.471794	 -1.848630	 -1.591986
C	 0.198102	 0.111031	 0.262842
H	 -1.864860	 -0.382899	 0.670679
H	 -1.598363	 0.258768	 -0.928295
C	 1.331804	 -0.827780	 -0.158768
H	 0.361943	 1.100838	 -0.156218
H	 0.217265	 0.229072	 1.345532
C	 2.723619	 -0.410569	 0.329459
H	 1.342964	 -0.912588	 -1.244120
H	 1.116806	 -1.824343	 0.220779
C	 3.243875	 0.895854	 -0.272975
H	 3.424222	 -1.207124	 0.091250
H	 2.714788	 -0.329854	 1.414619
H	 3.251977	 0.848779	 -1.358681
H	 2.637085	 1.747371	 0.016682
H	 4.259473	 1.094070	 0.055697

	symmetry c1
}
set optking {
	frozen_dihedral = ("
		2 3 4 8,
		4 7 10 14,
		16 13 10 14,
		1 2 3 5
	")
}

ee = energy('scf')
oeprop('DIPOLE', 'QUADRUPOLE', 'MULLIKEN_CHARGES')
f=open( 'psi4out.xyz', 'w' )
f.write( "21  " )
f.write( str(ee) + "\n" )
f.write( MOL.save_string_xyz() )
f.close()
--------------------------------------------------------------------------

    Molecular point group: c1

    Geometry (in Angstrom), charge = 0, multiplicity = 1:

       Center              X                  Y                   Z               Mass
    ------------   -----------------  -----------------  -----------------  -----------------
           H         -2.787897277516    -2.357581098778    -1.162225709986     1.007825032070
           O         -2.789789277516    -1.479168098778    -0.809675709986    15.994914619560
           C         -1.483947277516    -1.114632098778    -0.442958709986    12.000000000000
           C         -1.524743277516     0.296433901222     0.116483290014    12.000000000000
           H         -1.090383277516    -1.801250098778     0.305352290014     1.007825032070
           H         -0.818674277516    -1.155005098778    -1.304422709986     1.007825032070
           C         -0.148778277516     0.804655901222     0.550405290014    12.000000000000
           H         -2.211740277516     0.310725901222     0.958242290014     1.007825032070
           H         -1.945243277516     0.952392901222    -0.640731709986     1.007825032070
           C          0.984923722484    -0.134155098778     0.128795290014    12.000000000000
           H          0.015062722484     1.794462901222     0.131345290014     1.007825032070
           H         -0.129615277516     0.922696901222     1.633095290014     1.007825032070
           C          2.376738722484     0.283055901222     0.617022290014    12.000000000000
           H          0.996083722484    -0.218963098778    -0.956556709986     1.007825032070
           H          0.769925722484    -1.130718098778     0.508342290014     1.007825032070
           C          2.896994722484     1.589478901222     0.014588290014    12.000000000000
           H          3.077341722484    -0.513499098778     0.378813290014     1.007825032070
           H          2.367907722484     0.363770901222     1.702182290014     1.007825032070
           H          2.905096722484     1.542403901222    -1.071117709986     1.007825032070
           H          2.290204722484     2.440995901222     0.304245290014     1.007825032070
           H          3.912592722484     1.787694901222     0.343260290014     1.007825032070

  Charge       = 0
  Multiplicity = 1
  Basis Set: 6-31G*
  Basis Set:

    Orbital Energies (a.u.)
    -----------------------

    Doubly Occupied:

       1A    -20.549821     2A    -11.264759     3A    -11.216242
       4A    -11.215145     5A    -11.214146     6A    -11.209161
       7A    -11.208841     8A     -1.356919     9A     -1.090928
      10A     -1.032014    11A     -0.946460    12A     -0.890238
      13A     -0.818170    14A     -0.759092    15A     -0.696407
      16A     -0.663468    17A     -0.620062    18A     -0.607286
      19A     -0.585890    20A     -0.569900    21A     -0.541680
      22A     -0.527335    23A     -0.512497    24A     -0.489408
      25A     -0.481615    26A     -0.463283    27A     -0.451213
      28A     -0.440218    29A     -0.423411

  @DF-RHF Final Energy:  -310.19817987046690

   => Energetics <=

    Nuclear Repulsion Energy =            320.3062002263021668
    One-Electron Energy =               -1055.3175381263743020
    Two-Electron Energy =                 424.8131580296048355
    DFT Exchange-Correlation Energy =       0.0000000000000000
    Empirical Dispersion Energy =           0.0000000000000000
    PCM Polarization Energy =               0.0000000000000000
    EFP Energy =                            0.0000000000000000
    Total Energy =                       -310.1981798704672997

  Mulliken Charges: (a.u.)
   Center  Symbol    Alpha    Beta     Spin     Total
       1     H     0.28171  0.28171  0.00000  0.43658
       2     O     4.37523  4.37523  0.00000 -0.75045
       3     C     2.99297  2.99297  0.00000  0.01407
       4     C     3.16230  3.16230  0.00000 -0.32460
       5     H     0.43122  0.43122  0.00000  0.13756
       6     H     0.42986  0.42986  0.00000  0.14029
       7     C     3.16069  3.16069  0.00000 -0.32138
       8     H     0.41212  0.41212  0.00000  0.17577
       9     H     0.41269  0.41269  0.00000  0.17463
      10     C     3.16607  3.16607  0.00000 -0.33215
      11     H     0.41647  0.41647  0.00000  0.16706
      12     H     0.42016  0.42016  0.00000  0.15967
      13     C     3.14866  3.14866  0.00000 -0.29733
      14     H     0.42182  0.42182  0.00000  0.15636
      15     H     0.42050  0.42050  0.00000  0.15900
      16     C     3.24149  3.24149  0.00000 -0.48298
      17     H     0.42170  0.42170  0.00000  0.15660
      18     H     0.42327  0.42327  0.00000  0.15347
      19     H     0.42245  0.42245  0.00000  0.15509
      20     H     0.41955  0.41955  0.00000  0.16090
      21     H     0.41908  0.41908  0.00000  0.16184

   Total alpha = 29.00000, Total beta = 29.00000, Total charge =  0.00000
