  ==> Input File <==

--------------------------------------------------------------------------
set {
	reference rhf
	basis 6-31G*
}

set_num_threads( 4 )
memory 2 gb

molecule MOL {
0 1

H	 -2.646374	 -0.642757	 1.268656
C	 -2.083525	 -0.384536	 0.393091
O	 -0.807605	 -0.127164	 0.768327
F	 -2.118945	 -1.383102	 -0.486752
F	 -2.621877	 0.670592	 -0.209486
C	 0.084052	 0.273579	 -0.209957
C	 1.353033	 -0.546803	 -0.018071
Cl	 0.433844	 2.004619	 -0.074457
H	 -0.288836	 0.092657	 -1.202930
F	 2.379795	 0.057340	 -0.577455
F	 1.195663	 -1.715715	 -0.606557
F	 1.622546	 -0.752360	 1.248058

	symmetry c1
}
set optking {
	frozen_dihedral = ("
		10 7 6 9
	")
}

ee = optimize('scf')
oeprop('DIPOLE', 'QUADRUPOLE', 'MULLIKEN_CHARGES')
f=open( 'psi4out.xyz', 'w' )
f.write( "12  " )
f.write( str(ee) + "\n" )
f.write( MOL.save_string_xyz() )
f.close()
--------------------------------------------------------------------------

    Molecular point group: c1
  Charge       = 0
  Multiplicity = 1
  Basis Set: 6-31G*
  Basis Set:
  @DF-RHF Final Energy: -1146.31099947311804
    Total Energy =                      -1146.3109994731184997
    Molecular point group: c1
  Basis Set: 6-31G*
  Basis Set:
  Basis Set: 6-31G*
  Basis Set:
  @DF-RHF Final Energy: -1146.31133478216088
    Total Energy =                      -1146.3113347821608841
  Basis Set: 6-31G*
  Basis Set:
  Basis Set: 6-31G*
  Basis Set:
  @DF-RHF Final Energy: -1146.31172460585276
    Total Energy =                      -1146.3117246058532146
  Basis Set: 6-31G*
  Basis Set:
  Basis Set: 6-31G*
  Basis Set:
  @DF-RHF Final Energy: -1146.31174118235936
    Total Energy =                      -1146.3117411823586735
  Basis Set: 6-31G*
  Basis Set:
  @DF-RHF Final Energy: -1146.31174558717021
    Total Energy =                      -1146.3117455871706625
  @DF-RHF Final Energy: -1146.31174753939831
    Total Energy =                      -1146.3117475393978566
  @DF-RHF Final Energy: -1146.29679270726251
    Total Energy =                      -1146.2967927072627390
  @DF-RHF Final Energy: -1146.31124643967837
    Total Energy =                      -1146.3112464396785981
  @DF-RHF Final Energy: -1146.22835838207357
    Total Energy =                      -1146.2283583820731110
  @DF-RHF Final Energy: -1146.29650170473997
    Total Energy =                      -1146.2965017047395122
  @DF-RHF Final Energy: -1146.31107361656677
    Total Energy =                      -1146.3110736165663184
  @DF-RHF Final Energy: -1146.31163410766999
    Total Energy =                      -1146.3116341076699882
  @DF-RHF Final Energy: -1146.31170721423632
    Total Energy =                      -1146.3117072142354118
  @DF-RHF Final Energy: -1146.31174253630502
    Total Energy =                      -1146.3117425363047914
  Basis Set: 6-31G*
  Basis Set:
  @DF-RHF Final Energy: -1146.31174557743930
    Total Energy =                      -1146.3117455774390692
  Basis Set: 6-31G*
  Basis Set:
  Basis Set: 6-31G*
  Basis Set:
  @DF-RHF Final Energy: -1146.31174091076377
    Total Energy =                      -1146.3117409107637741
  Basis Set: 6-31G*
  Basis Set:
  Basis Set: 6-31G*
  Basis Set:
  @DF-RHF Final Energy: -1146.31174653049652
    Total Energy =                      -1146.3117465304958387
  Basis Set: 6-31G*
  Basis Set:
  Charge       = 0
  Multiplicity = 1
  Basis Set: 6-31G*
  Basis Set:

    Orbital Energies (a.u.)
    -----------------------

    Doubly Occupied:

       1A   -104.844832     2A    -26.360759     3A    -26.359255
       4A    -26.354671     5A    -26.345626     6A    -26.345324
       7A    -20.647891     8A    -11.527994     9A    -11.488385
      10A    -11.400622    11A    -10.579527    12A     -8.048901
      13A     -8.045316    14A     -8.045268    15A     -1.760992
      16A     -1.716822    17A     -1.658419    18A     -1.654343
      19A     -1.637575    20A     -1.483854    21A     -1.179759
      22A     -1.051907    23A     -0.985148    24A     -0.918744
      25A     -0.858652    26A     -0.850615    27A     -0.846517
      28A     -0.822699    29A     -0.809893    30A     -0.789940
      31A     -0.726819    32A     -0.723273    33A     -0.705081
      34A     -0.701521    35A     -0.679259    36A     -0.673125
      37A     -0.657637    38A     -0.657074    39A     -0.645644
      40A     -0.632529    41A     -0.596541    42A     -0.579806
      43A     -0.524495    44A     -0.476498    45A     -0.469563

  @DF-RHF Final Energy: -1146.31174719131332

   => Energetics <=

    Nuclear Repulsion Energy =            737.5826170639569455
    One-Electron Energy =               -3058.0504940251012158
    Two-Electron Energy =                1174.1561297698312956
    DFT Exchange-Correlation Energy =       0.0000000000000000
    Empirical Dispersion Energy =           0.0000000000000000
    PCM Polarization Energy =               0.0000000000000000
    EFP Energy =                            0.0000000000000000
    Total Energy =                      -1146.3117471913128611
    Molecular point group: c1
  Basis Set: 6-31G*
  Basis Set:

  -Total Gradient:
     Atom            X                  Y                   Z
    ------   -----------------  -----------------  -----------------
       1       -0.000002118708    -0.000012660429    -0.000000117082
       2       -0.000008375647    -0.000008240624     0.000014824908
       3        0.000020567614    -0.000137053853     0.000008557926
       4        0.000013444139     0.000015075873     0.000017705598
       5       -0.000007133297     0.000022623059    -0.000020762061
       6        0.005053727688     0.007651513155    -0.001713713872
       7       -0.002370979373    -0.005382826453    -0.005772558182
       8       -0.000130028608     0.000014917599     0.000111121046
       9       -0.003659785631    -0.005156008391     0.002549198954
      10        0.001112235415     0.002951682743     0.004765598915
      11       -0.000020626183    -0.000152362627     0.000043154514
      12       -0.000000927418     0.000193339906    -0.000003010662

  **** Optimization is complete! (in 18 steps) ****
    Final optimized geometry and variables:
    Molecular point group: c1

    Geometry (in Angstrom), charge = 0, multiplicity = 1:

    H           -2.636067786533    -0.681412835340     1.251866922799
    C           -2.078647953243    -0.392879928692     0.382279737297
    O           -0.797293535310    -0.164283999988     0.755112620913
    F           -2.132303063711    -1.356471241135    -0.536222238227
    F           -2.614374977282     0.689040706805    -0.173267676363
    C            0.091643920505     0.275239260673    -0.216069535666
    C            1.366001561893    -0.551078942330    -0.028281140287
    CL           0.396355288982     2.006416981517    -0.050669887502
    H           -0.302410996864     0.070565544569    -1.196199374451
    F            2.399295760890     0.010155970969    -0.614536272374
    F            1.179859162305    -1.745936233065    -0.551988598077
    F            1.657356622667    -0.696740714403     1.243469733158

  Mulliken Charges: (a.u.)
   Center  Symbol    Alpha    Beta     Spin     Total
       1     H     0.40138  0.40138  0.00000  0.19723
       2     C     2.56621  2.56621  0.00000  0.86757
       3     O     4.29844  4.29844  0.00000 -0.59687
       4     F     4.68689  4.68689  0.00000 -0.37378
       5     F     4.68411  4.68411  0.00000 -0.36822
       6     C     3.05329  3.05329  0.00000 -0.10658
       7     C     2.43129  2.43129  0.00000  1.13741
       8    CL     8.49521  8.49521  0.00000  0.00958
       9     H     0.36693  0.36693  0.00000  0.26613
      10     F     4.67147  4.67147  0.00000 -0.34294
      11     F     4.67525  4.67525  0.00000 -0.35049
      12     F     4.66952  4.66952  0.00000 -0.33904

   Total alpha = 45.00000, Total beta = 45.00000, Total charge =  0.00000
