  ==> Input File <==

--------------------------------------------------------------------------
set {
	reference rhf
	basis 6-31G*
}

set_num_threads( 4 )
memory 2 gb

molecule MOL {
0 1

O	 3.118491	 -3.180076	 -0.238203
C	 2.643482	 -2.159833	 0.144589
C	 1.194291	 -1.945655	 0.508954
O	 3.347903	 -1.046386	 0.304773
C	 0.344038	 -3.204506	 0.352496
H	 1.174434	 -1.564989	 1.524774
H	 0.819400	 -1.140073	 -0.117297
C	 -1.148302	 -2.978148	 0.617409
H	 0.722156	 -3.977281	 1.015041
H	 0.472179	 -3.585212	 -0.655008
C	 -1.499373	 -2.615554	 2.063225
H	 -1.679874	 -3.888044	 0.348624
H	 -1.521497	 -2.202801	 -0.050102
C	 -3.007106	 -2.508327	 2.300385
H	 -1.082894	 -3.367487	 2.731776
H	 -1.033021	 -1.671763	 2.336623
C	 -3.369559	 -2.141293	 3.740540
H	 -3.480150	 -3.454094	 2.041565
H	 -3.425898	 -1.764215	 1.624657
C	 -4.877149	 -2.039982	 3.969903
H	 -2.950983	 -2.883303	 4.417192
H	 -2.901188	 -1.194051	 3.999659
H	 -5.102152	 -1.778585	 4.999297
H	 -5.370954	 -2.982946	 3.752715
H	 -5.320763	 -1.281096	 3.331488
C	 4.728119	 -1.109107	 -0.004993
H	 4.882018	 -1.033965	 -1.071845
H	 5.068212	 -2.067527	 0.355250
H	 5.265056	 -0.311663	 0.488280

	symmetry c1
}
set optking {
	frozen_dihedral = ("
		2 4 26 27
	")
}

ee = optimize('scf')
oeprop('DIPOLE', 'QUADRUPOLE', 'MULLIKEN_CHARGES')
f=open( 'psi4out.xyz', 'w' )
f.write( "29  " )
f.write( str(ee) + "\n" )
f.write( MOL.save_string_xyz() )
f.close()
--------------------------------------------------------------------------

    Molecular point group: c1
  Charge       = 0
  Multiplicity = 1
  Basis Set: 6-31G*
  Basis Set:
  @DF-RHF Final Energy:  -501.04172192085036
    Total Energy =                       -501.0417219208507049
    Molecular point group: c1
  Basis Set: 6-31G*
  Basis Set:
  Basis Set: 6-31G*
  Basis Set:
  @DF-RHF Final Energy:  -501.04309176727213
    Total Energy =                       -501.0430917672720170
  Basis Set: 6-31G*
  Basis Set:
  Basis Set: 6-31G*
  Basis Set:
  @DF-RHF Final Energy:  -501.04353664409507
    Total Energy =                       -501.0435366440946154
  Basis Set: 6-31G*
  Basis Set:
  Basis Set: 6-31G*
  Basis Set:
  @DF-RHF Final Energy:  -501.04276952745613
    Total Energy =                       -501.0427695274566986
  Basis Set: 6-31G*
  Basis Set:
  Basis Set: 6-31G*
  Basis Set:
  @DF-RHF Final Energy:  -501.04355608101878
    Total Energy =                       -501.0435560810186644
  Basis Set: 6-31G*
  Basis Set:
  Basis Set: 6-31G*
  Basis Set:
  @DF-RHF Final Energy:  -501.04355788368491
    Total Energy =                       -501.0435578836854802
  Basis Set: 6-31G*
  Basis Set:
  Charge       = 0
  Multiplicity = 1
  Basis Set: 6-31G*
  Basis Set:

    Orbital Energies (a.u.)
    -----------------------

    Doubly Occupied:

       1A    -20.603134     2A    -20.544962     3A    -11.372320
       4A    -11.280376     5A    -11.234551     6A    -11.218946
       7A    -11.217545     8A    -11.215950     9A    -11.215825
      10A    -11.214418    11A    -11.209050    12A     -1.468299
      13A     -1.362636    14A     -1.097987    15A     -1.066728
      16A     -1.019524    17A     -0.977447    18A     -0.928576
      19A     -0.861542    20A     -0.799167    21A     -0.790418
      22A     -0.763485    23A     -0.700899    24A     -0.681850
      25A     -0.672079    26A     -0.650812    27A     -0.628855
      28A     -0.604685    29A     -0.595223    30A     -0.580721
      31A     -0.567191    32A     -0.549517    33A     -0.532805
      34A     -0.528891    35A     -0.515974    36A     -0.511779
      37A     -0.496371    38A     -0.477776    39A     -0.470059
      40A     -0.462374    41A     -0.458880    42A     -0.454696
      43A     -0.441273    44A     -0.435166

  @DF-RHF Final Energy:  -501.04355804858119

   => Energetics <=

    Nuclear Repulsion Energy =            610.1007995251400189
    One-Electron Energy =               -1891.3271891102585869
    Two-Electron Energy =                 780.1828315365371509
    DFT Exchange-Correlation Energy =       0.0000000000000000
    Empirical Dispersion Energy =           0.0000000000000000
    PCM Polarization Energy =               0.0000000000000000
    EFP Energy =                            0.0000000000000000
    Total Energy =                       -501.0435580485814171
    Molecular point group: c1
  Basis Set: 6-31G*
  Basis Set:

  -Total Gradient:
     Atom            X                  Y                   Z
    ------   -----------------  -----------------  -----------------
       1       -0.000009473713    -0.000007920660    -0.000007865799
       2        0.000239596848    -0.000335203735     0.001244011910
       3       -0.000009486081    -0.000010651736     0.000032515675
       4       -0.000282553326     0.000871681551    -0.001750969862
       5       -0.000002577619     0.000013559298    -0.000038837112
       6       -0.000016040543     0.000011545905     0.000011244356
       7        0.000000389804    -0.000007272625    -0.000009339855
       8       -0.000007386750    -0.000026541654     0.000003714789
       9       -0.000002348166    -0.000010183824    -0.000008668167
      10        0.000007031632     0.000015408835     0.000000536527
      11        0.000011994881     0.000004292910    -0.000001867949
      12       -0.000001277905    -0.000004180701     0.000015462060
      13       -0.000009976026    -0.000015126463    -0.000007960462
      14       -0.000000482369     0.000011216221    -0.000000465581
      15       -0.000009197692    -0.000000522505    -0.000006796679
      16        0.000031986031     0.000010622976     0.000003130054
      17       -0.000000208078     0.000002132816    -0.000000419343
      18        0.000003985389    -0.000000797375     0.000001511427
      19       -0.000003880723    -0.000000707231    -0.000001375401
      20        0.000000077436     0.000002274826    -0.000000374692
      21       -0.000000444459    -0.000000872215    -0.000000841428
      22        0.000000367351    -0.000000729855     0.000001079800
      23       -0.000000132388     0.000000580034    -0.000000077485
      24        0.000000558814    -0.000000104460     0.000000386491
      25       -0.000000581834    -0.000000198438    -0.000000301862
      26        0.000003296204    -0.002012502594     0.000412015255
      27        0.000065892010     0.001501162176     0.000114042778
      28       -0.000008978865    -0.000008397263     0.000004123098
      29       -0.000000149868    -0.000002564219    -0.000007612535

  **** Optimization is complete! (in 7 steps) ****
    Final optimized geometry and variables:
    Molecular point group: c1

    Geometry (in Angstrom), charge = 0, multiplicity = 1:

    O            2.933399052324    -0.936438376367    -1.492912635735
    C            2.463922086427     0.085000701623    -1.106763959685
    C            1.016007314447     0.302601247369    -0.738803081824
    O            3.168985626431     1.198365318701    -0.946111616417
    C            0.160783316862    -0.952290272873    -0.899717103507
    H            0.999118316248     0.678844046695     0.278686436357
    H            0.643133931622     1.112343441721    -1.360885668139
    C           -1.329972659651    -0.721825431041    -0.629496918258
    H            0.537794020223    -1.729963924401    -0.242305239489
    H            0.284821167305    -1.328099024441    -1.909565308026
    C           -1.675028311797    -0.360150465518     0.818005371996
    H           -1.865258715734    -1.629704125925    -0.897743689703
    H           -1.703043465086     0.055617194531    -1.294634991171
    C           -3.181525174563    -0.246213543458     1.059871958812
    H           -1.260117349433    -1.115232517047     1.483973227104
    H           -1.203383927290     0.580932908734     1.091662246752
    C           -3.537925556026     0.120675208929     2.501568078011
    H           -3.659747604378    -1.189432915187     0.801285931068
    H           -3.598878457594     0.500695327800     0.386348676141
    C           -5.044303264903     0.229578180553     2.735405172048
    H           -3.121314829522    -0.624467713756     3.175986061276
    H           -3.063853777563     1.065084300242     2.760659521045
    H           -5.264966924911     0.490926205012     3.765754668581
    H           -5.543643926297    -0.710536769145     2.518534825023
    H           -5.485787620702     0.991521031887     2.099160945441
    C            4.556204771572     1.143544272600    -1.226364898640
    H            4.722982697388     1.211101339238    -2.293016533573
    H            4.991167766369     0.232686557591    -0.846322977370
    H            4.991448439317     2.002492389302    -0.738743552679

  Mulliken Charges: (a.u.)
   Center  Symbol    Alpha    Beta     Spin     Total
       1     O     4.28583  4.28583  0.00000 -0.57166
       2     C     2.60470  2.60470  0.00000  0.79059
       3     C     3.20983  3.20983  0.00000 -0.41967
       4     O     4.30802  4.30802  0.00000 -0.61603
       5     C     3.15374  3.15374  0.00000 -0.30748
       6     H     0.39893  0.39893  0.00000  0.20213
       7     H     0.40119  0.40119  0.00000  0.19763
       8     C     3.15660  3.15660  0.00000 -0.31319
       9     H     0.41313  0.41313  0.00000  0.17375
      10     H     0.40876  0.40876  0.00000  0.18247
      11     C     3.15510  3.15510  0.00000 -0.31019
      12     H     0.41825  0.41825  0.00000  0.16350
      13     H     0.42387  0.42387  0.00000  0.15227
      14     C     3.15028  3.15028  0.00000 -0.30056
      15     H     0.42264  0.42264  0.00000  0.15473
      16     H     0.42361  0.42361  0.00000  0.15278
      17     C     3.15145  3.15145  0.00000 -0.30290
      18     H     0.42332  0.42332  0.00000  0.15335
      19     H     0.42397  0.42397  0.00000  0.15206
      20     C     3.23935  3.23935  0.00000 -0.47870
      21     H     0.42281  0.42281  0.00000  0.15437
      22     H     0.42344  0.42344  0.00000  0.15311
      23     H     0.41924  0.41924  0.00000  0.16152
      24     H     0.42154  0.42154  0.00000  0.15691
      25     H     0.42183  0.42183  0.00000  0.15635
      26     C     3.09353  3.09353  0.00000 -0.18705
      27     H     0.41246  0.41246  0.00000  0.17508
      28     H     0.40336  0.40336  0.00000  0.19327
      29     H     0.40922  0.40922  0.00000  0.18156

   Total alpha = 44.00000, Total beta = 44.00000, Total charge =  0.00000
