  ==> Input File <==

--------------------------------------------------------------------------
set {
	reference rhf
	basis cc-pvtz
}

set_num_threads( 4 )
memory 2 gb

molecule MOL {
0 1

H	 -2.123894	 -0.667238	 -0.609809
O	 -2.041679	 -0.058866	 0.103463
C	 -0.959304	 0.780994	 -0.094939
C	 0.354905	 0.037902	 -0.006215
H	 -0.985899	 1.279578	 -1.057596
H	 -0.969809	 1.529522	 0.682889
F	 0.192688	 -1.144195	 0.561344
F	 0.848859	 -0.163067	 -1.210050
F	 1.253298	 0.688518	 0.693471

	symmetry c1
}
set optking {
	frozen_dihedral = ("
		7 4 3 5
	")
}

ee = optimize('scf')
oeprop('DIPOLE', 'QUADRUPOLE', 'MULLIKEN_CHARGES')
f=open( 'psi4out.xyz', 'w' )
f.write( "9  " )
f.write( str(ee) + "\n" )
f.write( MOL.save_string_xyz() )
f.close()
--------------------------------------------------------------------------

    Molecular point group: c1
  Charge       = 0
  Multiplicity = 1
  Basis Set: CC-PVTZ
  Basis Set:
  @DF-RHF Final Energy:  -450.83988299137718
    Total Energy =                       -450.8398829913771806
    Molecular point group: c1
  Basis Set: CC-PVTZ
  Basis Set:
  Basis Set: CC-PVTZ
  Basis Set:
  @DF-RHF Final Energy:  -450.84051424214027
    Total Energy =                       -450.8405142421405003
  Basis Set: CC-PVTZ
  Basis Set:
  Basis Set: CC-PVTZ
  Basis Set:
  @DF-RHF Final Energy:  -450.84090178034177
    Total Energy =                       -450.8409017803414827
  Basis Set: CC-PVTZ
  Basis Set:
  Basis Set: CC-PVTZ
  Basis Set:
  @DF-RHF Final Energy:  -450.84092306465647
    Total Energy =                       -450.8409230646562378
  Basis Set: CC-PVTZ
  Basis Set:
  Basis Set: CC-PVTZ
  Basis Set:
  @DF-RHF Final Energy:  -450.84092530372237
    Total Energy =                       -450.8409253037225426
  Basis Set: CC-PVTZ
  Basis Set:
  Charge       = 0
  Multiplicity = 1
  Basis Set: CC-PVTZ
  Basis Set:

    Orbital Energies (a.u.)
    -----------------------

    Doubly Occupied:

       1A    -26.338105     2A    -26.336592     3A    -26.334610
       4A    -20.582557     5A    -11.494249     6A    -11.310248
       7A     -1.746883     8A     -1.644449     9A     -1.639659
      10A     -1.405400    11A     -1.045340    12A     -0.929384
      13A     -0.835647    14A     -0.834410    15A     -0.810407
      16A     -0.732304    17A     -0.719513    18A     -0.702494
      19A     -0.670603    20A     -0.663647    21A     -0.647046
      22A     -0.631338    23A     -0.614303    24A     -0.530843
      25A     -0.484106

  @DF-RHF Final Energy:  -450.84092558270589

   => Energetics <=

    Nuclear Repulsion Energy =            276.6463900575009234
    One-Electron Energy =               -1175.6063627894843648
    Two-Electron Energy =                 448.1190471492773781
    DFT Exchange-Correlation Energy =       0.0000000000000000
    Empirical Dispersion Energy =           0.0000000000000000
    PCM Polarization Energy =               0.0000000000000000
    EFP Energy =                            0.0000000000000000
    Total Energy =                       -450.8409255827061202
    Molecular point group: c1
  Basis Set: CC-PVTZ
  Basis Set:

  -Total Gradient:
     Atom            X                  Y                   Z
    ------   -----------------  -----------------  -----------------
       1        0.000003254257    -0.000017968771     0.000006091990
       2       -0.000014358967     0.000011904596    -0.000007076383
       3        0.001941781459     0.003453524025     0.000922808035
       4        0.000465296062     0.001213684366     0.003802313541
       5       -0.001758421551    -0.003285824510    -0.001611990178
       6        0.000001570506     0.000005733240     0.000005996037
       7       -0.000630760887    -0.001376640701    -0.003150495185
       8       -0.000029942295    -0.000027401371    -0.000025660366
       9        0.000021581416     0.000022989121     0.000058012501

  **** Optimization is complete! (in 6 steps) ****
    Final optimized geometry and variables:
    Molecular point group: c1

    Geometry (in Angstrom), charge = 0, multiplicity = 1:

    H           -2.170112905307    -0.633011730578    -0.631377438137
    O           -2.074616127000    -0.034536552755     0.088123719172
    C           -0.971383209362     0.785201208284    -0.087119525775
    C            0.359389965668     0.031161391678     0.000400764980
    H           -0.995637064294     1.275383021806    -1.052534168663
    H           -0.991480723718     1.525097898436     0.696479508158
    F            0.237385193777    -1.144209081434     0.565863938915
    F            0.862224829636    -0.179837121847    -1.205979565071
    F            1.254113464484     0.722502402057     0.673079057056

  Mulliken Charges: (a.u.)
   Center  Symbol    Alpha    Beta     Spin     Total
       1     H     0.38954  0.38954  0.00000  0.22091
       2     O     4.18530  4.18530  0.00000 -0.37060
       3     C     3.00319  3.00319  0.00000 -0.00638
       4     C     2.68276  2.68276  0.00000  0.63448
       5     H     0.46022  0.46022  0.00000  0.07957
       6     H     0.44715  0.44715  0.00000  0.10570
       7     F     4.60535  4.60535  0.00000 -0.21070
       8     F     4.61602  4.61602  0.00000 -0.23203
       9     F     4.61047  4.61047  0.00000 -0.22094

   Total alpha = 25.00000, Total beta = 25.00000, Total charge = -0.00000
