  ==> Input File <==

--------------------------------------------------------------------------
set {
	reference rhf
	basis cc-pvtz
}

set_num_threads( 4 )
memory 2 gb

molecule MOL {
0 1

H	 -0.192577	 -0.324408	 -2.191714
C	 0.156161	 0.655575	 -1.838367
C	 0.062554	 0.862911	 -0.350953
O	 0.571811	 1.449008	 -2.609634
C	 -1.339253	 0.577611	 0.196911
H	 0.380426	 1.872103	 -0.122954
H	 0.771706	 0.176091	 0.105616
C	 -1.813142	 -0.849710	 -0.061612
H	 -2.032833	 1.276441	 -0.256032
H	 -1.357249	 0.782269	 1.263793
H	 -1.839268	 -1.063526	 -1.124230
H	 -2.810118	 -1.001930	 0.334000
H	 -1.159274	 -1.579980	 0.402282

	symmetry c1
}
set optking {
	frozen_dihedral = ("
		6 3 5 9
	")
}

ee = optimize('scf')
oeprop('DIPOLE', 'QUADRUPOLE', 'MULLIKEN_CHARGES')
f=open( 'psi4out.xyz', 'w' )
f.write( "13  " )
f.write( str(ee) + "\n" )
f.write( MOL.save_string_xyz() )
f.close()
--------------------------------------------------------------------------

    Molecular point group: c1
  Charge       = 0
  Multiplicity = 1
  Basis Set: CC-PVTZ
  Basis Set:
  @DF-RHF Final Energy:  -231.06765500178676
    Total Energy =                       -231.0676550017867328
    Molecular point group: c1
  Basis Set: CC-PVTZ
  Basis Set:
  Basis Set: CC-PVTZ
  Basis Set:
  @DF-RHF Final Energy:  -231.06820299154614
    Total Energy =                       -231.0682029915460589
  Basis Set: CC-PVTZ
  Basis Set:
  Basis Set: CC-PVTZ
  Basis Set:
  @DF-RHF Final Energy:  -231.06875628189161
    Total Energy =                       -231.0687562818916660
  Basis Set: CC-PVTZ
  Basis Set:
  Basis Set: CC-PVTZ
  Basis Set:
  @DF-RHF Final Energy:  -231.06889441809818
    Total Energy =                       -231.0688944180982958
  Basis Set: CC-PVTZ
  Basis Set:
  @DF-RHF Final Energy:  -231.06893003201557
    Total Energy =                       -231.0689300320157145
  Basis Set: CC-PVTZ
  Basis Set:
  @DF-RHF Final Energy:  -231.06898070983229
    Total Energy =                       -231.0689807098322035
  Basis Set: CC-PVTZ
  Basis Set:
  Basis Set: CC-PVTZ
  Basis Set:
  @DF-RHF Final Energy:  -231.06901698638586
    Total Energy =                       -231.0690169863860035
  Basis Set: CC-PVTZ
  Basis Set:
  Basis Set: CC-PVTZ
  Basis Set:
  @DF-RHF Final Energy:  -231.06902921088206
    Total Energy =                       -231.0690292108820358
  Basis Set: CC-PVTZ
  Basis Set:
  Charge       = 0
  Multiplicity = 1
  Basis Set: CC-PVTZ
  Basis Set:

    Orbital Energies (a.u.)
    -----------------------

    Doubly Occupied:

       1A    -20.552179     2A    -11.320692     3A    -11.237303
       4A    -11.234293     5A    -11.223423     6A     -1.406498
       7A     -1.086477     8A     -0.974548     9A     -0.855499
      10A     -0.780693    11A     -0.682886    12A     -0.648844
      13A     -0.607721    14A     -0.603927    15A     -0.571313
      16A     -0.535610    17A     -0.508405    18A     -0.495550
      19A     -0.483532    20A     -0.411076

  @DF-RHF Final Energy:  -231.06902939821092

   => Energetics <=

    Nuclear Repulsion Energy =            173.4162405003573610
    One-Electron Energy =                -656.5296086096866475
    Two-Electron Energy =                 252.0443387111182290
    DFT Exchange-Correlation Energy =       0.0000000000000000
    Empirical Dispersion Energy =           0.0000000000000000
    PCM Polarization Energy =               0.0000000000000000
    EFP Energy =                            0.0000000000000000
    Total Energy =                       -231.0690293982110290
    Molecular point group: c1
  Basis Set: CC-PVTZ
  Basis Set:

  -Total Gradient:
     Atom            X                  Y                   Z
    ------   -----------------  -----------------  -----------------
       1       -0.000002826985    -0.000008828626     0.000008086501
       2       -0.000003302862     0.000018808825     0.000036765428
       3        0.000261509306    -0.000118707778     0.000493263395
       4        0.000002176876     0.000001340854    -0.000012404242
       5       -0.000158688078    -0.000298467611    -0.000489627610
       6       -0.000180148502     0.000134576522    -0.000366056188
       7        0.000002513331    -0.000007565654    -0.000001749203
       8        0.000012936632    -0.000002389732     0.000004146297
       9        0.000064844113     0.000275243025     0.000318654675
      10       -0.000001669042    -0.000005187779     0.000004468717
      11        0.000000921291     0.000007227763     0.000003924450
      12        0.000001633030     0.000007463250     0.000003370763
      13        0.000000100887    -0.000003513055    -0.000002842987

  **** Optimization is complete! (in 9 steps) ****
    Final optimized geometry and variables:
    Molecular point group: c1

    Geometry (in Angstrom), charge = 0, multiplicity = 1:

    H            0.647751664699    -0.906867818129    -1.288040161654
    C            0.719200199980     0.116511375350    -0.903079790754
    C            0.602174081971     0.273227087951     0.589849020175
    O            0.875394143119     1.017083515948    -1.654384871917
    C           -0.820461408879     0.020969442697     1.112265285117
    H            0.913800237719     1.279155266819     0.836866491447
    H            1.289035284995    -0.426633189735     1.059283277806
    C           -1.339925541917    -1.399412060938     0.902606043137
    H           -1.496266005147     0.733043644848     0.650328754890
    H           -0.823369773550     0.244470262484     2.173065566915
    H           -1.449091838925    -1.644258464212    -0.147301838385
    H           -2.312605925732    -1.518002232899     1.364250498107
    H           -0.672413841849    -2.130429954851     1.346693284253

  Mulliken Charges: (a.u.)
   Center  Symbol    Alpha    Beta     Spin     Total
       1     H     0.46187  0.46187  0.00000  0.07626
       2     C     2.90542  2.90542  0.00000  0.18917
       3     C     3.08902  3.08902  0.00000 -0.17805
       4     O     4.16571  4.16571  0.00000 -0.33142
       5     C     3.09609  3.09609  0.00000 -0.19219
       6     H     0.43823  0.43823  0.00000  0.12354
       7     H     0.45103  0.45103  0.00000  0.09794
       8     C     3.15263  3.15263  0.00000 -0.30526
       9     H     0.44512  0.44512  0.00000  0.10977
      10     H     0.44581  0.44581  0.00000  0.10838
      11     H     0.45233  0.45233  0.00000  0.09534
      12     H     0.44338  0.44338  0.00000  0.11324
      13     H     0.45336  0.45336  0.00000  0.09328

   Total alpha = 20.00000, Total beta = 20.00000, Total charge =  0.00000
