                              Psi4 1.0.54 Driver

  ==> Input File <==

--------------------------------------------------------------------------
set {
	reference rhf
	basis cc-pvtz
}

set_num_threads( 4 )
memory 2 gb

molecule MOL {
0 1

H	 -3.941973	 0.934228	 -0.390224
C	 -3.240162	 0.342701	 0.161016
C	 -2.105997	 -0.000418	 -0.398703
H	 -3.485368	 0.047206	 1.162193
O	 -1.189946	 -0.765863	 0.237511
H	 -1.846458	 0.297311	 -1.398265
C	 0.026572	 -0.995256	 -0.379403
C	 1.057223	 0.049888	 -0.004615
H	 -0.054361	 -1.010670	 -1.459674
H	 0.397526	 -1.952058	 -0.044198
F	 1.826380	 0.300631	 -1.045098
F	 0.497004	 1.183251	 0.360283
F	 1.827494	 -0.347883	 0.978705

	symmetry c1
}
set optking {
	frozen_dihedral = ("
		11 8 7 9
	")
}

ee,wfn = optimize('scf', return_wfn=True)
oeprop( wfn, 'DIPOLE', 'QUADRUPOLE', 'MULLIKEN_CHARGES')
f=open( 'psi4out.xyz', 'w' )
f.write( "13  " )
f.write( str(ee) + "\n" )
f.write( MOL.save_string_xyz() )
f.close()
--------------------------------------------------------------------------

    Molecular point group: c1
  Charge       = 0
  Multiplicity = 1
  Basis Set: CC-PVTZ
  Basis Set:
  @DF-RHF Final Energy:  -527.73697256157629
    Total Energy =                       -527.7369725615761809
    Molecular point group: c1
  Basis Set: CC-PVTZ
  Basis Set:
  Basis Set: CC-PVTZ
  Basis Set:
  @DF-RHF Final Energy:  -527.73739093853624
    Total Energy =                       -527.7373909385358957
  Basis Set: CC-PVTZ
  Basis Set:
  Basis Set: CC-PVTZ
  Basis Set:
  @DF-RHF Final Energy:  -527.73750848803115
    Total Energy =                       -527.7375084880311533
  Basis Set: CC-PVTZ
  Basis Set:
  Basis Set: CC-PVTZ
  Basis Set:
  @DF-RHF Final Energy:  -527.73751819822269
    Total Energy =                       -527.7375181982232561
  Basis Set: CC-PVTZ
  Basis Set:
  Basis Set: CC-PVTZ
  Basis Set:
  @DF-RHF Final Energy:  -527.73752162174344
    Total Energy =                       -527.7375216217433262
  Basis Set: CC-PVTZ
  Basis Set:
  Basis Set: CC-PVTZ
  Basis Set:
  @DF-RHF Final Energy:  -527.73752445686193
    Total Energy =                       -527.7375244568620474
  Basis Set: CC-PVTZ
  Basis Set:
  Charge       = 0
  Multiplicity = 1
  Basis Set: CC-PVTZ
  Basis Set:

    Orbital Energies (a.u.)
    -----------------------

    Doubly Occupied:

       1A    -26.340681     2A    -26.339577     3A    -26.339246
       4A    -20.604043     5A    -11.499241     6A    -11.319686
       7A    -11.298522     8A    -11.214028     9A     -1.750699
      10A     -1.646119    11A     -1.645595    12A     -1.444863
      13A     -1.085666    14A     -1.019569    15A     -0.932597
      16A     -0.844526    17A     -0.838102    18A     -0.828294
      19A     -0.795720    20A     -0.732374    21A     -0.722603
      22A     -0.702393    23A     -0.680665    24A     -0.667793
      25A     -0.662246    26A     -0.650400    27A     -0.635282
      28A     -0.587522    29A     -0.564945    30A     -0.530017
      31A     -0.516226    32A     -0.356902

  @DF-RHF Final Energy:  -527.73752508424116

   => Energetics <=

    Nuclear Repulsion Energy =            412.8198554774083959
    One-Electron Energy =               -1549.5224766302653734
    Two-Electron Energy =                 608.9650960686162762
    DFT Exchange-Correlation Energy =       0.0000000000000000
    Empirical Dispersion Energy =           0.0000000000000000
    PCM Polarization Energy =               0.0000000000000000
    EFP Energy =                            0.0000000000000000
    Total Energy =                       -527.7375250842405876
    Molecular point group: c1
  Basis Set: CC-PVTZ
  Basis Set:

  -Total Gradient:
     Atom            X                  Y                   Z
    ------   -----------------  -----------------  -----------------
       1       -0.000017396244    -0.000027812417    -0.000023098999
       2        0.000026630326    -0.000028314291     0.000027062199
       3        0.000009156223     0.000209914720     0.000039130803
       4        0.000001998816     0.000008052761    -0.000016907688
       5        0.000058681415    -0.000080867908    -0.000062739718
       6       -0.000008083859    -0.000052723905    -0.000003253572
       7       -0.004856588434     0.005044544409    -0.000272267449
       8        0.003774162472    -0.004418735747     0.001575720215
       9        0.003390104779    -0.003434243000    -0.000044897557
      10       -0.000007404797    -0.000001853139     0.000008155571
      11       -0.002396095108     0.002898090689    -0.001337225004
      12       -0.000034431126    -0.000071768361     0.000022806462
      13        0.000059265536    -0.000044283815     0.000087514737

  **** Optimization is complete! (in 7 steps) ****
    Final optimized geometry and variables:
    Molecular point group: c1

    Geometry (in Angstrom), charge = 0, multiplicity = 1:

    H           -3.946391701650     0.950830819972    -0.405123025710
    C           -3.275388350600     0.309221504305     0.128186068539
    C           -2.097248606983     0.042732071960    -0.379762729833
    H           -3.585945417303    -0.096138533860     1.071088914540
    O           -1.211580776469    -0.770733636795     0.239861180593
    H           -1.773611976995     0.449033346301    -1.320805139992
    C            0.007200259883    -0.996356853758    -0.367097177217
    C            1.067098191898     0.045601570426    -0.001118172925
    H           -0.054723710833    -1.049549813088    -1.446664013858
    H            0.370173212250    -1.951247846988    -0.017836795547
    F            1.873149943830     0.252679907719    -1.024768507121
    F            0.533164433895     1.203112423205     0.311276962371
    F            1.805620843497    -0.338656821154     1.015457395773

  Mulliken Charges: (a.u.)
   Center  Symbol    Alpha    Beta     Spin     Total
       1     H     0.42539  0.42539  0.00000  0.14922
       2     C     3.19684  3.19684  0.00000 -0.39369
       3     C     2.95569  2.95569  0.00000  0.08861
       4     H     0.42510  0.42510  0.00000  0.14980
       5     O     4.14095  4.14095  0.00000 -0.28190
       6     H     0.43465  0.43465  0.00000  0.13070
       7     C     3.03214  3.03214  0.00000 -0.06429
       8     C     2.67158  2.67158  0.00000  0.65684
       9     H     0.45455  0.45455  0.00000  0.09089
      10     H     0.43692  0.43692  0.00000  0.12616
      11     F     4.61261  4.61261  0.00000 -0.22522
      12     F     4.60559  4.60559  0.00000 -0.21119
      13     F     4.60798  4.60798  0.00000 -0.21596

   Total alpha = 32.00000, Total beta = 32.00000, Total charge =  0.00000

*** Psi4 exiting successfully. Buy a developer a beer!
