                              Psi4 1.0.54 Driver

  ==> Input File <==

--------------------------------------------------------------------------
set {
	reference rhf
	basis cc-pvtz
}

set_num_threads( 4 )
memory 2 gb

molecule MOL {
0 1

O	 2.868453	 1.353349	 -0.000734
C	 2.841259	 0.166180	 -0.000295
C	 1.542794	 -0.614730	 -0.000853
C	 4.113372	 -0.651103	 0.000743
C	 0.288398	 0.247429	 0.000314
H	 1.557171	 -1.273139	 -0.866508
H	 1.557484	 -1.274998	 0.863344
C	 0.572274	 1.695626	 0.389222
H	 -0.437223	 -0.181650	 0.681841
H	 -0.167870	 0.212482	 -0.982403
C	 -0.677586	 2.570927	 0.394521
H	 1.031970	 1.722768	 1.374725
H	 1.302217	 2.118815	 -0.297331
C	 -0.402008	 4.020743	 0.782884
H	 -1.407740	 2.148848	 1.080696
H	 -1.137382	 2.545071	 -0.590389
C	 -1.655701	 4.889095	 0.786002
H	 0.056516	 4.047633	 1.767756
H	 0.326781	 4.443848	 0.096759
H	 -2.391253	 4.511661	 1.488532
H	 -1.425588	 5.910799	 1.065626
H	 -2.118836	 4.911016	 -0.194849
H	 4.145311	 -1.294584	 -0.871587
H	 4.970080	 0.004978	 -0.000091
H	 4.145223	 -1.291980	 0.874988

	symmetry c1
}
set optking {
	frozen_dihedral = ("
		9 5 3 6
	")
}

ee,wfn = optimize('scf', return_wfn=True)
oeprop( wfn, 'DIPOLE', 'QUADRUPOLE', 'MULLIKEN_CHARGES')
f=open( 'psi4out.xyz', 'w' )
f.write( "25  " )
f.write( str(ee) + "\n" )
f.write( MOL.save_string_xyz() )
f.close()
--------------------------------------------------------------------------

    Molecular point group: c1
  Charge       = 0
  Multiplicity = 1
  Basis Set: CC-PVTZ
  Basis Set:
  @DF-RHF Final Energy:  -387.23541488061778
    Total Energy =                       -387.2354148806180092
    Molecular point group: c1
  Basis Set: CC-PVTZ
  Basis Set:
  Basis Set: CC-PVTZ
  Basis Set:
  @DF-RHF Final Energy:  -387.25634677194694
    Total Energy =                       -387.2563467719469372
  Basis Set: CC-PVTZ
  Basis Set:
  Basis Set: CC-PVTZ
  Basis Set:
  @DF-RHF Final Energy:  -387.26052905377492
    Total Energy =                       -387.2605290537750307
  Basis Set: CC-PVTZ
  Basis Set:
  Basis Set: CC-PVTZ
  Basis Set:
  @DF-RHF Final Energy:  -387.25984328799177
    Total Energy =                       -387.2598432879916572
  Basis Set: CC-PVTZ
  Basis Set:
  @DF-RHF Final Energy:  -387.26183627403304
    Total Energy =                       -387.2618362740338398
  @DF-RHF Final Energy:  -387.26289049871332
    Total Energy =                       -387.2628904987132046
  @DF-RHF Final Energy:  -387.26126363195664
    Total Energy =                       -387.2612636319566946
  @DF-RHF Final Energy:  -387.26393277279340
    Total Energy =                       -387.2639327727935097
  @DF-RHF Final Energy:  -387.26274529345471
    Total Energy =                       -387.2627452934547136
  @DF-RHF Final Energy:  -387.26478911297028
    Total Energy =                       -387.2647891129695381
  @DF-RHF Final Energy:  -387.26469229118771
    Total Energy =                       -387.2646922911884531
  @DF-RHF Final Energy:  -387.26506461195618
    Total Energy =                       -387.2650646119560633
  @DF-RHF Final Energy:  -387.26508727221778
    Total Energy =                       -387.2650872722180111
  @DF-RHF Final Energy:  -387.26511709353792
    Total Energy =                       -387.2651170935378104
  @DF-RHF Final Energy:  -387.26515538264266
    Total Energy =                       -387.2651553826430018
  @DF-RHF Final Energy:  -387.26518398365829
    Total Energy =                       -387.2651839836581757
  Basis Set: CC-PVTZ
  Basis Set:
  @DF-RHF Final Energy:  -387.26519638005567
    Total Energy =                       -387.2651963800553858
  Basis Set: CC-PVTZ
  Basis Set:
  Basis Set: CC-PVTZ
  Basis Set:
  @DF-RHF Final Energy:  -387.26520126281542
    Total Energy =                       -387.2652012628158218
  Basis Set: CC-PVTZ
  Basis Set:
  Basis Set: CC-PVTZ
  Basis Set:
  @DF-RHF Final Energy:  -387.26520231567645
    Total Energy =                       -387.2652023156767882
  Basis Set: CC-PVTZ
  Basis Set:
  Charge       = 0
  Multiplicity = 1
  Basis Set: CC-PVTZ
  Basis Set:

    Orbital Energies (a.u.)
    -----------------------

    Doubly Occupied:

       1A    -20.535558     2A    -11.319921     3A    -11.228584
       4A    -11.226642     5A    -11.225746     6A    -11.214080
       7A    -11.213343     8A    -11.212567     9A    -11.206547
      10A     -1.396847    11A     -1.094834    12A     -1.055595
      13A     -1.012497    14A     -0.970986    15A     -0.893338
      16A     -0.820100    17A     -0.793354    18A     -0.724414
      19A     -0.667005    20A     -0.642611    21A     -0.636557
      22A     -0.618464    23A     -0.604957    24A     -0.585026
      25A     -0.565872    26A     -0.564543    27A     -0.539678
      28A     -0.537335    29A     -0.514496    30A     -0.495400
      31A     -0.487174    32A     -0.474285    33A     -0.465530
      34A     -0.462722    35A     -0.444610    36A     -0.398011

  @DF-RHF Final Energy:  -387.26520251536186

   => Energetics <=

    Nuclear Repulsion Energy =            452.4315941809816763
    One-Electron Energy =               -1421.6951349164337444
    Two-Electron Energy =                 581.9983382200903179
    DFT Exchange-Correlation Energy =       0.0000000000000000
    Empirical Dispersion Energy =           0.0000000000000000
    PCM Polarization Energy =               0.0000000000000000
    EFP Energy =                            0.0000000000000000
    Total Energy =                       -387.2652025153618069
    Molecular point group: c1
  Basis Set: CC-PVTZ
  Basis Set:

  -Total Gradient:
     Atom            X                  Y                   Z
    ------   -----------------  -----------------  -----------------
       1        0.000010329260     0.000000411393     0.000017911956
       2        0.000007880598    -0.000019036579     0.000011411509
       3       -0.002835353498    -0.004587009131     0.003720013359
       4       -0.000002310481     0.000004267891    -0.000003427380
       5       -0.002485013701    -0.001436670002    -0.005782613564
       6        0.002735875604     0.004071291389    -0.002290540343
       7       -0.000008510816     0.000004807152     0.000000723944
       8       -0.000003043598    -0.000006293202     0.000005384734
       9        0.002567533739     0.001948247678     0.004333576519
      10       -0.000000601676     0.000007037351     0.000001294007
      11       -0.000003093187     0.000003752645    -0.000006059725
      12       -0.000002063288    -0.000001959089     0.000005409935
      13        0.000003456832     0.000001846362     0.000000751007
      14        0.000001136769     0.000004670194     0.000000169039
      15        0.000004879792    -0.000001601256     0.000001267504
      16        0.000001603097    -0.000002777145     0.000000723372
      17        0.000000999871    -0.000006588132    -0.000001624037
      18       -0.000000602642     0.000000947746     0.000001156899
      19        0.000000539515    -0.000001604262    -0.000000025516
      20       -0.000001168752     0.000000561698     0.000000534493
      21        0.000001449055     0.000000403202     0.000000121307
      22        0.000000898905    -0.000000476397     0.000000602556
      23       -0.000003013352     0.000018318211    -0.000005943020
      24        0.000005696355     0.000003376678     0.000001431146
      25        0.000002495600    -0.000005924393    -0.000012249704

  **** Optimization is complete! (in 20 steps) ****
    Final optimized geometry and variables:
    Molecular point group: c1

    Geometry (in Angstrom), charge = 0, multiplicity = 1:

    O            1.990221631146    -0.633174313510    -1.740169180834
    C            1.752547131020    -1.384323271717    -0.850762127705
    C            0.397552130459    -2.068268326166    -0.746977977832
    C            2.787833878436    -1.722262490656     0.194071637845
    C           -0.792149204638    -1.112777388948    -0.473469718479
    H            0.265102087712    -2.526156240677    -1.720024196917
    H            0.434846174464    -2.849616195910     0.000496479400
    C           -0.450420204862     0.206819618851     0.223085644109
    H           -1.486372940993    -1.636951863008     0.174234582239
    H           -1.305771187129    -0.898329950865    -1.401344553956
    C           -1.694927737742     1.028315903392     0.548446898401
    H            0.088791187724     0.003647631076     1.146527773789
    H            0.211597432736     0.794001724725    -0.401063308272
    C           -1.380652984538     2.355817792816     1.232513232883
    H           -2.358858503445     0.446756591643     1.184017247544
    H           -2.245068546492     1.221260941111    -0.369480353009
    C           -2.626843716339     3.174614747468     1.552276156832
    H           -0.830321964115     2.165464792925     2.150097473947
    H           -0.719939041381     2.938456224300     0.597008772576
    H           -3.293081185430     2.631834710211     2.214760196525
    H           -2.368988410890     4.109407756734     2.036630817076
    H           -3.181055901236     3.411763057386     0.650243102021
    H            3.015090506685    -2.782584327773     0.149729542991
    H            3.687140347961    -1.149779787060     0.026183212235
    H            2.398356399643    -1.520948265873     1.185977728607

  Mulliken Charges: (a.u.)
   Center  Symbol    Alpha    Beta     Spin     Total
       1     O     4.18384  4.18384  0.00000 -0.36767
       2     C     2.84564  2.84564  0.00000  0.30872
       3     C     3.11542  3.11542  0.00000 -0.23084
       4     C     3.15464  3.15464  0.00000 -0.30927
       5     C     3.08667  3.08667  0.00000 -0.17333
       6     H     0.43788  0.43788  0.00000  0.12423
       7     H     0.44501  0.44501  0.00000  0.10998
       8     C     3.10724  3.10724  0.00000 -0.21449
       9     H     0.45016  0.45016  0.00000  0.09968
      10     H     0.44556  0.44556  0.00000  0.10887
      11     C     3.08802  3.08802  0.00000 -0.17604
      12     H     0.45590  0.45590  0.00000  0.08820
      13     H     0.43783  0.43783  0.00000  0.12434
      14     C     3.08335  3.08335  0.00000 -0.16670
      15     H     0.45588  0.45588  0.00000  0.08824
      16     H     0.45355  0.45355  0.00000  0.09289
      17     C     3.15097  3.15097  0.00000 -0.30194
      18     H     0.45586  0.45586  0.00000  0.08828
      19     H     0.45224  0.45224  0.00000  0.09553
      20     H     0.45583  0.45583  0.00000  0.08833
      21     H     0.44820  0.44820  0.00000  0.10360
      22     H     0.45460  0.45460  0.00000  0.09080
      23     H     0.44838  0.44838  0.00000  0.10324
      24     H     0.43680  0.43680  0.00000  0.12639
      25     H     0.45052  0.45052  0.00000  0.09896

   Total alpha = 36.00000, Total beta = 36.00000, Total charge = -0.00000

*** Psi4 exiting successfully. Buy a developer a beer!
