                              Psi4 1.0.54 Driver

  ==> Input File <==

--------------------------------------------------------------------------
set {
	reference rhf
	basis cc-pvtz
}

set_num_threads( 4 )
memory 2 gb

molecule MOL {
0 1

H	 2.768375	 0.594535	 -0.596242
N	 2.326826	 -0.066186	 0.000000
C	 0.934676	 -0.005420	 0.000000
H	 2.699765	 -0.977319	 -0.133324
C	 0.226436	 -0.001077	 -1.195129
C	 0.226436	 -0.001077	 1.195129
H	 0.759091	 -0.011439	 -2.128123
C	 -1.153391	 0.009141	 -1.189028
H	 0.759091	 -0.011439	 2.128123
C	 -1.153391	 0.009141	 1.189028
H	 -1.680905	 0.012964	 -2.124348
C	 -1.857876	 0.014675	 0.000000
H	 -1.680905	 0.012964	 2.124348
H	 -2.930222	 0.022904	 0.000000

	symmetry c1
}
set optking {
	frozen_dihedral = ("
		1 2 3 5
	")
}

ee,wfn = optimize('scf', return_wfn=True)
oeprop( wfn, 'DIPOLE', 'QUADRUPOLE', 'MULLIKEN_CHARGES')
f=open( 'psi4out.xyz', 'w' )
f.write( "14  " )
f.write( str(ee) + "\n" )
f.write( MOL.save_string_xyz() )
f.close()
--------------------------------------------------------------------------

    Molecular point group: c1
  Charge       = 0
  Multiplicity = 1
  Basis Set: CC-PVTZ
  Basis Set:
  @DF-RHF Final Energy:  -285.82571252830286
    Total Energy =                       -285.8257125283026312
    Molecular point group: c1
  Basis Set: CC-PVTZ
  Basis Set:
  Basis Set: CC-PVTZ
  Basis Set:
  @DF-RHF Final Energy:  -285.82694816037321
    Total Energy =                       -285.8269481603732061
  Basis Set: CC-PVTZ
  Basis Set:
  Basis Set: CC-PVTZ
  Basis Set:
  @DF-RHF Final Energy:  -285.82724156914969
    Total Energy =                       -285.8272415691495780
  Basis Set: CC-PVTZ
  Basis Set:
  Basis Set: CC-PVTZ
  Basis Set:
  @DF-RHF Final Energy:  -285.82729598060354
    Total Energy =                       -285.8272959806035942
  Basis Set: CC-PVTZ
  Basis Set:
  Basis Set: CC-PVTZ
  Basis Set:
  @DF-RHF Final Energy:  -285.82730166563391
    Total Energy =                       -285.8273016656337973
  Basis Set: CC-PVTZ
  Basis Set:
  Charge       = 0
  Multiplicity = 1
  Basis Set: CC-PVTZ
  Basis Set:

    Orbital Energies (a.u.)
    -----------------------

    Doubly Occupied:

       1A    -15.541810     2A    -11.259522     3A    -11.228436
       4A    -11.226856     5A    -11.223962     6A    -11.223772
       7A    -11.219497     8A     -1.209395     9A     -1.131615
      10A     -1.015874    11A     -0.990199    12A     -0.830573
      13A     -0.810862    14A     -0.705938    15A     -0.665386
      16A     -0.648716    17A     -0.630611    18A     -0.594100
      19A     -0.585705    20A     -0.508985    21A     -0.500265
      22A     -0.496417    23A     -0.411966    24A     -0.336277
      25A     -0.328344

  @DF-RHF Final Energy:  -285.82730215335408

   => Energetics <=

    Nuclear Repulsion Energy =            272.9533433249899304
    One-Electron Energy =                -926.9111294753244010
    Two-Electron Energy =                 368.1304839969804448
    DFT Exchange-Correlation Energy =       0.0000000000000000
    Empirical Dispersion Energy =           0.0000000000000000
    PCM Polarization Energy =               0.0000000000000000
    EFP Energy =                            0.0000000000000000
    Total Energy =                       -285.8273021533539691
    Molecular point group: c1
  Basis Set: CC-PVTZ
  Basis Set:

  -Total Gradient:
     Atom            X                  Y                   Z
    ------   -----------------  -----------------  -----------------
       1       -0.000018904556     0.000816970939     0.000949755959
       2       -0.000005252187    -0.001607368617    -0.001194001255
       3        0.000029475163     0.001751918816     0.000227511927
       4       -0.000016705911     0.000051849123     0.000007852861
       5       -0.000006079966    -0.001055578818    -0.000003751599
       6       -0.000005013812     0.000032552111     0.000008518963
       7       -0.000003265526     0.000002702175     0.000005573395
       8        0.000010443689     0.000070962810     0.000007151780
       9       -0.000001430773    -0.000009571640    -0.000000980910
      10        0.000028565818    -0.000026709847    -0.000005167591
      11       -0.000004265731    -0.000007660119    -0.000003448765
      12       -0.000011326129    -0.000028083913    -0.000002715830
      13       -0.000001229835     0.000009213432     0.000004030267
      14        0.000004989756    -0.000001196453    -0.000000329200

  **** Optimization is complete! (in 6 steps) ****
    Final optimized geometry and variables:
    Molecular point group: c1

    Geometry (in Angstrom), charge = 0, multiplicity = 1:

    H            2.757354331693     0.643312709974    -0.547699369922
    N            2.353932149772    -0.050204543425     0.044542955752
    C            0.925708149369    -0.014571469243     0.000112187758
    H            2.708983917656    -0.940880985581    -0.231377774776
    C            0.218247206046    -0.010232991617    -1.192604488136
    C            0.226420615627     0.005972093985     1.193425750002
    H            0.753056932340    -0.031204014127    -2.124198183231
    C           -1.162830135518     0.022898450255    -1.190464015564
    H            0.778011247079     0.006560387019     2.113007281044
    C           -1.156341836152     0.029603737532     1.196774712807
    H           -1.696755083470     0.029999696644    -2.121770358340
    C           -1.855729996556     0.040387272826     0.005708226102
    H           -1.685397977465     0.044877608108     2.130705515268
    H           -2.928600577211     0.063108981436     0.008215774748

  Mulliken Charges: (a.u.)
   Center  Symbol    Alpha    Beta     Spin     Total
       1     H     0.42176  0.42176  0.00000  0.15648
       2     N     3.70289  3.70289  0.00000 -0.40577
       3     C     2.90574  2.90574  0.00000  0.18852
       4     H     0.42230  0.42230  0.00000  0.15540
       5     C     3.11394  3.11394  0.00000 -0.22788
       6     C     3.09607  3.09607  0.00000 -0.19215
       7     H     0.42599  0.42599  0.00000  0.14801
       8     C     3.07317  3.07317  0.00000 -0.14633
       9     H     0.41702  0.41702  0.00000  0.16596
      10     C     3.06625  3.06625  0.00000 -0.13250
      11     H     0.42360  0.42360  0.00000  0.15280
      12     C     3.08449  3.08449  0.00000 -0.16897
      13     H     0.42310  0.42310  0.00000  0.15379
      14     H     0.42368  0.42368  0.00000  0.15264

   Total alpha = 25.00000, Total beta = 25.00000, Total charge = -0.00000

*** Psi4 exiting successfully. Buy a developer a beer!
