  ==> Input File <==

--------------------------------------------------------------------------
set {
	reference rhf
	basis cc-pvtz
}

set_num_threads( 4 )
memory 2 gb

molecule MOL {
0 1

H	 -2.351482	 0.003961	 0.989865
O	 -2.041679	 -0.058866	 0.103463
C	 -0.959304	 0.780994	 -0.094939
C	 0.354905	 0.037902	 -0.006215
H	 -0.985899	 1.279578	 -1.057596
H	 -0.969809	 1.529522	 0.682889
F	 0.412060	 -0.931028	 -0.902708
F	 1.359641	 0.856111	 -0.239961
F	 0.545380	 -0.506387	 1.171682

	symmetry c1
}
set optking {
	frozen_dihedral = ("
		1 2 3 5
	")
}

ee = optimize('scf')
oeprop('DIPOLE', 'QUADRUPOLE', 'MULLIKEN_CHARGES')
f=open( 'psi4out.xyz', 'w' )
f.write( "9  " )
f.write( str(ee) + "\n" )
f.write( MOL.save_string_xyz() )
f.close()
--------------------------------------------------------------------------

    Molecular point group: c1
  Charge       = 0
  Multiplicity = 1
  Basis Set: CC-PVTZ
  Basis Set:
  @DF-RHF Final Energy:  -450.84438799117299
    Total Energy =                       -450.8443879911727663
    Molecular point group: c1
  Basis Set: CC-PVTZ
  Basis Set:
  Basis Set: CC-PVTZ
  Basis Set:
  @DF-RHF Final Energy:  -450.84563911090328
    Total Energy =                       -450.8456391109035053
  Basis Set: CC-PVTZ
  Basis Set:
  Basis Set: CC-PVTZ
  Basis Set:
  @DF-RHF Final Energy:  -450.84588211419117
    Total Energy =                       -450.8458821141910562
  Basis Set: CC-PVTZ
  Basis Set:
  Basis Set: CC-PVTZ
  Basis Set:
  @DF-RHF Final Energy:  -450.84589163427484
    Total Energy =                       -450.8458916342747216
  Basis Set: CC-PVTZ
  Basis Set:
  Basis Set: CC-PVTZ
  Basis Set:
  @DF-RHF Final Energy:  -450.84589300275093
    Total Energy =                       -450.8458930027509268
  Basis Set: CC-PVTZ
  Basis Set:
  Charge       = 0
  Multiplicity = 1
  Basis Set: CC-PVTZ
  Basis Set:

    Orbital Energies (a.u.)
    -----------------------

    Doubly Occupied:

       1A    -26.335552     2A    -26.334088     3A    -26.331761
       4A    -20.583271     5A    -11.490017     6A    -11.310237
       7A     -1.743580     8A     -1.640280     9A     -1.638780
      10A     -1.406578    11A     -1.049897    12A     -0.926363
      13A     -0.834134    14A     -0.832695    15A     -0.800372
      16A     -0.739724    17A     -0.714768    18A     -0.704598
      19A     -0.669217    20A     -0.660834    21A     -0.644867
      22A     -0.635529    23A     -0.606388    24A     -0.535845
      25A     -0.484157

  @DF-RHF Final Energy:  -450.84589314154829

   => Energetics <=

    Nuclear Repulsion Energy =            277.4339942910850709
    One-Electron Energy =               -1177.2527152324164490
    Two-Electron Energy =                 448.9728277997829764
    DFT Exchange-Correlation Energy =       0.0000000000000000
    Empirical Dispersion Energy =           0.0000000000000000
    PCM Polarization Energy =               0.0000000000000000
    EFP Energy =                            0.0000000000000000
    Total Energy =                       -450.8458931415483448
    Molecular point group: c1
  Basis Set: CC-PVTZ
  Basis Set:

  -Total Gradient:
     Atom            X                  Y                   Z
    ------   -----------------  -----------------  -----------------
       1       -0.001357088094     0.001551401266    -0.000604571299
       2        0.001414250114    -0.001590176447     0.000963492405
       3        0.000896516690    -0.001367616360    -0.001094006051
       4       -0.000005935450    -0.000035773514     0.000010320915
       5       -0.000962236784     0.001405741028     0.000728843464
       6        0.000010782037    -0.000004321432    -0.000000352019
       7       -0.000010258734     0.000000804161    -0.000013098075
       8        0.000011591146     0.000012028116     0.000013303551
       9        0.000002379075     0.000027913185    -0.000003932887

  **** Optimization is complete! (in 6 steps) ****
    Final optimized geometry and variables:
    Molecular point group: c1

    Geometry (in Angstrom), charge = 0, multiplicity = 1:

    H           -2.354969659690    -0.011809933807     0.967591165119
    O           -2.030909392524    -0.072707847030     0.088586434243
    C           -0.954912235894     0.780611465837    -0.102322482832
    C            0.353750005774     0.027169571483    -0.032223991148
    H           -1.030976342880     1.239398178106    -1.078065982226
    H           -0.910032039063     1.570580583179     0.637586614169
    F            0.432683855192    -0.918646127768    -0.937421053947
    F            1.361247549977     0.855648745348    -0.227484648527
    F            0.523514055031    -0.534446576259     1.147345741026

  Mulliken Charges: (a.u.)
   Center  Symbol    Alpha    Beta     Spin     Total
       1     H     0.38571  0.38571  0.00000  0.22859
       2     O     4.19231  4.19231  0.00000 -0.38462
       3     C     2.99436  2.99436  0.00000  0.01128
       4     C     2.67884  2.67884  0.00000  0.64232
       5     H     0.45068  0.45068  0.00000  0.09865
       6     H     0.46158  0.46158  0.00000  0.07684
       7     F     4.60774  4.60774  0.00000 -0.21548
       8     F     4.61421  4.61421  0.00000 -0.22842
       9     F     4.61458  4.61458  0.00000 -0.22915

   Total alpha = 25.00000, Total beta = 25.00000, Total charge = -0.00000
