  ==> Input File <==

--------------------------------------------------------------------------
set {
	reference rhf
	basis 6-31G*
}

set_num_threads( 4 )
memory 2 gb

molecule MOL {
0 1

H	 2.591676	 2.013956	 0.335017
O	 3.341076	 1.666752	 -0.126416
C	 3.569581	 0.339145	 0.272707
C	 2.923872	 -0.006102	 1.610090
H	 3.146534	 -0.279848	 -0.508032
H	 4.638190	 0.130200	 0.307311
C	 3.486480	 0.782879	 2.794932
H	 1.853773	 0.167239	 1.531311
H	 3.060478	 -1.071570	 1.787522
C	 2.856332	 0.375048	 4.129625
H	 3.324694	 1.843926	 2.626498
H	 4.565114	 0.634729	 2.849168
C	 3.445084	 1.074713	 5.360146
H	 1.784097	 0.558340	 4.090111
H	 2.975337	 -0.699156	 4.254619
C	 3.185053	 2.582002	 5.430444
H	 3.027527	 0.609037	 6.250431
H	 4.517827	 0.891508	 5.398822
C	 3.698988	 3.215847	 6.724874
H	 2.115374	 2.766308	 5.341399
H	 3.651783	 3.082149	 4.585270
C	 3.446421	 4.721498	 6.794782
H	 3.225380	 2.730955	 7.575793
H	 4.765804	 3.024367	 6.820389
H	 2.384800	 4.944149	 6.734690
H	 3.819908	 5.140680	 7.723991
H	 3.938521	 5.240407	 5.976897

	symmetry c1
}
set optking {
	frozen_dihedral = ("
		4 3 2 1
	")
}

ee = optimize('scf')
oeprop('DIPOLE', 'QUADRUPOLE', 'MULLIKEN_CHARGES')
f=open( 'psi4out.xyz', 'w' )
f.write( "27  " )
f.write( str(ee) + "\n" )
f.write( MOL.save_string_xyz() )
f.close()
--------------------------------------------------------------------------

    Molecular point group: c1
  Charge       = 0
  Multiplicity = 1
  Basis Set: 6-31G*
  Basis Set:
  @DF-RHF Final Energy:  -388.27875941587354
    Total Energy =                       -388.2787594158735374
    Molecular point group: c1
  Basis Set: 6-31G*
  Basis Set:
  Basis Set: 6-31G*
  Basis Set:
  @DF-RHF Final Energy:  -388.27950262949457
    Total Energy =                       -388.2795026294944591
  Basis Set: 6-31G*
  Basis Set:
  Basis Set: 6-31G*
  Basis Set:
  @DF-RHF Final Energy:  -388.27984586587206
    Total Energy =                       -388.2798458658720619
  Basis Set: 6-31G*
  Basis Set:
  Basis Set: 6-31G*
  Basis Set:
  @DF-RHF Final Energy:  -388.27986309122502
    Total Energy =                       -388.2798630912250246
  Basis Set: 6-31G*
  Basis Set:
  Basis Set: 6-31G*
  Basis Set:
  @DF-RHF Final Energy:  -388.27986953991581
    Total Energy =                       -388.2798695399160351
  Basis Set: 6-31G*
  Basis Set:
  Basis Set: 6-31G*
  Basis Set:
  @DF-RHF Final Energy:  -388.27987076493764
    Total Energy =                       -388.2798707649376411
  Basis Set: 6-31G*
  Basis Set:
  Charge       = 0
  Multiplicity = 1
  Basis Set: 6-31G*
  Basis Set:

    Orbital Energies (a.u.)
    -----------------------

    Doubly Occupied:

       1A    -20.549983     2A    -11.266604     3A    -11.224033
       4A    -11.219498     5A    -11.218311     6A    -11.215902
       7A    -11.215697     8A    -11.214120     9A    -11.208899
      10A     -1.357140    11A     -1.096109    12A     -1.062754
      13A     -1.012664    14A     -0.948269    15A     -0.888086
      16A     -0.825408    17A     -0.804983    18A     -0.779385
      19A     -0.662976    20A     -0.654669    21A     -0.646676
      22A     -0.628102    23A     -0.606407    24A     -0.585383
      25A     -0.573653    26A     -0.563594    27A     -0.539029
      28A     -0.524829    29A     -0.511511    30A     -0.489267
      31A     -0.485752    32A     -0.478795    33A     -0.466964
      34A     -0.460535    35A     -0.447914    36A     -0.446114
      37A     -0.423185

  @DF-RHF Final Energy:  -388.27987087760761

   => Energetics <=

    Nuclear Repulsion Energy =            460.0002455674612634
    One-Electron Energy =               -1437.9538348842074811
    Two-Electron Energy =                 589.6737184391381561
    DFT Exchange-Correlation Energy =       0.0000000000000000
    Empirical Dispersion Energy =           0.0000000000000000
    PCM Polarization Energy =               0.0000000000000000
    EFP Energy =                            0.0000000000000000
    Total Energy =                       -388.2798708776081185
    Molecular point group: c1
  Basis Set: 6-31G*
  Basis Set:

  -Total Gradient:
     Atom            X                  Y                   Z
    ------   -----------------  -----------------  -----------------
       1        0.001478651937     0.000815106286     0.001787622839
       2       -0.002383949938    -0.001191498736    -0.002517165025
       3        0.002196978172     0.000864578189     0.001458628717
       4       -0.001302295775    -0.000477510443    -0.000735392843
       5        0.000003401111    -0.000007327623     0.000002775776
       6       -0.000000228387    -0.000003147447     0.000001923085
       7        0.000026486391    -0.000019134602     0.000003718412
       8       -0.000003118492     0.000000942369    -0.000002843166
       9       -0.000003869447     0.000001680499     0.000001975491
      10       -0.000000699968     0.000002008178     0.000002532779
      11       -0.000007917792     0.000007978521     0.000011771151
      12        0.000004476662     0.000007487098    -0.000000651833
      13       -0.000009136500     0.000000020379     0.000001454510
      14       -0.000001650476    -0.000000621783     0.000003578424
      15        0.000004871835     0.000003789545    -0.000004513833
      16       -0.000006624474    -0.000001440957     0.000000284000
      17       -0.000000699624    -0.000001500910     0.000000180561
      18       -0.000001914255    -0.000001905302    -0.000003376909
      19        0.000001922664     0.000000707383    -0.000000700825
      20        0.000000278724     0.000000233161    -0.000001469998
      21        0.000002620420    -0.000000327250    -0.000009041043
      22        0.000001347379    -0.000000091250    -0.000000914938
      23       -0.000000424836    -0.000000150622    -0.000001453696
      24        0.000001265499     0.000000342316     0.000001400153
      25        0.000000000349    -0.000000590011    -0.000000020620
      26        0.000000300865    -0.000000309599    -0.000000258254
      27       -0.000000072044     0.000000682607    -0.000000042907

  **** Optimization is complete! (in 7 steps) ****
    Final optimized geometry and variables:
    Molecular point group: c1

    Geometry (in Angstrom), charge = 0, multiplicity = 1:

    H           -0.781036639904     0.359261170151    -3.243037760225
    O           -0.029506623833     0.033196440867    -3.715923597618
    C            0.240446370932    -1.294624956401    -3.337253705872
    C           -0.374058400873    -1.682706235869    -1.997425202990
    H           -0.126777179532    -1.967256338121    -4.108690896398
    H            1.318906305193    -1.401317519731    -3.300301015090
    C            0.173909641191    -0.887470472834    -0.809067831966
    H           -1.456072012121    -1.561463541524    -2.058191660257
    H           -0.198923854914    -2.744135964755    -1.837437734012
    C           -0.477399870461    -1.284863492726     0.518292585714
    H            0.035866294848     0.174165544062    -0.989267032068
    H            1.249109998007    -1.044990058368    -0.745052314397
    C            0.107491453680    -0.589282640393     1.752964713236
    H           -1.547419180325    -1.088154969208     0.468952685746
    H           -0.374413087317    -2.360348074087     0.648002543930
    C           -0.132259573704     0.921718372447     1.814038859529
    H           -0.325644254131    -1.045926029511     2.640474359335
    H            1.177018434731    -0.786861135982     1.802775101032
    C            0.379691932613     1.554446526359     3.109793237796
    H           -1.198906599387     1.120123742575     1.716117872671
    H            0.348443231395     1.410949136680     0.970546902595
    C            0.145663786147     3.063437421632     3.171255303602
    H           -0.106243338071     1.079147872028     3.959233297957
    H            1.443254994886     1.350162019879     3.213742843914
    H           -0.912696906309     3.299186271327     3.102986176738
    H            0.517934596897     3.481956853204     4.101236745890
    H            0.649981667054     3.572221867617     2.354563457626

  Mulliken Charges: (a.u.)
   Center  Symbol    Alpha    Beta     Spin     Total
       1     H     0.28050  0.28050  0.00000  0.43900
       2     O     4.37579  4.37579  0.00000 -0.75158
       3     C     2.97787  2.97787  0.00000  0.04427
       4     C     3.18701  3.18701  0.00000 -0.37403
       5     H     0.42614  0.42614  0.00000  0.14773
       6     H     0.42163  0.42163  0.00000  0.15675
       7     C     3.15427  3.15427  0.00000 -0.30855
       8     H     0.42394  0.42394  0.00000  0.15212
       9     H     0.41729  0.41729  0.00000  0.16542
      10     C     3.15293  3.15293  0.00000 -0.30585
      11     H     0.41931  0.41931  0.00000  0.16138
      12     H     0.42038  0.42038  0.00000  0.15925
      13     C     3.15316  3.15316  0.00000 -0.30633
      14     H     0.42456  0.42456  0.00000  0.15088
      15     H     0.42172  0.42172  0.00000  0.15657
      16     C     3.15337  3.15337  0.00000 -0.30675
      17     H     0.42149  0.42149  0.00000  0.15701
      18     H     0.42313  0.42313  0.00000  0.15374
      19     C     3.15119  3.15119  0.00000 -0.30237
      20     H     0.42533  0.42533  0.00000  0.14934
      21     H     0.42110  0.42110  0.00000  0.15780
      22     C     3.23933  3.23933  0.00000 -0.47865
      23     H     0.42321  0.42321  0.00000  0.15357
      24     H     0.42268  0.42268  0.00000  0.15464
      25     H     0.42210  0.42210  0.00000  0.15579
      26     H     0.41920  0.41920  0.00000  0.16159
      27     H     0.42138  0.42138  0.00000  0.15725

   Total alpha = 37.00000, Total beta = 37.00000, Total charge = -0.00000
