                              Psi4 1.0.54 Driver

  ==> Input File <==

--------------------------------------------------------------------------
set {
	reference rhf
	basis cc-pvtz
}

set_num_threads( 4 )
memory 2 gb

molecule MOL {
0 1

H	 -2.979719	 -0.581434	 0.455208
C	 -2.861473	 0.078303	 -0.401325
O	 -1.526920	 0.211009	 -0.760350
H	 -3.389580	 -0.346281	 -1.242586
H	 -3.307939	 1.040811	 -0.158155
C	 -0.718530	 0.758693	 0.228682
C	 0.718529	 0.758687	 -0.228709
H	 -1.021924	 1.784204	 0.439034
H	 -0.799961	 0.188820	 1.151745
O	 1.401606	 -0.295166	 0.366636
H	 0.748705	 0.673477	 -1.312803
H	 1.176496	 1.708671	 0.046552
C	 2.714315	 -0.441627	 -0.061017
H	 2.765292	 -0.641548	 -1.128869
H	 3.305661	 0.447341	 0.150952
H	 3.143725	 -1.278506	 0.470147

	symmetry c1
}
set optking {
	frozen_dihedral = ("
		3 6 7 11
	")
}

ee,wfn = optimize('scf', return_wfn=True)
oeprop( wfn, 'DIPOLE', 'QUADRUPOLE', 'MULLIKEN_CHARGES')
f=open( 'psi4out.xyz', 'w' )
f.write( "16  " )
f.write( str(ee) + "\n" )
f.write( MOL.save_string_xyz() )
f.close()
--------------------------------------------------------------------------

    Molecular point group: c1
  Charge       = 0
  Multiplicity = 1
  Basis Set: CC-PVTZ
  Basis Set:
  @DF-RHF Final Energy:  -307.09514952088432
    Total Energy =                       -307.0951495208844335
    Molecular point group: c1
  Basis Set: CC-PVTZ
  Basis Set:
  Basis Set: CC-PVTZ
  Basis Set:
  @DF-RHF Final Energy:  -307.09544460424291
    Total Energy =                       -307.0954446042430845
  Basis Set: CC-PVTZ
  Basis Set:
  Basis Set: CC-PVTZ
  Basis Set:
  @DF-RHF Final Energy:  -307.09550162919118
    Total Energy =                       -307.0955016291910624
  Basis Set: CC-PVTZ
  Basis Set:
  Charge       = 0
  Multiplicity = 1
  Basis Set: CC-PVTZ
  Basis Set:

    Orbital Energies (a.u.)
    -----------------------

    Doubly Occupied:

       1A    -20.549714     2A    -20.548958     3A    -11.266964
       4A    -11.266314     5A    -11.262515     6A    -11.262167
       7A     -1.390389     8A     -1.376333     9A     -1.029849
      10A     -0.938755    11A     -0.888140    12A     -0.829235
      13A     -0.685959    14A     -0.682532    15A     -0.658679
      16A     -0.639755    17A     -0.632586    18A     -0.599654
      19A     -0.548539    20A     -0.537330    21A     -0.509250
      22A     -0.481362    23A     -0.466077    24A     -0.425336
      25A     -0.413213

  @DF-RHF Final Energy:  -307.09550373665371

   => Energetics <=

    Nuclear Repulsion Energy =            256.9014442438673882
    One-Electron Energy =                -928.2146741507953038
    Two-Electron Energy =                 364.2177261702743749
    DFT Exchange-Correlation Energy =       0.0000000000000000
    Empirical Dispersion Energy =           0.0000000000000000
    PCM Polarization Energy =               0.0000000000000000
    EFP Energy =                            0.0000000000000000
    Total Energy =                       -307.0955037366535976
    Molecular point group: c1
  Basis Set: CC-PVTZ
  Basis Set:

  -Total Gradient:
     Atom            X                  Y                   Z
    ------   -----------------  -----------------  -----------------
       1       -0.000002221519     0.000014619460    -0.000009633274
       2       -0.000037559868    -0.000036423672    -0.000057526600
       3       -0.000287046627     0.002434355546    -0.000988055550
       4       -0.000036511174    -0.000003015322     0.000016967696
       5        0.000006768300    -0.000005796939     0.000007801534
       6        0.000385445109    -0.003859494694     0.001438906899
       7       -0.000081114902     0.004748580597    -0.000633538267
       8       -0.000019009857    -0.000006920516     0.000033716006
       9       -0.000003266208    -0.000007566745    -0.000022537029
      10       -0.000076700712     0.000172631094    -0.000063364777
      11        0.000085756075    -0.003370344148     0.000272905887
      12       -0.000003377970    -0.000021658648    -0.000008525319
      13        0.000066635941    -0.000072255466     0.000020432315
      14        0.000002581560     0.000009682980     0.000010435995
      15       -0.000017565366    -0.000007087635    -0.000004339901
      16        0.000017187216     0.000010694107    -0.000013645614

  **** Optimization is complete! (in 4 steps) ****
    Final optimized geometry and variables:
    Molecular point group: c1

    Geometry (in Angstrom), charge = 0, multiplicity = 1:

    H           -2.940168607482    -0.742969375053     0.607476219517
    C           -2.814921001085    -0.098582165853    -0.259551521580
    O           -1.477272349716     0.028043358597    -0.610717928205
    H           -3.337246195753    -0.536937736265    -1.097413240598
    H           -3.261776457375     0.868356033490    -0.036192896952
    C           -0.677160100222     0.595978954928     0.378884950151
    C            0.770213377390     0.602953452203    -0.079646661745
    H           -1.011111562508     1.614029298221     0.573309028532
    H           -0.748770648825     0.036893595827     1.306922413667
    O            1.443644010335    -0.472203810430     0.501565919615
    H            0.789796816535     0.505444373157    -1.161013465200
    H            1.254964465098     1.535985752368     0.199057749337
    C            2.758680362907    -0.616366489029     0.079724556009
    H            2.816551516246    -0.790721182048    -0.992293358500
    H            3.352935406887     0.264132337718     0.316689726955
    H            3.180209630789    -1.467776031228     0.593969245342

  Mulliken Charges: (a.u.)
   Center  Symbol    Alpha    Beta     Spin     Total
       1     H     0.47003  0.47003  0.00000  0.05993
       2     C     3.03007  3.03007  0.00000 -0.06015
       3     O     4.17303  4.17303  0.00000 -0.34605
       4     H     0.44653  0.44653  0.00000  0.10694
       5     H     0.47315  0.47315  0.00000  0.05370
       6     C     2.96263  2.96263  0.00000  0.07474
       7     C     2.96379  2.96379  0.00000  0.07242
       8     H     0.47689  0.47689  0.00000  0.04622
       9     H     0.46742  0.46742  0.00000  0.06516
      10     O     4.17372  4.17372  0.00000 -0.34745
      11     H     0.46742  0.46742  0.00000  0.06516
      12     H     0.47506  0.47506  0.00000  0.04988
      13     C     3.02987  3.02987  0.00000 -0.05975
      14     H     0.47051  0.47051  0.00000  0.05898
      15     H     0.47327  0.47327  0.00000  0.05346
      16     H     0.44660  0.44660  0.00000  0.10680

   Total alpha = 25.00000, Total beta = 25.00000, Total charge = -0.00000

*** Psi4 exiting successfully. Buy a developer a beer!
