                              Psi4 1.0.54 Driver

  ==> Input File <==

--------------------------------------------------------------------------
set {
	reference rhf
	basis cc-pvtz
}

set_num_threads( 4 )
memory 2 gb

molecule MOL {
0 1

H	 -3.144994	 -1.202467	 -0.018751
O	 -2.321472	 -0.864941	 -0.318626
C	 -2.021813	 0.336996	 0.342658
C	 -0.669613	 0.837286	 -0.127252
H	 -2.780861	 1.084746	 0.127159
H	 -2.006390	 0.184138	 1.420053
C	 0.490865	 -0.082543	 0.241244
H	 -0.708709	 0.967192	 -1.204587
H	 -0.507562	 1.822272	 0.303070
C	 1.839800	 0.429565	 -0.255472
H	 0.305636	 -1.070211	 -0.165276
H	 0.527397	 -0.195943	 1.322876
C	 2.609323	 1.211274	 0.804035
H	 2.441291	 -0.411853	 -0.588529
H	 1.688831	 1.059699	 -1.128300
H	 2.806702	 0.596586	 1.675881
H	 3.562275	 1.559228	 0.421785
H	 2.048629	 2.079701	 1.134038

	symmetry c1
}
set optking {
	frozen_dihedral = ("
		14 10 7 11
	")
}

ee,wfn = optimize('scf', return_wfn=True)
oeprop( wfn, 'DIPOLE', 'QUADRUPOLE', 'MULLIKEN_CHARGES')
f=open( 'psi4out.xyz', 'w' )
f.write( "18  " )
f.write( str(ee) + "\n" )
f.write( MOL.save_string_xyz() )
f.close()
--------------------------------------------------------------------------

    Molecular point group: c1
  Charge       = 0
  Multiplicity = 1
  Basis Set: CC-PVTZ
  Basis Set:
  @DF-RHF Final Energy:  -271.28261071327393
    Total Energy =                       -271.2826107132735842
    Molecular point group: c1
  Basis Set: CC-PVTZ
  Basis Set:
  Basis Set: CC-PVTZ
  Basis Set:
  @DF-RHF Final Energy:  -271.28290752627453
    Total Energy =                       -271.2829075262745278
  Basis Set: CC-PVTZ
  Basis Set:
  Basis Set: CC-PVTZ
  Basis Set:
  @DF-RHF Final Energy:  -271.28298882077644
    Total Energy =                       -271.2829888207764384
  Basis Set: CC-PVTZ
  Basis Set:
  Basis Set: CC-PVTZ
  Basis Set:
  @DF-RHF Final Energy:  -271.28299014632421
    Total Energy =                       -271.2829901463244369
  Basis Set: CC-PVTZ
  Basis Set:
  Charge       = 0
  Multiplicity = 1
  Basis Set: CC-PVTZ
  Basis Set:

    Orbital Energies (a.u.)
    -----------------------

    Doubly Occupied:

       1A    -20.546177     2A    -11.265891     3A    -11.210913
       4A    -11.209121     5A    -11.204880     6A    -11.204510
       7A     -1.364087     8A     -1.075589     9A     -1.008869
      10A     -0.915243    11A     -0.825095    12A     -0.780559
      13A     -0.708259    14A     -0.638333    15A     -0.615262
      16A     -0.606417    17A     -0.572122    18A     -0.550166
      19A     -0.520703    20A     -0.509716    21A     -0.495219
      22A     -0.463486    23A     -0.454652    24A     -0.449725
      25A     -0.431174

  @DF-RHF Final Energy:  -271.28299036082922

   => Energetics <=

    Nuclear Repulsion Energy =            250.5204029762707876
    One-Electron Energy =                -864.3544501061276151
    Two-Electron Energy =                 342.5510567690278094
    DFT Exchange-Correlation Energy =       0.0000000000000000
    Empirical Dispersion Energy =           0.0000000000000000
    PCM Polarization Energy =               0.0000000000000000
    EFP Energy =                            0.0000000000000000
    Total Energy =                       -271.2829903608289897
    Molecular point group: c1
  Basis Set: CC-PVTZ
  Basis Set:

  -Total Gradient:
     Atom            X                  Y                   Z
    ------   -----------------  -----------------  -----------------
       1        0.000003777784     0.000000694888     0.000001215276
       2       -0.000009469630    -0.000009191959    -0.000011580787
       3        0.000001355983     0.000010383997     0.000019928305
       4        0.000003418327    -0.000003819790    -0.000009294911
       5       -0.000006124475    -0.000000024796     0.000001535914
       6       -0.000000708114     0.000001763156    -0.000004778680
       7       -0.002000944736     0.001934495827    -0.004191861423
       8        0.000004494836    -0.000001049269    -0.000000020004
       9        0.000002971101    -0.000012458719    -0.000002121964
      10        0.001731279901    -0.000852722237     0.004636798515
      11        0.001402878840    -0.001468899606     0.002754650501
      12        0.000002029498     0.000005112713     0.000005645429
      13        0.000004094062     0.000007473007     0.000004377418
      14       -0.001131483548     0.000390812047    -0.003189576837
      15       -0.000002840957     0.000008004683     0.000000488528
      16       -0.000004676723    -0.000001566131    -0.000009540064
      17        0.000001074441     0.000000121796    -0.000000767404
      18       -0.000001126587    -0.000009129607    -0.000005097814

  **** Optimization is complete! (in 5 steps) ****
    Final optimized geometry and variables:
    Molecular point group: c1

    Geometry (in Angstrom), charge = 0, multiplicity = 1:

    H           -3.101924611931    -1.448954098166    -0.134531568017
    O           -2.272557754741    -1.131262694454    -0.439664194782
    C           -1.950237429559     0.074361443109     0.203872858192
    C           -0.591122923477     0.544381365017    -0.276585751779
    H           -2.696795561185     0.832254029401    -0.019962875436
    H           -1.933998755632    -0.063673315257     1.283181203447
    C            0.552880895187    -0.398196552451     0.087478377697
    H           -0.632385920367     0.669135357667    -1.354214809511
    H           -0.408400724624     1.528327975210     0.147560816476
    C            1.935677831279     0.120767975279    -0.337511004442
    H            0.372259864711    -1.374997557156    -0.341637474530
    H            0.550396558417    -0.553717453391     1.164604779115
    C            2.657428093989     0.915859938851     0.745732756496
    H            2.554502808175    -0.709490678485    -0.660488534393
    H            1.823218761386     0.746496555799    -1.219186459631
    H            2.860127768229     0.296484979233     1.612932657569
    H            3.604286939974     1.302175071794     0.385634264312
    H            2.063012462529     1.760961566003     1.077461271823

  Mulliken Charges: (a.u.)
   Center  Symbol    Alpha    Beta     Spin     Total
       1     H     0.39583  0.39583  0.00000  0.20834
       2     O     4.19858  4.19858  0.00000 -0.39715
       3     C     2.97394  2.97394  0.00000  0.05211
       4     C     3.08972  3.08972  0.00000 -0.17944
       5     H     0.46561  0.46561  0.00000  0.06878
       6     H     0.47337  0.47337  0.00000  0.05325
       7     C     3.09501  3.09501  0.00000 -0.19002
       8     H     0.45169  0.45169  0.00000  0.09663
       9     H     0.45430  0.45430  0.00000  0.09140
      10     C     3.09022  3.09022  0.00000 -0.18044
      11     H     0.43823  0.43823  0.00000  0.12354
      12     H     0.46093  0.46093  0.00000  0.07813
      13     C     3.14729  3.14729  0.00000 -0.29458
      14     H     0.44775  0.44775  0.00000  0.10449
      15     H     0.45697  0.45697  0.00000  0.08606
      16     H     0.45513  0.45513  0.00000  0.08973
      17     H     0.44903  0.44903  0.00000  0.10195
      18     H     0.45639  0.45639  0.00000  0.08721

   Total alpha = 25.00000, Total beta = 25.00000, Total charge = -0.00000

*** Psi4 exiting successfully. Buy a developer a beer!
