  ==> Input File <==

--------------------------------------------------------------------------
set {
	reference rhf
	basis 6-31G*
}

set_num_threads( 4 )
memory 2 gb

molecule MOL {
0 1

H	 -0.203252	 -1.743660	 0.837860
C	 -1.035008	 -1.116241	 0.534763
N	 -0.528168	 0.128977	 -0.000000
H	 -1.636070	 -0.917192	 1.414615
H	 -1.641560	 -1.687358	 -0.173182
C	 0.248044	 -0.037491	 -1.209632
H	 -1.287346	 0.758296	 -0.169221
H	 0.998722	 0.743888	 -1.266824
H	 -0.398417	 0.061950	 -2.074060
H	 0.763621	 -0.999315	 -1.275517

	symmetry c1
}
set optking {
	frozen_dihedral = ("
		2 3 6 8
	")
}

ee = optimize('scf')
oeprop('DIPOLE', 'QUADRUPOLE', 'MULLIKEN_CHARGES')
f=open( 'psi4out.xyz', 'w' )
f.write( "10  " )
f.write( str(ee) + "\n" )
f.write( MOL.save_string_xyz() )
f.close()
--------------------------------------------------------------------------

    Molecular point group: c1
  Charge       = 0
  Multiplicity = 1
  Basis Set: 6-31G*
  Basis Set:
  @DF-RHF Final Energy:  -134.23410019784737
    Total Energy =                       -134.2341001978473685
    Molecular point group: c1
  Basis Set: 6-31G*
  Basis Set:
  Basis Set: 6-31G*
  Basis Set:
  @DF-RHF Final Energy:  -134.23571972597114
    Total Energy =                       -134.2357197259711086
  Basis Set: 6-31G*
  Basis Set:
  Basis Set: 6-31G*
  Basis Set:
  @DF-RHF Final Energy:  -134.23591961145655
    Total Energy =                       -134.2359196114566089
  Basis Set: 6-31G*
  Basis Set:
  Basis Set: 6-31G*
  Basis Set:
  @DF-RHF Final Energy:  -134.23593320687851
    Total Energy =                       -134.2359332068786273
  Basis Set: 6-31G*
  Basis Set:
  Charge       = 0
  Multiplicity = 1
  Basis Set: 6-31G*
  Basis Set:

    Orbital Energies (a.u.)
    -----------------------

    Doubly Occupied:

       1A    -15.535211     2A    -11.236120     3A    -11.235497
       4A     -1.195858     5A     -0.947640     6A     -0.854888
       7A     -0.660845     8A     -0.608713     9A     -0.589374
      10A     -0.543304    11A     -0.512075    12A     -0.506561
      13A     -0.355707

  @DF-RHF Final Energy:  -134.23593456323394

   => Energetics <=

    Nuclear Repulsion Energy =             84.4942170586533337
    One-Electron Energy =                -347.8967152995925289
    Two-Electron Energy =                 129.1665636777052839
    DFT Exchange-Correlation Energy =       0.0000000000000000
    Empirical Dispersion Energy =           0.0000000000000000
    PCM Polarization Energy =               0.0000000000000000
    EFP Energy =                            0.0000000000000000
    Total Energy =                       -134.2359345632338830
    Molecular point group: c1
  Basis Set: 6-31G*
  Basis Set:

  -Total Gradient:
     Atom            X                  Y                   Z
    ------   -----------------  -----------------  -----------------
       1       -0.000001275958     0.000008298736     0.000004796042
       2        0.002711736512    -0.000451111044     0.001767695013
       3       -0.003174379902    -0.000065222383    -0.001917322532
       4        0.000005138796     0.000005500881    -0.000013141348
       5        0.000004715753     0.000025093350     0.000002196155
       6       -0.002348260152     0.003048451039    -0.001879227954
       7        0.000027873431    -0.000013193063    -0.000025758811
       8        0.002720619334    -0.002537148119     0.002008846425
       9        0.000023852303    -0.000008890513     0.000053163832
      10        0.000029979883    -0.000011778884    -0.000001246823

  **** Optimization is complete! (in 5 steps) ****
    Final optimized geometry and variables:
    Molecular point group: c1

    Geometry (in Angstrom), charge = 0, multiplicity = 1:

    H            0.240953067344    -1.414271821803     1.058566038761
    C           -0.587737148408    -0.774120005337     0.776382015260
    N           -0.075095083443     0.468286297929     0.242824445666
    H           -1.165078699825    -0.570318445089     1.671067005273
    H           -1.222328595174    -1.334640018014     0.084421827665
    C            0.691659526089     0.338300220249    -0.980425592724
    H           -0.808732522228     1.137667087821     0.133068568583
    H            1.444591965175     1.117138908302    -1.039923511399
    H            0.088362835103     0.351527600489    -1.888564417792
    H            1.228243394947    -0.604405642981    -0.963011492019

  Mulliken Charges: (a.u.)
   Center  Symbol    Alpha    Beta     Spin     Total
       1     H     0.41797  0.41797  0.00000  0.16405
       2     C     3.14230  3.14230  0.00000 -0.28461
       3     N     3.84440  3.84440  0.00000 -0.68881
       4     H     0.41783  0.41783  0.00000  0.16434
       5     H     0.43525  0.43525  0.00000  0.12951
       6     C     3.14362  3.14362  0.00000 -0.28725
       7     H     0.33134  0.33134  0.00000  0.33733
       8     H     0.41586  0.41586  0.00000  0.16828
       9     H     0.43105  0.43105  0.00000  0.13791
      10     H     0.42038  0.42038  0.00000  0.15924

   Total alpha = 13.00000, Total beta = 13.00000, Total charge = -0.00000
