                              Psi4 1.0.54 Driver

  ==> Input File <==

--------------------------------------------------------------------------
set {
	reference rhf
	basis cc-pvtz
}

set_num_threads( 4 )
memory 2 gb

molecule MOL {
0 1

H	 0.735294	 1.362874	 -0.806803
O	 0.057669	 1.301365	 -0.158528
C	 0.004145	 -0.005141	 0.363049
C	 1.199168	 -0.827145	 -0.096690
C	 -1.316386	 -0.602081	 -0.083515
H	 0.012026	 0.043363	 1.450619
H	 1.216685	 -0.896776	 -1.178167
H	 2.129940	 -0.372354	 0.228035
H	 1.160783	 -1.829622	 0.314294
H	 -1.357882	 -0.655920	 -1.165207
H	 -2.140147	 0.011735	 0.257253
H	 -1.440790	 -1.601175	 0.317669

	symmetry c1
}
set optking {
	frozen_dihedral = ("
		1 2 3 4
	")
}

ee,wfn = optimize('scf', return_wfn=True)
oeprop( wfn, 'DIPOLE', 'QUADRUPOLE', 'MULLIKEN_CHARGES')
f=open( 'psi4out.xyz', 'w' )
f.write( "12  " )
f.write( str(ee) + "\n" )
f.write( MOL.save_string_xyz() )
f.close()
--------------------------------------------------------------------------

    Molecular point group: c1
  Charge       = 0
  Multiplicity = 1
  Basis Set: CC-PVTZ
  Basis Set:
  @DF-RHF Final Energy:  -193.19318208486038
    Total Energy =                       -193.1931820848602399
    Molecular point group: c1
  Basis Set: CC-PVTZ
  Basis Set:
  Basis Set: CC-PVTZ
  Basis Set:
  @DF-RHF Final Energy:  -193.18724129163942
    Total Energy =                       -193.1872412916393955
  Basis Set: CC-PVTZ
  Basis Set:
  Basis Set: CC-PVTZ
  Basis Set:
  @DF-RHF Final Energy:  -193.19380202139905
    Total Energy =                       -193.1938020213991081
  Basis Set: CC-PVTZ
  Basis Set:
  Basis Set: CC-PVTZ
  Basis Set:
  @DF-RHF Final Energy:  -193.19391429309400
    Total Energy =                       -193.1939142930939681
  Basis Set: CC-PVTZ
  Basis Set:
  Basis Set: CC-PVTZ
  Basis Set:
  @DF-RHF Final Energy:  -193.19391535959610
    Total Energy =                       -193.1939153595960761
  Basis Set: CC-PVTZ
  Basis Set:
  Charge       = 0
  Multiplicity = 1
  Basis Set: CC-PVTZ
  Basis Set:

    Orbital Energies (a.u.)
    -----------------------

    Doubly Occupied:

       1A    -20.542124     2A    -11.274080     3A    -11.217865
       4A    -11.205074     5A     -1.362772     6A     -1.044119
       7A     -0.943495     8A     -0.815401     9A     -0.668397
      10A     -0.650847    11A     -0.608049    12A     -0.559084
      13A     -0.546002    14A     -0.517711    15A     -0.515603
      16A     -0.467797    17A     -0.431349

  @DF-RHF Final Energy:  -193.19391550463553

   => Energetics <=

    Nuclear Repulsion Energy =            135.6404848836393171
    One-Electron Energy =                -530.9292661042143209
    Two-Electron Energy =                 202.0948657159395339
    DFT Exchange-Correlation Energy =       0.0000000000000000
    Empirical Dispersion Energy =           0.0000000000000000
    PCM Polarization Energy =               0.0000000000000000
    EFP Energy =                            0.0000000000000000
    Total Energy =                       -193.1939155046354699
    Molecular point group: c1
  Basis Set: CC-PVTZ
  Basis Set:

  -Total Gradient:
     Atom            X                  Y                   Z
    ------   -----------------  -----------------  -----------------
       1        0.000282810405     0.000159499622     0.000359346266
       2       -0.000405053802    -0.000238026956    -0.000548018227
       3        0.000260498982     0.000200826062     0.000413954255
       4       -0.000143559675    -0.000113316661    -0.000245229873
       5       -0.000004202557     0.000001575082     0.000001511338
       6        0.000004332699    -0.000013907328    -0.000008927809
       7       -0.000002303457     0.000010281606     0.000016431907
       8       -0.000000721480    -0.000002796620     0.000001791626
       9       -0.000001820088    -0.000001917704     0.000001165005
      10        0.000001714611     0.000004504466     0.000009302015
      11        0.000009448077    -0.000003228364     0.000001725131
      12       -0.000001143713    -0.000003493203    -0.000003051633

  **** Optimization is complete! (in 6 steps) ****
    Final optimized geometry and variables:
    Molecular point group: c1

    Geometry (in Angstrom), charge = 0, multiplicity = 1:

    H            0.937063814765     1.165447557638    -0.949912215916
    O            0.195558155499     1.260863998905    -0.382693253338
    C           -0.027783798797     0.076756239925     0.350810235345
    C            1.125646180067    -0.900535347046     0.191354449522
    C           -1.359638330351    -0.526342059700    -0.064476386082
    H           -0.090634357069     0.367088086597     1.394728202697
    H            1.224348621754    -1.212348014498    -0.844665730245
    H            2.059651798795    -0.447205405286     0.504770036955
    H            0.965685294288    -1.787738750552     0.791640114153
    H           -1.327690718758    -0.846587071618    -1.100414207598
    H           -2.147623001001     0.208930893762     0.036353807135
    H           -1.607529914372    -1.382752509567     0.553366899103

  Mulliken Charges: (a.u.)
   Center  Symbol    Alpha    Beta     Spin     Total
       1     H     0.39212  0.39212  0.00000  0.21575
       2     O     4.21113  4.21113  0.00000 -0.42226
       3     C     2.92090  2.92090  0.00000  0.15820
       4     C     3.15959  3.15959  0.00000 -0.31918
       5     C     3.13700  3.13700  0.00000 -0.27401
       6     H     0.45935  0.45935  0.00000  0.08131
       7     H     0.45592  0.45592  0.00000  0.08815
       8     H     0.44656  0.44656  0.00000  0.10688
       9     H     0.45107  0.45107  0.00000  0.09787
      10     H     0.45976  0.45976  0.00000  0.08048
      11     H     0.44662  0.44662  0.00000  0.10677
      12     H     0.45998  0.45998  0.00000  0.08004

   Total alpha = 17.00000, Total beta = 17.00000, Total charge = -0.00000

*** Psi4 exiting successfully. Buy a developer a beer!
