  ==> Input File <==

--------------------------------------------------------------------------
set {
	reference rhf
	basis 6-31G*
}

set_num_threads( 4 )
memory 2 gb

molecule MOL {
0 1

H	 -1.836216	 1.387520	 -0.000064
C	 -1.301823	 0.443321	 -0.000031
O	 -0.003969	 0.658512	 0.000451
O	 -1.829879	 -0.616434	 -0.000857
C	 0.850537	 -0.484732	 0.000380
C	 1.722377	 -0.399786	 -1.233718
H	 0.239311	 -1.376764	 -0.000086
H	 1.437721	 -0.481677	 0.908400
H	 1.117110	 -0.395903	 -2.132979
H	 2.389751	 -1.254392	 -1.272361
H	 2.321392	 0.503479	 -1.220248

	symmetry c1
}
set optking {
	frozen_dihedral = ("
		7 5 3 2
	")
}

ee = optimize('scf')
oeprop('DIPOLE', 'QUADRUPOLE', 'MULLIKEN_CHARGES')
f=open( 'psi4out.xyz', 'w' )
f.write( "11  " )
f.write( str(ee) + "\n" )
f.write( MOL.save_string_xyz() )
f.close()
--------------------------------------------------------------------------

    Molecular point group: c1
  Charge       = 0
  Multiplicity = 1
  Basis Set: 6-31G*
  Basis Set:
  @DF-RHF Final Energy:  -266.82611889568221
    Total Energy =                       -266.8261188956821570
    Molecular point group: c1
  Basis Set: 6-31G*
  Basis Set:
  Basis Set: 6-31G*
  Basis Set:
  @DF-RHF Final Energy:  -266.82653750083631
    Total Energy =                       -266.8265375008360252
  Basis Set: 6-31G*
  Basis Set:
  Basis Set: 6-31G*
  Basis Set:
  @DF-RHF Final Energy:  -266.82598044179224
    Total Energy =                       -266.8259804417920691
  Basis Set: 6-31G*
  Basis Set:
  Basis Set: 6-31G*
  Basis Set:
  @DF-RHF Final Energy:  -266.82693689389760
    Total Energy =                       -266.8269368938975958
  Basis Set: 6-31G*
  Basis Set:
  Basis Set: 6-31G*
  Basis Set:
  @DF-RHF Final Energy:  -266.82699640842111
    Total Energy =                       -266.8269964084214507
  Basis Set: 6-31G*
  Basis Set:
  Basis Set: 6-31G*
  Basis Set:
  @DF-RHF Final Energy:  -266.82700971465397
    Total Energy =                       -266.8270097146540820
  Basis Set: 6-31G*
  Basis Set:
  Charge       = 0
  Multiplicity = 1
  Basis Set: 6-31G*
  Basis Set:

    Orbital Energies (a.u.)
    -----------------------

    Doubly Occupied:

       1A    -20.612143     2A    -20.556113     3A    -11.379742
       4A    -11.290558     5A    -11.226435     6A     -1.473730
       7A     -1.374279     8A     -1.051603     9A     -0.907685
      10A     -0.800370    11A     -0.744930    12A     -0.683609
      13A     -0.665573    14A     -0.610718    15A     -0.571059
      16A     -0.551357    17A     -0.533414    18A     -0.503710
      19A     -0.456168    20A     -0.453493

  @DF-RHF Final Energy:  -266.82701016808358

   => Energetics <=

    Nuclear Repulsion Energy =            179.6831923648728946
    One-Electron Energy =                -720.1270274843420793
    Two-Electron Energy =                 273.6168249513855812
    DFT Exchange-Correlation Energy =       0.0000000000000000
    Empirical Dispersion Energy =           0.0000000000000000
    PCM Polarization Energy =               0.0000000000000000
    EFP Energy =                            0.0000000000000000
    Total Energy =                       -266.8270101680836319
    Molecular point group: c1
  Basis Set: 6-31G*
  Basis Set:

  -Total Gradient:
     Atom            X                  Y                   Z
    ------   -----------------  -----------------  -----------------
       1       -0.000003253467     0.000004576253     0.000009532480
       2       -0.000025041396    -0.000008596967     0.000045482846
       3        0.000003301413     0.000004640269    -0.000103975063
       4        0.000015887497     0.000012413046     0.000009226583
       5       -0.000003431924    -0.000016908940     0.000124502565
       6        0.000017914849     0.000002795006    -0.000002193323
       7       -0.000005027537    -0.000005329519    -0.000066655740
       8       -0.000010335178     0.000004528677    -0.000004419055
       9        0.000002453341    -0.000000073389     0.000003550484
      10        0.000003685266     0.000001137759    -0.000006497500
      11        0.000003847140     0.000000817805    -0.000008554277

  **** Optimization is complete! (in 7 steps) ****
    Final optimized geometry and variables:
    Molecular point group: c1

    Geometry (in Angstrom), charge = 0, multiplicity = 1:

    H           -1.693129889069     1.501421872569     0.284430731819
    C           -1.195198162845     0.537817139872     0.267739126866
    O            0.109375715708     0.716815419697     0.254034433405
    O           -1.768646713993    -0.497882489040     0.262263173195
    C            0.979778684793    -0.416703424262     0.225790886921
    C            1.876011485735    -0.320558032476    -0.992913299110
    H            0.391181950217    -1.319164725171     0.219438677202
    H            1.557077604318    -0.379809568658     1.139741563757
    H            1.290485110038    -0.365024405195    -1.904482007396
    H            2.581243999879    -1.145616625626    -0.998962736993
    H            2.434591521697     0.608318279688    -0.988112687235

  Mulliken Charges: (a.u.)
   Center  Symbol    Alpha    Beta     Spin     Total
       1     H     0.41225  0.41225  0.00000  0.17550
       2     C     2.72648  2.72648  0.00000  0.54705
       3     O     4.29246  4.29246  0.00000 -0.58491
       4     O     4.26344  4.26344  0.00000 -0.52688
       5     C     3.01583  3.01583  0.00000 -0.03166
       6     C     3.24739  3.24739  0.00000 -0.49478
       7     H     0.39321  0.39321  0.00000  0.21357
       8     H     0.41085  0.41085  0.00000  0.17831
       9     H     0.41151  0.41151  0.00000  0.17698
      10     H     0.41607  0.41607  0.00000  0.16787
      11     H     0.41052  0.41052  0.00000  0.17895

   Total alpha = 20.00000, Total beta = 20.00000, Total charge =  0.00000
