  ==> Input File <==

--------------------------------------------------------------------------
set {
	reference rhf
	basis cc-pvtz
}

set_num_threads( 4 )
memory 2 gb

molecule MOL {
0 1

H	 -2.816458	 -0.841657	 -0.064679
N	 -1.878861	 -0.711874	 0.250184
C	 -1.341419	 0.551458	 -0.220231
H	 -1.333674	 -1.468530	 -0.105118
C	 0.082190	 0.731516	 0.254705
H	 -1.357065	 0.652078	 -1.304747
H	 -1.939897	 1.357530	 0.189797
O	 0.881195	 -0.248324	 -0.336237
H	 0.440901	 1.722476	 -0.020063
H	 0.119896	 0.643586	 1.338114
C	 0.254836	 -0.973038	 -1.342062
H	 0.962101	 -1.697273	 -1.719745
H	 -0.618914	 -1.501395	 -0.966435
H	 -0.058309	 -0.329053	 -2.160467

	symmetry c1
}
set optking {
	frozen_dihedral = ("
		11 8 5 3
	")
}

ee = optimize('scf')
oeprop('DIPOLE', 'QUADRUPOLE', 'MULLIKEN_CHARGES')
f=open( 'psi4out.xyz', 'w' )
f.write( "14  " )
f.write( str(ee) + "\n" )
f.write( MOL.save_string_xyz() )
f.close()
--------------------------------------------------------------------------

    Molecular point group: c1
  Charge       = 0
  Multiplicity = 1
  Basis Set: CC-PVTZ
  Basis Set:
  @DF-RHF Final Energy:  -248.16226462517628
    Total Energy =                       -248.1622646251760216
    Molecular point group: c1
  Basis Set: CC-PVTZ
  Basis Set:
  Basis Set: CC-PVTZ
  Basis Set:
  @DF-RHF Final Energy:  -248.19782714363254
    Total Energy =                       -248.1978271436327645
  Basis Set: CC-PVTZ
  Basis Set:
  Basis Set: CC-PVTZ
  Basis Set:
  @DF-RHF Final Energy:  -248.20820860021561
    Total Energy =                       -248.2082086002157553
  Basis Set: CC-PVTZ
  Basis Set:
  Basis Set: CC-PVTZ
  Basis Set:
  @DF-RHF Final Energy:  -248.21028890486116
    Total Energy =                       -248.2102889048609882
  Basis Set: CC-PVTZ
  Basis Set:
  @DF-RHF Final Energy:  -248.21112607734412
    Total Energy =                       -248.2111260773442609
  @DF-RHF Final Energy:  -248.21136355478100
    Total Energy =                       -248.2113635547808599
  @DF-RHF Final Energy:  -248.21154833840907
    Total Energy =                       -248.2115483384093295
  @DF-RHF Final Energy:  -248.21165470555817
    Total Energy =                       -248.2116547055580895
  Basis Set: CC-PVTZ
  Basis Set:
  @DF-RHF Final Energy:  -248.21172247059573
    Total Energy =                       -248.2117224705956460
  Basis Set: CC-PVTZ
  Basis Set:
  Basis Set: CC-PVTZ
  Basis Set:
  @DF-RHF Final Energy:  -248.21176670173895
    Total Energy =                       -248.2117667017387816
  Basis Set: CC-PVTZ
  Basis Set:
  Basis Set: CC-PVTZ
  Basis Set:
  @DF-RHF Final Energy:  -248.21177382135258
    Total Energy =                       -248.2117738213524945
  Basis Set: CC-PVTZ
  Basis Set:
  Charge       = 0
  Multiplicity = 1
  Basis Set: CC-PVTZ
  Basis Set:

    Orbital Energies (a.u.)
    -----------------------

    Doubly Occupied:

       1A    -20.543455     2A    -15.534235     3A    -11.265333
       4A    -11.264418     5A    -11.248624     6A     -1.372564
       7A     -1.184195     8A     -1.002812     9A     -0.924936
      10A     -0.806003    11A     -0.687681    12A     -0.677258
      13A     -0.647504    14A     -0.613817    15A     -0.608361
      16A     -0.550625    17A     -0.538145    18A     -0.522366
      19A     -0.452705    20A     -0.409944    21A     -0.392511

  @DF-RHF Final Energy:  -248.21177460298381

   => Energetics <=

    Nuclear Repulsion Energy =            196.6025771793624415
    One-Electron Energy =                -727.1337246974123900
    Two-Electron Energy =                 282.3193729150660829
    DFT Exchange-Correlation Energy =       0.0000000000000000
    Empirical Dispersion Energy =           0.0000000000000000
    PCM Polarization Energy =               0.0000000000000000
    EFP Energy =                            0.0000000000000000
    Total Energy =                       -248.2117746029838372
    Molecular point group: c1
  Basis Set: CC-PVTZ
  Basis Set:

  -Total Gradient:
     Atom            X                  Y                   Z
    ------   -----------------  -----------------  -----------------
       1       -0.000017896803    -0.000014520613    -0.000008464742
       2        0.000048218818     0.000042137755     0.000003626539
       3        0.000558302447     0.002381750950    -0.002577441899
       4       -0.000005483063     0.000010915093    -0.000009229491
       5       -0.001411219271    -0.005121495341     0.005104670576
       6       -0.000007976737     0.000000996919     0.000023911093
       7       -0.000026426629    -0.000018198233     0.000016558094
       8        0.001968901538     0.005696892120    -0.005055274411
       9        0.000000299857     0.000002650431     0.000003435082
      10        0.000014704005    -0.000017273979    -0.000010365232
      11       -0.001157380265    -0.002990330659     0.002542882206
      12        0.000007396746    -0.000005654393    -0.000026938964
      13        0.000014750571     0.000023362213    -0.000021790252
      14        0.000013808789     0.000008767740     0.000014421401

  **** Optimization is complete! (in 12 steps) ****
    Final optimized geometry and variables:
    Molecular point group: c1

    Geometry (in Angstrom), charge = 0, multiplicity = 1:

    H           -2.674654039383    -0.416040069409     0.537263720817
    N           -1.706288561037    -0.403288937150     0.776862372792
    C           -1.019047983610     0.703846167650     0.130818307597
    H           -1.322709729306    -1.286176201000     0.519327329294
    C            0.450725627462     0.779359085256     0.513664876410
    H           -1.126841536098     0.714592133528    -0.951494891179
    H           -1.471572457323     1.619346458671     0.493722248181
    O            1.351938846412    -0.096066050162    -0.122185337512
    H            0.790141752600     1.790415200213     0.306887519074
    H            0.539886547855     0.610265196122     1.578661144847
    C            0.973942534143    -0.865173259752    -1.214193395277
    H            1.833918693723    -1.461698271882    -1.483272597222
    H            0.152957488801    -1.540573795939    -0.997318559549
    H            0.700743664586    -0.260856032249    -2.075161973162

  Mulliken Charges: (a.u.)
   Center  Symbol    Alpha    Beta     Spin     Total
       1     H     0.42874  0.42874  0.00000  0.14252
       2     N     3.68983  3.68983  0.00000 -0.37967
       3     C     3.06055  3.06055  0.00000 -0.12110
       4     H     0.42540  0.42540  0.00000  0.14920
       5     C     2.96400  2.96400  0.00000  0.07200
       6     H     0.45622  0.45622  0.00000  0.08756
       7     H     0.44617  0.44617  0.00000  0.10766
       8     O     4.18216  4.18216  0.00000 -0.36433
       9     H     0.46553  0.46553  0.00000  0.06894
      10     H     0.45827  0.45827  0.00000  0.08346
      11     C     3.03429  3.03429  0.00000 -0.06859
      12     H     0.43979  0.43979  0.00000  0.12042
      13     H     0.47890  0.47890  0.00000  0.04219
      14     H     0.47013  0.47013  0.00000  0.05975

   Total alpha = 21.00000, Total beta = 21.00000, Total charge = -0.00000
