                              Psi4 1.0.54 Driver

  ==> Input File <==

--------------------------------------------------------------------------
set {
	reference rhf
	basis cc-pvtz
}

set_num_threads( 4 )
memory 2 gb

molecule MOL {
0 1

H	 3.721163	 -1.214152	 -2.238193
C	 3.223051	 -1.227664	 -1.276003
C	 1.948263	 -0.391817	 -1.306453
H	 3.007083	 -2.262326	 -1.031318
H	 3.923408	 -0.853311	 -0.536831
C	 1.215950	 -0.382441	 0.027187
H	 1.274936	 -0.766334	 -2.069430
H	 2.194488	 0.629861	 -1.585960
N	 0.000002	 0.398953	 -0.040851
H	 0.947492	 -1.399790	 0.295702
H	 1.892539	 -0.025701	 0.809521
C	 -1.215959	 -0.382435	 0.027143
H	 -0.000012	 1.086078	 0.683841
C	 -2.451944	 0.502410	 -0.038737
H	 -1.221867	 -1.069392	 -0.813828
H	 -1.259993	 -0.999709	 0.929424
C	 -3.752217	 -0.292550	 0.005776
H	 -2.407325	 1.093801	 -0.946480
H	 -2.431979	 1.206234	 0.790023
H	 -3.817783	 -0.982946	 -0.828547
H	 -4.612613	 0.364348	 -0.042306
H	 -3.830160	 -0.871666	 0.919868

	symmetry c1
}
set optking {
	frozen_dihedral = ("
		10 6 9 12
	")
}

ee,wfn = optimize('scf', return_wfn=True)
oeprop( wfn, 'DIPOLE', 'QUADRUPOLE', 'MULLIKEN_CHARGES')
f=open( 'psi4out.xyz', 'w' )
f.write( "22  " )
f.write( str(ee) + "\n" )
f.write( MOL.save_string_xyz() )
f.close()
--------------------------------------------------------------------------

    Molecular point group: c1
  Charge       = 0
  Multiplicity = 1
  Basis Set: CC-PVTZ
  Basis Set:
  @DF-RHF Final Energy:  -290.48546052664068
    Total Energy =                       -290.4854605266409635
    Molecular point group: c1
  Basis Set: CC-PVTZ
  Basis Set:
  Basis Set: CC-PVTZ
  Basis Set:
  @DF-RHF Final Energy:  -290.46809121121231
    Total Energy =                       -290.4680912112123679
  Basis Set: CC-PVTZ
  Basis Set:
  Basis Set: CC-PVTZ
  Basis Set:
  @DF-RHF Final Energy:  -290.48598127172033
    Total Energy =                       -290.4859812717202203
  Basis Set: CC-PVTZ
  Basis Set:
  Basis Set: CC-PVTZ
  Basis Set:
  @DF-RHF Final Energy:  -290.48618651390075
    Total Energy =                       -290.4861865139009751
  Basis Set: CC-PVTZ
  Basis Set:
  Basis Set: CC-PVTZ
  Basis Set:
  @DF-RHF Final Energy:  -290.48618869123612
    Total Energy =                       -290.4861886912357818
  Basis Set: CC-PVTZ
  Basis Set:
  Charge       = 0
  Multiplicity = 1
  Basis Set: CC-PVTZ
  Basis Set:

    Orbital Energies (a.u.)
    -----------------------

    Doubly Occupied:

       1A    -15.526766     2A    -11.237224     3A    -11.236865
       4A    -11.211752     5A    -11.207708     6A    -11.205045
       7A    -11.204192     8A     -1.203704     9A     -1.057730
      10A     -1.026075    11A     -0.928365    12A     -0.871813
      13A     -0.805138    14A     -0.793519    15A     -0.668523
      16A     -0.635905    17A     -0.615154    18A     -0.599230
      19A     -0.581569    20A     -0.557008    21A     -0.542815
      22A     -0.521970    23A     -0.503916    24A     -0.489753
      25A     -0.482531    26A     -0.471367    27A     -0.465280
      28A     -0.453301    29A     -0.357302

  @DF-RHF Final Energy:  -290.48618959220750

   => Energetics <=

    Nuclear Repulsion Energy =            315.0444772842695897
    One-Electron Energy =               -1016.1382962243725387
    Two-Electron Energy =                 410.6076293478954540
    DFT Exchange-Correlation Energy =       0.0000000000000000
    Empirical Dispersion Energy =           0.0000000000000000
    PCM Polarization Energy =               0.0000000000000000
    EFP Energy =                            0.0000000000000000
    Total Energy =                       -290.4861895922074382
    Molecular point group: c1
  Basis Set: CC-PVTZ
  Basis Set:

  -Total Gradient:
     Atom            X                  Y                   Z
    ------   -----------------  -----------------  -----------------
       1        0.000000083151    -0.000003676796    -0.000011740644
       2        0.000005242294    -0.000022134049    -0.000004418094
       3       -0.000000381340     0.000034682384     0.000038472788
       4       -0.000002885891    -0.000001692601     0.000005500123
       5       -0.000005320970     0.000009342875     0.000002421745
       6        0.000645530358     0.001101119571     0.002396184472
       7       -0.000003197607    -0.000012165902    -0.000004216340
       8        0.000005980701     0.000014067508    -0.000010511735
       9       -0.000455479101    -0.000766454168    -0.002203662095
      10       -0.000449015509    -0.000738233578    -0.001479541987
      11        0.000015677158    -0.000001206183     0.000000003462
      12        0.000218659233     0.000386751268     0.001278262316
      13        0.000002441851     0.000000728965     0.000003140529
      14        0.000013956186     0.000008587169    -0.000010956275
      15        0.000002646670     0.000004505334    -0.000008108697
      16        0.000001735575    -0.000002898739     0.000008840423
      17       -0.000007315917    -0.000003955235    -0.000000097999
      18        0.000003794783     0.000007564974    -0.000014867783
      19        0.000009100720     0.000002930551     0.000002382927
      20       -0.000004167751    -0.000008719613    -0.000004347089
      21        0.000006898834    -0.000001472584     0.000000413637
      22       -0.000003983431    -0.000007671152     0.000016846320

  **** Optimization is complete! (in 6 steps) ****
    Final optimized geometry and variables:
    Molecular point group: c1

    Geometry (in Angstrom), charge = 0, multiplicity = 1:

    H            3.582920030889    -1.228068955427    -2.291452602451
    C            3.241670598265    -1.068050121468    -1.275428777658
    C            1.934899023703    -0.282856334291    -1.250169030250
    H            3.126292753980    -2.041757963243    -0.809960471895
    H            4.028027187022    -0.541491234133    -0.743749777305
    C            1.420330270907    -0.031996324874     0.163290530665
    H            1.172675463994    -0.816256159462    -1.809919002059
    H            2.064513165727     0.672884956858    -1.746852664629
    N            0.159877158493     0.697932744595     0.167459588301
    H            1.306301002182    -0.989703999505     0.667554886718
    H            2.169654102514     0.522035595626     0.720877379118
    C           -0.994396652276    -0.056157800866     0.610048381537
    H            0.242471627041     1.528920710319     0.709680757420
    C           -2.262938274353     0.780768512514     0.543865192140
    H           -1.104304925926    -0.920606252740    -0.037766092198
    H           -0.869663677049    -0.444744884172     1.624628780487
    C           -3.502727351149     0.012794276965     0.988800826139
    H           -2.389901147172     1.139071031390    -0.471612018724
    H           -2.141602432028     1.662101058553     1.169419330679
    H           -3.669739251548    -0.857653538028     0.363076926104
    H           -4.388156877418     0.634659584746     0.930484631221
    H           -3.408129697554    -0.330880342636     2.013502533551

  Mulliken Charges: (a.u.)
   Center  Symbol    Alpha    Beta     Spin     Total
       1     H     0.44783  0.44783  0.00000  0.10435
       2     C     3.15519  3.15519  0.00000 -0.31038
       3     C     3.06573  3.06573  0.00000 -0.13146
       4     H     0.45611  0.45611  0.00000  0.08777
       5     H     0.45681  0.45681  0.00000  0.08637
       6     C     3.04436  3.04436  0.00000 -0.08872
       7     H     0.45689  0.45689  0.00000  0.08622
       8     H     0.45502  0.45502  0.00000  0.08996
       9     N     3.64023  3.64023  0.00000 -0.28045
      10     H     0.46361  0.46361  0.00000  0.07279
      11     H     0.45425  0.45425  0.00000  0.09149
      12     C     3.02402  3.02402  0.00000 -0.04803
      13     H     0.44473  0.44473  0.00000  0.11053
      14     C     3.08277  3.08277  0.00000 -0.16555
      15     H     0.45905  0.45905  0.00000  0.08190
      16     H     0.47244  0.47244  0.00000  0.05512
      17     C     3.15338  3.15338  0.00000 -0.30676
      18     H     0.44921  0.44921  0.00000  0.10157
      19     H     0.45960  0.45960  0.00000  0.08080
      20     H     0.45482  0.45482  0.00000  0.09037
      21     H     0.44770  0.44770  0.00000  0.10460
      22     H     0.45624  0.45624  0.00000  0.08753

   Total alpha = 29.00000, Total beta = 29.00000, Total charge =  0.00000

*** Psi4 exiting successfully. Buy a developer a beer!
