                              Psi4 1.0.54 Driver

  ==> Input File <==

--------------------------------------------------------------------------
set {
	reference rhf
	basis cc-pvtz
}

set_num_threads( 4 )
memory 2 gb

molecule MOL {
0 1

H	 1.159738	 0.940574	 1.822762
O	 1.358071	 0.302636	 1.160833
C	 0.706474	 0.636793	 -0.025501
C	 -0.793473	 0.591216	 0.050087
H	 1.047528	 -0.070370	 -0.772430
H	 1.011127	 1.623032	 -0.370779
C	 -1.534243	 -0.493009	 -0.013340
H	 -1.266611	 1.552628	 0.164437
H	 -1.101195	 -1.466332	 -0.144046
H	 -2.604242	 -0.437780	 0.050785

	symmetry c1
}
set optking {
	frozen_dihedral = ("
		5 3 4 7
	")
}

ee,wfn = optimize('scf', return_wfn=True)
oeprop( wfn, 'DIPOLE', 'QUADRUPOLE', 'MULLIKEN_CHARGES')
f=open( 'psi4out.xyz', 'w' )
f.write( "10  " )
f.write( str(ee) + "\n" )
f.write( MOL.save_string_xyz() )
f.close()
--------------------------------------------------------------------------

    Molecular point group: c1
  Charge       = 0
  Multiplicity = 1
  Basis Set: CC-PVTZ
  Basis Set:
  @DF-RHF Final Energy:  -191.99347900724564
    Total Energy =                       -191.9934790072455826
    Molecular point group: c1
  Basis Set: CC-PVTZ
  Basis Set:
  Basis Set: CC-PVTZ
  Basis Set:
  @DF-RHF Final Energy:  -191.99402545376432
    Total Energy =                       -191.9940254537643796
  Basis Set: CC-PVTZ
  Basis Set:
  Basis Set: CC-PVTZ
  Basis Set:
  @DF-RHF Final Energy:  -191.99411444245038
    Total Energy =                       -191.9941144424504103
  Basis Set: CC-PVTZ
  Basis Set:
  Basis Set: CC-PVTZ
  Basis Set:
  @DF-RHF Final Energy:  -191.99413578168190
    Total Energy =                       -191.9941357816819618
  Basis Set: CC-PVTZ
  Basis Set:
  Basis Set: CC-PVTZ
  Basis Set:
  @DF-RHF Final Energy:  -191.99414045250100
    Total Energy =                       -191.9941404525008863
  Basis Set: CC-PVTZ
  Basis Set:
  Basis Set: CC-PVTZ
  Basis Set:
  @DF-RHF Final Energy:  -191.99414172939555
    Total Energy =                       -191.9941417293954942
  Basis Set: CC-PVTZ
  Basis Set:
  Charge       = 0
  Multiplicity = 1
  Basis Set: CC-PVTZ
  Basis Set:

    Orbital Energies (a.u.)
    -----------------------

    Doubly Occupied:

       1A    -20.549250     2A    -11.274308     3A    -11.229360
       4A    -11.225114     5A     -1.366989     6A     -1.064983
       7A     -0.924367     8A     -0.781586     9A     -0.681973
      10A     -0.663696    11A     -0.611674    12A     -0.577907
      13A     -0.554834    14A     -0.479285    15A     -0.445982
      16A     -0.377979

  @DF-RHF Final Energy:  -191.99414180071926

   => Energetics <=

    Nuclear Repulsion Energy =            118.1762157820631955
    One-Electron Energy =                -494.7221362015325781
    Two-Electron Energy =                 184.5517786187501770
    DFT Exchange-Correlation Energy =       0.0000000000000000
    Empirical Dispersion Energy =           0.0000000000000000
    PCM Polarization Energy =               0.0000000000000000
    EFP Energy =                            0.0000000000000000
    Total Energy =                       -191.9941418007192055
    Molecular point group: c1
  Basis Set: CC-PVTZ
  Basis Set:

  -Total Gradient:
     Atom            X                  Y                   Z
    ------   -----------------  -----------------  -----------------
       1       -0.000001179589     0.000005665150     0.000012986412
       2       -0.000003351023     0.000009635084     0.000012813724
       3        0.000166263152    -0.001621702271     0.002365991838
       4       -0.000163968637     0.000472061751    -0.002754017664
       5       -0.000097000112     0.001244083625    -0.001300443464
       6       -0.000005149048    -0.000001485012     0.000016153647
       7        0.000093502727    -0.000110513658     0.001662660222
       8        0.000003157963     0.000003756220    -0.000008517007
       9        0.000003244753    -0.000002620301    -0.000004255647
      10        0.000004479815     0.000001119414    -0.000003372059

  **** Optimization is complete! (in 7 steps) ****
    Final optimized geometry and variables:
    Molecular point group: c1

    Geometry (in Angstrom), charge = 0, multiplicity = 1:

    H            1.004874616062     0.575423388241     1.516942200115
    O            1.339531230825     0.034542650323     0.824506917500
    C            0.703359893300     0.353545628238    -0.384803382456
    C           -0.804188281446     0.335049351201    -0.294717132807
    H            1.041662443835    -0.375246448644    -1.107501258050
    H            1.032339301386     1.327167227269    -0.736651196874
    C           -1.526247792126    -0.763406019493    -0.322449550911
    H           -1.296206716309     1.283780621665    -0.158754406386
    H           -1.073831005653    -1.730573648500    -0.449864474575
    H           -2.594854012544    -0.738005830058    -0.219408050770

  Mulliken Charges: (a.u.)
   Center  Symbol    Alpha    Beta     Spin     Total
       1     H     0.39605  0.39605  0.00000  0.20790
       2     O     4.19702  4.19702  0.00000 -0.39403
       3     C     2.95127  2.95127  0.00000  0.09746
       4     C     3.09685  3.09685  0.00000 -0.19369
       5     H     0.45676  0.45676  0.00000  0.08649
       6     H     0.47085  0.47085  0.00000  0.05830
       7     C     3.15967  3.15967  0.00000 -0.31934
       8     H     0.41733  0.41733  0.00000  0.16535
       9     H     0.42759  0.42759  0.00000  0.14482
      10     H     0.42663  0.42663  0.00000  0.14674

   Total alpha = 16.00000, Total beta = 16.00000, Total charge = -0.00000

*** Psi4 exiting successfully. Buy a developer a beer!
