  ==> Input File <==

--------------------------------------------------------------------------
set {
	reference rhf
	basis 6-31G*
}

set_num_threads( 1 )
memory 2 gb

molecule MOL {
0 1

H	 1.136379	 0.211822	 1.465562
C	 1.135357	 0.094285	 0.374742
C	 0.065331	 0.871482	 -0.349150
O	 1.941633	 -0.601957	 -0.151457
C	 0.464089	 1.212806	 -1.792054
H	 -0.154645	 1.765229	 0.223336
H	 -0.830318	 0.251947	 -0.361388
C	 1.632654	 2.195231	 -1.879923
H	 -0.399893	 1.631884	 -2.297940
H	 0.712577	 0.297188	 -2.324535
H	 1.391957	 3.130381	 -1.383852
H	 1.872442	 2.418355	 -2.914347
H	 2.528737	 1.798127	 -1.412233

	symmetry c1
}
set optking {
	frozen_dihedral = ("
		6 3 5 9
	")
}

ee = energy('scf')
oeprop('DIPOLE', 'QUADRUPOLE', 'MULLIKEN_CHARGES')
f=open( 'psi4out.xyz', 'w' )
f.write( "13  " )
f.write( str(ee) + "\n" )
f.write( MOL.save_string_xyz() )
f.close()
--------------------------------------------------------------------------

    Molecular point group: c1

    Geometry (in Angstrom), charge = 0, multiplicity = 1:

       Center              X                  Y                   Z               Mass
    ------------   -----------------  -----------------  -----------------  -----------------
           H          0.068737057835    -0.543857081407     2.232380372780     1.007825032070
           C          0.067715057835    -0.661394081407     1.141560372780    12.000000000000
           C         -1.002310942165     0.115802918593     0.417668372780    12.000000000000
           O          0.873991057835    -1.357636081407     0.615361372780    15.994914619560
           C         -0.603552942165     0.457126918593    -1.025235627220    12.000000000000
           H         -1.222286942165     1.009549918593     0.990154372780     1.007825032070
           H         -1.897959942165    -0.503732081407     0.405430372780     1.007825032070
           C          0.565012057835     1.439551918593    -1.113104627220    12.000000000000
           H         -1.467534942165     0.876204918593    -1.531121627220     1.007825032070
           H         -0.355064942165    -0.458491081407    -1.557716627220     1.007825032070
           H          0.324315057835     2.374701918593    -0.617033627220     1.007825032070
           H          0.804800057835     1.662675918593    -2.147528627220     1.007825032070
           H          1.461095057835     1.042447918593    -0.645414627220     1.007825032070

  Charge       = 0
  Multiplicity = 1
  Basis Set: 6-31G*
  Basis Set:

    Orbital Energies (a.u.)
    -----------------------

    Doubly Occupied:

       1A    -20.564751     2A    -11.328940     3A    -11.237201
       4A    -11.226242     5A    -11.212060     6A     -1.405484
       7A     -1.077772     8A     -0.971694     9A     -0.850733
      10A     -0.765182    11A     -0.686338    12A     -0.634386
      13A     -0.631840    14A     -0.584519    15A     -0.562164
      16A     -0.522350    17A     -0.496514    18A     -0.483894
      19A     -0.480471    20A     -0.411795

  @DF-RHF Final Energy:  -230.98472733110609

   => Energetics <=

    Nuclear Repulsion Energy =            176.6984275163929112
    One-Electron Energy =                -663.0976724111675367
    Two-Electron Energy =                 255.4145175636692784
    DFT Exchange-Correlation Energy =       0.0000000000000000
    Empirical Dispersion Energy =           0.0000000000000000
    PCM Polarization Energy =               0.0000000000000000
    EFP Energy =                            0.0000000000000000
    Total Energy =                       -230.9847273311053186

  Mulliken Charges: (a.u.)
   Center  Symbol    Alpha    Beta     Spin     Total
       1     H     0.42753  0.42753  0.00000  0.14494
       2     C     2.83851  2.83851  0.00000  0.32299
       3     C     3.20994  3.20994  0.00000 -0.41988
       4     O     4.23766  4.23766  0.00000 -0.47532
       5     C     3.15320  3.15320  0.00000 -0.30640
       6     H     0.41212  0.41212  0.00000  0.17576
       7     H     0.40059  0.40059  0.00000  0.19882
       8     C     3.24626  3.24626  0.00000 -0.49251
       9     H     0.41840  0.41840  0.00000  0.16320
      10     H     0.40550  0.40550  0.00000  0.18899
      11     H     0.42445  0.42445  0.00000  0.15110
      12     H     0.41601  0.41601  0.00000  0.16797
      13     H     0.40983  0.40983  0.00000  0.18034

   Total alpha = 20.00000, Total beta = 20.00000, Total charge =  0.00000
