  ==> Input File <==

--------------------------------------------------------------------------
set {
	reference rhf
	basis cc-pvtz
}

set_num_threads( 4 )
memory 2 gb

molecule MOL {
0 1

H	 -2.498963	 -0.741158	 -0.729149
O	 -2.346257	 -0.289210	 0.080372
C	 -1.183935	 0.486039	 -0.009831
C	 0.062853	 -0.375310	 0.027457
H	 -1.178881	 1.094526	 -0.908634
H	 -1.184406	 1.155156	 0.838676
O	 1.172093	 0.457955	 -0.054438
H	 0.052476	 -1.081302	 -0.804627
H	 0.076323	 -0.955658	 0.947560
C	 1.391500	 1.242782	 1.071229
H	 1.559272	 0.631591	 1.955295
H	 2.271714	 1.842156	 0.890501
H	 0.550189	 1.904089	 1.264593

	symmetry c1
}
set optking {
	frozen_dihedral = ("
		10 7 4 8
	")
}

ee = optimize('scf')
oeprop('DIPOLE', 'QUADRUPOLE', 'MULLIKEN_CHARGES')
f=open( 'psi4out.xyz', 'w' )
f.write( "13  " )
f.write( str(ee) + "\n" )
f.write( MOL.save_string_xyz() )
f.close()
--------------------------------------------------------------------------

    Molecular point group: c1
  Charge       = 0
  Multiplicity = 1
  Basis Set: CC-PVTZ
  Basis Set:
  @DF-RHF Final Energy:  -268.05525170592909
    Total Energy =                       -268.0552517059290949
    Molecular point group: c1
  Basis Set: CC-PVTZ
  Basis Set:
  Basis Set: CC-PVTZ
  Basis Set:
  @DF-RHF Final Energy:  -268.05719724307323
    Total Energy =                       -268.0571972430731194
  Basis Set: CC-PVTZ
  Basis Set:
  Basis Set: CC-PVTZ
  Basis Set:
  @DF-RHF Final Energy:  -268.05883939428691
    Total Energy =                       -268.0588393942867924
  Basis Set: CC-PVTZ
  Basis Set:
  Basis Set: CC-PVTZ
  Basis Set:
  @DF-RHF Final Energy:  -268.05897537391365
    Total Energy =                       -268.0589753739135404
  Basis Set: CC-PVTZ
  Basis Set:
  Basis Set: CC-PVTZ
  Basis Set:
  @DF-RHF Final Energy:  -268.05898905824705
    Total Energy =                       -268.0589890582471071
  Basis Set: CC-PVTZ
  Basis Set:
  Charge       = 0
  Multiplicity = 1
  Basis Set: CC-PVTZ
  Basis Set:

    Orbital Energies (a.u.)
    -----------------------

    Doubly Occupied:

       1A    -20.555485     2A    -20.554930     3A    -11.270294
       4A    -11.269628     5A    -11.267446     6A     -1.389070
       7A     -1.371132     8A     -1.014476     9A     -0.931006
      10A     -0.835050    11A     -0.713753    12A     -0.675721
      13A     -0.659766    14A     -0.644504    15A     -0.597854
      16A     -0.569394    17A     -0.535650    18A     -0.519349
      19A     -0.468940    20A     -0.463223    21A     -0.409798

  @DF-RHF Final Energy:  -268.05899003020249

   => Energetics <=

    Nuclear Repulsion Energy =            192.4838342062075469
    One-Electron Energy =                -747.6527108267871427
    Two-Electron Energy =                 287.1098865903771298
    DFT Exchange-Correlation Energy =       0.0000000000000000
    Empirical Dispersion Energy =           0.0000000000000000
    PCM Polarization Energy =               0.0000000000000000
    EFP Energy =                            0.0000000000000000
    Total Energy =                       -268.0589900302024375
    Molecular point group: c1
  Basis Set: CC-PVTZ
  Basis Set:

  -Total Gradient:
     Atom            X                  Y                   Z
    ------   -----------------  -----------------  -----------------
       1        0.000000106601     0.000021206838     0.000004508779
       2        0.000009692755    -0.000059430487     0.000005045363
       3        0.000016126489     0.000072686063     0.000002118644
       4        0.000637017884    -0.000850359221     0.000711429886
       5        0.000007073317    -0.000004969615    -0.000001290346
       6       -0.000003915009     0.000008520092    -0.000001147274
       7        0.000804573144    -0.001097540743     0.000537262925
       8       -0.000791518990     0.000987302101    -0.000781123440
       9       -0.000008710002    -0.000003845976     0.000002533087
      10       -0.000656142871     0.000911564767    -0.000494320016
      11       -0.000001437599    -0.000005338362     0.000005178383
      12        0.000001284885     0.000021014728     0.000014338644
      13       -0.000014150601    -0.000000810185    -0.000004534634

  **** Optimization is complete! (in 6 steps) ****
    Final optimized geometry and variables:
    Molecular point group: c1

    Geometry (in Angstrom), charge = 0, multiplicity = 1:

    H           -2.209567223963    -1.139099737639    -1.023939493664
    O           -2.155236099403    -0.682031836460    -0.204394436496
    C           -1.049616827729     0.177219736813    -0.202901877040
    C            0.252508367722    -0.612228775885    -0.167075603427
    H           -1.050783695880     0.831761749010    -1.070085373618
    H           -1.153984778059     0.796981091327     0.676229306550
    O            1.390682472213     0.184756624494    -0.262934453398
    H            0.274725457562    -1.272897824267    -1.025980997998
    H            0.279982070319    -1.227116943834     0.729769106755
    C            1.689837107639     0.968736186312     0.848568844663
    H            1.702372919099     0.375079611024     1.759780777400
    H            2.674104507556     1.386281679602     0.694270720215
    H            0.987604561373     1.786131146395     0.978299186211

  Mulliken Charges: (a.u.)
   Center  Symbol    Alpha    Beta     Spin     Total
       1     H     0.39327  0.39327  0.00000  0.21347
       2     O     4.20290  4.20290  0.00000 -0.40580
       3     C     2.97638  2.97638  0.00000  0.04724
       4     C     2.98537  2.98537  0.00000  0.02926
       5     H     0.46497  0.46497  0.00000  0.07006
       6     H     0.45857  0.45857  0.00000  0.08287
       7     O     4.17779  4.17779  0.00000 -0.35558
       8     H     0.45843  0.45843  0.00000  0.08314
       9     H     0.46518  0.46518  0.00000  0.06964
      10     C     3.03417  3.03417  0.00000 -0.06835
      11     H     0.47000  0.47000  0.00000  0.06001
      12     H     0.44384  0.44384  0.00000  0.11231
      13     H     0.46914  0.46914  0.00000  0.06173

   Total alpha = 21.00000, Total beta = 21.00000, Total charge =  0.00000
