                              Psi4 1.0.54 Driver

  ==> Input File <==

--------------------------------------------------------------------------
set {
	reference rhf
	basis cc-pvtz
}

set_num_threads( 4 )
memory 2 gb

molecule MOL {
0 1

H	 1.333048	 -2.155592	 -0.864332
C	 0.543516	 -2.536387	 -0.203053
C	 -0.751070	 -1.773032	 -0.249244
O	 0.747942	 -3.479635	 0.479682
C	 -0.554654	 -0.292621	 0.086567
H	 -1.450222	 -2.242036	 0.430506
H	 -1.147110	 -1.864687	 -1.258516
C	 -1.846385	 0.513195	 -0.016346
H	 -0.153731	 -0.204939	 1.092306
H	 0.189514	 0.135510	 -0.580209
C	 -3.089953	 -0.365049	 -0.098564
H	 -1.798267	 1.154820	 -0.891143
H	 -1.925398	 1.173265	 0.842889
H	 -3.055079	 -1.012299	 -0.968245
H	 -3.988403	 0.236438	 -0.170014
H	 -3.183055	 -0.995885	 0.779079

	symmetry c1
}
set optking {
	frozen_dihedral = ("
		9 5 8 12
	")
}

ee,wfn = optimize('scf', return_wfn=True)
oeprop( wfn, 'DIPOLE', 'QUADRUPOLE', 'MULLIKEN_CHARGES')
f=open( 'psi4out.xyz', 'w' )
f.write( "16  " )
f.write( str(ee) + "\n" )
f.write( MOL.save_string_xyz() )
f.close()
--------------------------------------------------------------------------

    Molecular point group: c1
  Charge       = 0
  Multiplicity = 1
  Basis Set: CC-PVTZ
  Basis Set:
  @DF-RHF Final Energy:  -270.10663139355165
    Total Energy =                       -270.1066313935519361
    Molecular point group: c1
  Basis Set: CC-PVTZ
  Basis Set:
  Basis Set: CC-PVTZ
  Basis Set:
  @DF-RHF Final Energy:  -270.10630304459846
    Total Energy =                       -270.1063030445984623
  Basis Set: CC-PVTZ
  Basis Set:
  Basis Set: CC-PVTZ
  Basis Set:
  @DF-RHF Final Energy:  -270.11045045183164
    Total Energy =                       -270.1104504518314684
  Basis Set: CC-PVTZ
  Basis Set:
  Basis Set: CC-PVTZ
  Basis Set:
  @DF-RHF Final Energy:  -270.11018540095711
    Total Energy =                       -270.1101854009572776
  Basis Set: CC-PVTZ
  Basis Set:
  @DF-RHF Final Energy:  -270.10985374035022
    Total Energy =                       -270.1098537403502746
  @DF-RHF Final Energy:  -270.11081810444614
    Total Energy =                       -270.1108181044463663
  Basis Set: CC-PVTZ
  Basis Set:
  @DF-RHF Final Energy:  -270.11082093114999
    Total Energy =                       -270.1108209311498740
  Basis Set: CC-PVTZ
  Basis Set:
  Basis Set: CC-PVTZ
  Basis Set:
  @DF-RHF Final Energy:  -270.11082512011939
    Total Energy =                       -270.1108251201196708
  Basis Set: CC-PVTZ
  Basis Set:
  Basis Set: CC-PVTZ
  Basis Set:
  @DF-RHF Final Energy:  -270.11082618145429
    Total Energy =                       -270.1108261814543994
  Basis Set: CC-PVTZ
  Basis Set:
  Charge       = 0
  Multiplicity = 1
  Basis Set: CC-PVTZ
  Basis Set:

    Orbital Energies (a.u.)
    -----------------------

    Doubly Occupied:

       1A    -20.551940     2A    -11.321048     3A    -11.234880
       4A    -11.233776     5A    -11.227772     6A    -11.217081
       7A     -1.406727     8A     -1.094263     9A     -1.016111
      10A     -0.916721    11A     -0.811599    12A     -0.786046
      13A     -0.681283    14A     -0.646448    15A     -0.638608
      16A     -0.593482    17A     -0.579197    18A     -0.563549
      19A     -0.537783    20A     -0.516151    21A     -0.487189
      22A     -0.478840    23A     -0.464314    24A     -0.412154

  @DF-RHF Final Energy:  -270.11082625718456

   => Energetics <=

    Nuclear Repulsion Energy =            232.5673125173865969
    One-Electron Energy =                -826.5223540860019966
    Two-Electron Energy =                 323.8442153114306734
    DFT Exchange-Correlation Energy =       0.0000000000000000
    Empirical Dispersion Energy =           0.0000000000000000
    PCM Polarization Energy =               0.0000000000000000
    EFP Energy =                            0.0000000000000000
    Total Energy =                       -270.1108262571846694
    Molecular point group: c1
  Basis Set: CC-PVTZ
  Basis Set:

  -Total Gradient:
     Atom            X                  Y                   Z
    ------   -----------------  -----------------  -----------------
       1        0.000010293178     0.000001089027     0.000005004656
       2       -0.000012889392    -0.000011486714    -0.000002490581
       3       -0.000002594083     0.000024546453     0.000013439170
       4        0.000005515395    -0.000005015622    -0.000007866219
       5       -0.003101515779    -0.004316519482     0.002488873224
       6        0.000006227478    -0.000003175676    -0.000005586991
       7       -0.000002096210    -0.000011671618     0.000000149259
       8       -0.001978564211    -0.003760048733    -0.003959930340
       9        0.002905679715     0.004226815826    -0.001474722890
      10       -0.000001838811     0.000003071435    -0.000001806955
      11       -0.000000945605    -0.000012675575    -0.000002266843
      12        0.002171315791     0.003863294701     0.002950355240
      13        0.000008477510     0.000001674959     0.000003596837
      14       -0.000000900613    -0.000011100732    -0.000003073320
      15       -0.000003239886     0.000005102418    -0.000002194507
      16       -0.000002924478     0.000006099335    -0.000001479739

  **** Optimization is complete! (in 10 steps) ****
    Final optimized geometry and variables:
    Molecular point group: c1

    Geometry (in Angstrom), charge = 0, multiplicity = 1:

    H            2.245876725501    -0.733133819660    -0.829501729948
    C            1.462892952558    -1.174386061067    -0.198788639275
    C            0.119075584382    -0.504431180765    -0.284689574255
    O            1.709626118901    -2.106831092807     0.484778154835
    C            0.218408002926     0.975119194362     0.096580816916
    H           -0.569036385320    -1.044839673636     0.349005113325
    H           -0.221066704121    -0.596764873068    -1.313535377734
    C           -1.072835990149     1.813753708771    -0.054344035576
    H            0.596145493509     1.069307256449     1.108996493880
    H            0.985969194807     1.431501994909    -0.522196824689
    C           -2.395080772963     1.053029520548    -0.071273791112
    H           -0.990794920268     2.440252917924    -0.935913610924
    H           -1.102279438500     2.516465974051     0.771951803647
    H           -2.469467045652     0.377443093900    -0.914730277550
    H           -3.221970274355     1.750007677555    -0.138817068969
    H           -2.531268036298     0.471213095558     0.833391328537

  Mulliken Charges: (a.u.)
   Center  Symbol    Alpha    Beta     Spin     Total
       1     H     0.46500  0.46500  0.00000  0.07000
       2     C     2.91229  2.91229  0.00000  0.17541
       3     C     3.07953  3.07953  0.00000 -0.15907
       4     O     4.16344  4.16344  0.00000 -0.32688
       5     C     3.10951  3.10951  0.00000 -0.21901
       6     H     0.44037  0.44037  0.00000  0.11927
       7     H     0.44852  0.44852  0.00000  0.10297
       8     C     3.08838  3.08838  0.00000 -0.17677
       9     H     0.44277  0.44277  0.00000  0.11445
      10     H     0.44972  0.44972  0.00000  0.10057
      11     C     3.15557  3.15557  0.00000 -0.31114
      12     H     0.44993  0.44993  0.00000  0.10013
      13     H     0.44924  0.44924  0.00000  0.10152
      14     H     0.45288  0.45288  0.00000  0.09423
      15     H     0.44274  0.44274  0.00000  0.11453
      16     H     0.45011  0.45011  0.00000  0.09978

   Total alpha = 24.00000, Total beta = 24.00000, Total charge = -0.00000

*** Psi4 exiting successfully. Buy a developer a beer!
