                              Psi4 1.0.54 Driver

  ==> Input File <==

--------------------------------------------------------------------------
set {
	reference rhf
	basis cc-pvtz
}

set_num_threads( 4 )
memory 2 gb

molecule MOL {
0 1

H	 3.001745	 -0.992631	 -0.715905
N	 3.091268	 -0.241216	 -0.065538
C	 1.860978	 0.530248	 0.016256
H	 3.849478	 0.329198	 -0.377136
C	 0.644130	 -0.381765	 -0.031064
H	 1.835721	 1.204666	 -0.833114
H	 1.808789	 1.151975	 0.911067
C	 -0.678115	 0.376691	 0.025731
H	 0.693998	 -0.977147	 -0.936845
H	 0.693309	 -1.082142	 0.800523
C	 -1.900706	 -0.535531	 -0.022488
H	 -0.725296	 1.079516	 -0.802982
H	 -0.715474	 0.974884	 0.933278
C	 -3.220513	 0.226854	 0.028039
H	 -1.865036	 -1.134397	 -0.928236
H	 -1.857948	 -1.236381	 0.806820
H	 -3.309098	 0.911849	 -0.808725
H	 -4.066838	 -0.449485	 -0.008086
H	 -3.301685	 0.809374	 0.939860

	symmetry c1
}
set optking {
	frozen_dihedral = ("
		1 2 3 6
	")
}

ee,wfn = optimize('scf', return_wfn=True)
oeprop( wfn, 'DIPOLE', 'QUADRUPOLE', 'MULLIKEN_CHARGES')
f=open( 'psi4out.xyz', 'w' )
f.write( "19  " )
f.write( str(ee) + "\n" )
f.write( MOL.save_string_xyz() )
f.close()
--------------------------------------------------------------------------

    Molecular point group: c1
  Charge       = 0
  Multiplicity = 1
  Basis Set: CC-PVTZ
  Basis Set:
  @DF-RHF Final Energy:  -251.44531156983732
    Total Energy =                       -251.4453115698373722
    Molecular point group: c1
  Basis Set: CC-PVTZ
  Basis Set:
  Basis Set: CC-PVTZ
  Basis Set:
  @DF-RHF Final Energy:  -251.44699412571185
    Total Energy =                       -251.4469941257118535
  Basis Set: CC-PVTZ
  Basis Set:
  Basis Set: CC-PVTZ
  Basis Set:
  @DF-RHF Final Energy:  -251.44721677720230
    Total Energy =                       -251.4472167772022431
  Basis Set: CC-PVTZ
  Basis Set:
  Basis Set: CC-PVTZ
  Basis Set:
  @DF-RHF Final Energy:  -251.44722094329904
    Total Energy =                       -251.4472209432991576
  Basis Set: CC-PVTZ
  Basis Set:
  Charge       = 0
  Multiplicity = 1
  Basis Set: CC-PVTZ
  Basis Set:

    Orbital Energies (a.u.)
    -----------------------

    Doubly Occupied:

       1A    -15.524410     2A    -11.237366     3A    -11.213003
       4A    -11.211882     5A    -11.210775     6A    -11.206223
       7A     -1.176892     8A     -1.075439     9A     -1.000428
      10A     -0.901376    11A     -0.815410    12A     -0.791764
      13A     -0.658471    14A     -0.650880    15A     -0.615973
      16A     -0.594328    17A     -0.565164    18A     -0.545976
      19A     -0.537188    20A     -0.497299    21A     -0.484553
      22A     -0.466570    23A     -0.463075    24A     -0.450502
      25A     -0.380706

  @DF-RHF Final Energy:  -251.44722135694138

   => Energetics <=

    Nuclear Repulsion Energy =            246.1984145233603840
    One-Electron Energy =                -826.7399662543634804
    Two-Electron Energy =                 329.0943303740614851
    DFT Exchange-Correlation Energy =       0.0000000000000000
    Empirical Dispersion Energy =           0.0000000000000000
    PCM Polarization Energy =               0.0000000000000000
    EFP Energy =                            0.0000000000000000
    Total Energy =                       -251.4472213569416112
    Molecular point group: c1
  Basis Set: CC-PVTZ
  Basis Set:

  -Total Gradient:
     Atom            X                  Y                   Z
    ------   -----------------  -----------------  -----------------
       1       -0.000863772487    -0.001514706481     0.001907989188
       2        0.001439498948     0.002375598726    -0.002005103177
       3       -0.001733811333    -0.002566151074    -0.001186330434
       4        0.000001658596    -0.000000348273    -0.000008545785
       5        0.000044461620     0.000030314673    -0.000000722329
       6        0.001126506325     0.001669466566     0.001285258271
       7        0.000004301290    -0.000002233966     0.000012223742
       8       -0.000011818991    -0.000009854657     0.000000605710
       9       -0.000000060139     0.000008947071     0.000006852008
      10        0.000002777170     0.000016959504    -0.000009612028
      11       -0.000014452788     0.000009518628    -0.000008037352
      12        0.000007412426    -0.000009861066     0.000000221619
      13        0.000003708274    -0.000005528120    -0.000002982677
      14       -0.000007779047    -0.000009466126     0.000010078924
      15        0.000003486180     0.000001864300    -0.000001230889
      16       -0.000001715604     0.000002707859    -0.000000853466
      17        0.000003120861    -0.000002141589    -0.000001278130
      18       -0.000003021096     0.000001693352     0.000001994103
      19       -0.000000500208     0.000003220674    -0.000000527297

  **** Optimization is complete! (in 5 steps) ****
    Final optimized geometry and variables:
    Molecular point group: c1

    Geometry (in Angstrom), charge = 0, multiplicity = 1:

    H            3.011699028521    -0.988655308576    -0.831391479088
    N            3.088900247968    -0.230209226576    -0.187900074209
    C            1.855762871445     0.538450101179    -0.125459845532
    H            3.866055645833     0.331315406589    -0.460080067366
    C            0.642980857686    -0.376894641867    -0.074636410569
    H            1.753856745595     1.239708783673    -0.954210149637
    H            1.881812428000     1.141509381372     0.777103698085
    C           -0.674685856167     0.377659663087     0.070247641818
    H            0.613950740937    -0.979883532582    -0.980284998547
    H            0.765821688991    -1.068136692856     0.753555290465
    C           -1.893706753266    -0.539349845018     0.117001846354
    H           -0.785109775415     1.075914862764    -0.756066738310
    H           -0.646187957483     0.979411106797     0.975360855117
    C           -3.208491099960     0.218655715728     0.266338647248
    H           -1.925546027914    -1.140174065981    -0.787859494374
    H           -1.784947075547    -1.237810963152     0.942022915535
    H           -3.363106232411     0.901461221158    -0.562609608144
    H           -4.052601223919    -0.460736801583     0.296389951409
    H           -3.221708828256     0.802792202696     1.180534891605

  Mulliken Charges: (a.u.)
   Center  Symbol    Alpha    Beta     Spin     Total
       1     H     0.43032  0.43032  0.00000  0.13936
       2     N     3.69179  3.69179  0.00000 -0.38359
       3     C     3.01917  3.01917  0.00000 -0.03835
       4     H     0.43002  0.43002  0.00000  0.13996
       5     C     3.08633  3.08633  0.00000 -0.17267
       6     H     0.46949  0.46949  0.00000  0.06102
       7     H     0.45995  0.45995  0.00000  0.08011
       8     C     3.09268  3.09268  0.00000 -0.18537
       9     H     0.46070  0.46070  0.00000  0.07861
      10     H     0.44839  0.44839  0.00000  0.10323
      11     C     3.08328  3.08328  0.00000 -0.16655
      12     H     0.45607  0.45607  0.00000  0.08787
      13     H     0.45393  0.45393  0.00000  0.09213
      14     C     3.15003  3.15003  0.00000 -0.30007
      15     H     0.45503  0.45503  0.00000  0.08994
      16     H     0.45386  0.45386  0.00000  0.09228
      17     H     0.45550  0.45550  0.00000  0.08900
      18     H     0.44847  0.44847  0.00000  0.10306
      19     H     0.45499  0.45499  0.00000  0.09003

   Total alpha = 25.00000, Total beta = 25.00000, Total charge =  0.00000

*** Psi4 exiting successfully. Buy a developer a beer!
