  ==> Input File <==

--------------------------------------------------------------------------
set {
	reference rhf
	basis 6-31G*
}

set_num_threads( 4 )
memory 2 gb

molecule MOL {
0 1

O	 -0.682937	 1.318834	 -0.186099
C	 -0.860635	 0.152188	 -0.042321
C	 -2.173363	 -0.477127	 0.338347
O	 0.083258	 -0.765189	 -0.202595
H	 -2.477673	 -1.180929	 -0.427595
H	 -2.923125	 0.290956	 0.455536
H	 -2.058825	 -1.029004	 1.264191
C	 1.002317	 -0.611253	 -1.281684
C	 2.146882	 0.313200	 -0.910193
H	 0.472612	 -0.250436	 -2.150225
H	 1.360458	 -1.611719	 -1.477392
H	 2.867086	 0.350346	 -1.721769
H	 1.787601	 1.318276	 -0.728241
H	 2.653802	 -0.045624	 -0.020984

	symmetry c1
}
set optking {
	frozen_dihedral = ("
		8 4 2 1
	")
}

ee = optimize('scf')
oeprop('DIPOLE', 'QUADRUPOLE', 'MULLIKEN_CHARGES')
f=open( 'psi4out.xyz', 'w' )
f.write( "14  " )
f.write( str(ee) + "\n" )
f.write( MOL.save_string_xyz() )
f.close()
--------------------------------------------------------------------------

    Molecular point group: c1
  Charge       = 0
  Multiplicity = 1
  Basis Set: 6-31G*
  Basis Set:
  @DF-RHF Final Energy:  -305.86658465081018
    Total Energy =                       -305.8665846508101822
    Molecular point group: c1
  Basis Set: 6-31G*
  Basis Set:
  Basis Set: 6-31G*
  Basis Set:
  @DF-RHF Final Energy:  -305.86463817493330
    Total Energy =                       -305.8646381749333614
  Basis Set: 6-31G*
  Basis Set:
  Basis Set: 6-31G*
  Basis Set:
  @DF-RHF Final Energy:  -305.86767507152166
    Total Energy =                       -305.8676750715218304
  Basis Set: 6-31G*
  Basis Set:
  Basis Set: 6-31G*
  Basis Set:
  @DF-RHF Final Energy:  -305.86783285446018
    Total Energy =                       -305.8678328544604597
  Basis Set: 6-31G*
  Basis Set:
  Basis Set: 6-31G*
  Basis Set:
  @DF-RHF Final Energy:  -305.86790402951112
    Total Energy =                       -305.8679040295110099
  Basis Set: 6-31G*
  Basis Set:
  Basis Set: 6-31G*
  Basis Set:
  @DF-RHF Final Energy:  -305.86791492085149
    Total Energy =                       -305.8679149208514332
  Basis Set: 6-31G*
  Basis Set:
  Charge       = 0
  Multiplicity = 1
  Basis Set: 6-31G*
  Basis Set:

    Orbital Energies (a.u.)
    -----------------------

    Doubly Occupied:

       1A    -20.594592     2A    -20.548975     3A    -11.376879
       4A    -11.289829     5A    -11.234142     6A    -11.215744
       7A     -1.463541     8A     -1.363660     9A     -1.052929
      10A     -0.999432    11A     -0.879143    12A     -0.770838
      13A     -0.697573    14A     -0.680921    15A     -0.652829
      16A     -0.612460    17A     -0.584078    18A     -0.572148
      19A     -0.562881    20A     -0.531530    21A     -0.506424
      22A     -0.498404    23A     -0.448043    24A     -0.438880

  @DF-RHF Final Energy:  -305.86791575906148

   => Energetics <=

    Nuclear Repulsion Energy =            247.4245916463005415
    One-Electron Energy =                -907.4332646495493009
    Two-Electron Energy =                 354.1407572441872276
    DFT Exchange-Correlation Energy =       0.0000000000000000
    Empirical Dispersion Energy =           0.0000000000000000
    PCM Polarization Energy =               0.0000000000000000
    EFP Energy =                            0.0000000000000000
    Total Energy =                       -305.8679157590615318
    Molecular point group: c1
  Basis Set: 6-31G*
  Basis Set:

  -Total Gradient:
     Atom            X                  Y                   Z
    ------   -----------------  -----------------  -----------------
       1        0.002192373795     0.002179281597     0.009640369540
       2       -0.005461910940    -0.005824818617    -0.016480436117
       3       -0.000025460635    -0.000002484150    -0.000048552786
       4        0.007473271147     0.008802730270     0.011246001794
       5        0.000009717502    -0.000021274268     0.000006826611
       6        0.000007187535     0.000001036029     0.000008198375
       7        0.000014019745     0.000023791550     0.000015550258
       8       -0.004219834995    -0.005193110098    -0.004202039973
       9       -0.000072089166     0.000071372065    -0.000042325369
      10        0.000024592488     0.000014941984    -0.000048306518
      11        0.000057897992     0.000034769133    -0.000063874799
      12        0.000011846802    -0.000010032469    -0.000006907465
      13        0.000007310199    -0.000061762033    -0.000018675714
      14       -0.000018921467    -0.000014440992    -0.000005827834

  **** Optimization is complete! (in 7 steps) ****
    Final optimized geometry and variables:
    Molecular point group: c1

    Geometry (in Angstrom), charge = 0, multiplicity = 1:

    O           -0.771854468947     1.309450209014    -0.007799592479
    C           -0.846713102387     0.157996377808     0.269894272888
    C           -2.078649913631    -0.515190885536     0.809765841719
    O            0.194099240233    -0.675440910045     0.231221311279
    H           -2.393858597363    -1.297865609921     0.128391031233
    H           -2.869933895218     0.209205476474     0.932933626561
    H           -1.848936706257    -0.983727749788     1.759729271820
    C            1.120593343826    -0.550288956522    -0.847154108293
    C            2.337373294978     0.260618244510    -0.444833396855
    H            0.620612731785    -0.100587212225    -1.694209371073
    H            1.394393444803    -1.564603608157    -1.101504620658
    H            3.055860043303     0.281036014575    -1.259026210991
    H            2.053263363369     1.277288560614    -0.206256153542
    H            2.816374269073    -0.180820182530     0.422223480164

  Mulliken Charges: (a.u.)
   Center  Symbol    Alpha    Beta     Spin     Total
       1     O     4.27348  4.27348  0.00000 -0.54696
       2     C     2.62286  2.62286  0.00000  0.75427
       3     C     3.28266  3.28266  0.00000 -0.56533
       4     O     4.31050  4.31050  0.00000 -0.62101
       5     H     0.40339  0.40339  0.00000  0.19321
       6     H     0.39759  0.39759  0.00000  0.20481
       7     H     0.39837  0.39837  0.00000  0.20327
       8     C     3.00546  3.00546  0.00000 -0.01091
       9     C     3.24952  3.24952  0.00000 -0.49904
      10     H     0.41146  0.41146  0.00000  0.17708
      11     H     0.41035  0.41035  0.00000  0.17931
      12     H     0.42083  0.42083  0.00000  0.15834
      13     H     0.39980  0.39980  0.00000  0.20039
      14     H     0.41372  0.41372  0.00000  0.17256

   Total alpha = 24.00000, Total beta = 24.00000, Total charge = -0.00000
