  ==> Input File <==

--------------------------------------------------------------------------
set {
	reference rhf
	basis 6-31G*
}

set_num_threads( 4 )
memory 2 gb

molecule MOL {
0 1

O	 0.074228	 1.262779	 -0.000085
C	 0.028650	 0.075053	 -0.000277
C	 -1.233602	 -0.752807	 0.000328
O	 1.109162	 -0.694619	 -0.000298
C	 -2.501530	 0.091881	 0.000126
H	 -1.193807	 -1.406641	 -0.865785
H	 -1.193516	 -1.405779	 0.867015
H	 -2.545121	 0.729328	 -0.874513
H	 -3.377167	 -0.548497	 0.000561
H	 -2.544818	 0.730135	 0.874258
C	 1.505736	 -1.245517	 1.242613
H	 1.730816	 -0.461361	 1.951028
H	 2.389352	 -1.829626	 1.037910
H	 0.725441	 -1.875092	 1.645413

	symmetry c1
}
set optking {
	frozen_dihedral = ("
		11 4 2 3
	")
}

ee = optimize('scf')
oeprop('DIPOLE', 'QUADRUPOLE', 'MULLIKEN_CHARGES')
f=open( 'psi4out.xyz', 'w' )
f.write( "14  " )
f.write( str(ee) + "\n" )
f.write( MOL.save_string_xyz() )
f.close()
--------------------------------------------------------------------------

    Molecular point group: c1
  Charge       = 0
  Multiplicity = 1
  Basis Set: 6-31G*
  Basis Set:
  @DF-RHF Final Energy:  -305.84907978570368
    Total Energy =                       -305.8490797857035659
    Molecular point group: c1
  Basis Set: 6-31G*
  Basis Set:
  Basis Set: 6-31G*
  Basis Set:
  @DF-RHF Final Energy:  -305.85037538432601
    Total Energy =                       -305.8503753843257300
  Basis Set: 6-31G*
  Basis Set:
  Basis Set: 6-31G*
  Basis Set:
  @DF-RHF Final Energy:  -305.84998439989033
    Total Energy =                       -305.8499843998902747
  Basis Set: 6-31G*
  Basis Set:
  Basis Set: 6-31G*
  Basis Set:
  @DF-RHF Final Energy:  -305.85104506642938
    Total Energy =                       -305.8510450664291511
  Basis Set: 6-31G*
  Basis Set:
  Basis Set: 6-31G*
  Basis Set:
  @DF-RHF Final Energy:  -305.85106675039032
    Total Energy =                       -305.8510667503903164
  Basis Set: 6-31G*
  Basis Set:
  Basis Set: 6-31G*
  Basis Set:
  @DF-RHF Final Energy:  -305.85106850995635
    Total Energy =                       -305.8510685099564625
  Basis Set: 6-31G*
  Basis Set:
  Charge       = 0
  Multiplicity = 1
  Basis Set: 6-31G*
  Basis Set:

    Orbital Energies (a.u.)
    -----------------------

    Doubly Occupied:

       1A    -20.587056     2A    -20.557507     3A    -11.375919
       4A    -11.293996     5A    -11.244151     6A    -11.220158
       7A     -1.459528     8A     -1.368689     9A     -1.062706
      10A     -0.977973    11A     -0.893981    12A     -0.766763
      13A     -0.701095    14A     -0.677619    15A     -0.673226
      16A     -0.627050    17A     -0.613687    18A     -0.557814
      19A     -0.546177    20A     -0.525338    21A     -0.510949
      22A     -0.488859    23A     -0.457472    24A     -0.437127

  @DF-RHF Final Energy:  -305.85106860382120

   => Energetics <=

    Nuclear Repulsion Energy =            246.6019254895255415
    One-Electron Energy =                -905.6563087291405054
    Two-Electron Energy =                 353.2033146357937312
    DFT Exchange-Correlation Energy =       0.0000000000000000
    Empirical Dispersion Energy =           0.0000000000000000
    PCM Polarization Energy =               0.0000000000000000
    EFP Energy =                            0.0000000000000000
    Total Energy =                       -305.8510686038212043
    Molecular point group: c1
  Basis Set: 6-31G*
  Basis Set:

  -Total Gradient:
     Atom            X                  Y                   Z
    ------   -----------------  -----------------  -----------------
       1        0.000022126791    -0.000007984481     0.000004874084
       2       -0.000252288144    -0.000338734167    -0.001189276657
       3       -0.000007518606    -0.000000027882     0.000745187951
       4        0.000712714397     0.001023702949     0.000581306337
       5       -0.000005317261    -0.000005284406     0.000007166152
       6       -0.000003137533    -0.000005033756     0.000005847400
       7       -0.000000743455     0.000004155373     0.000005728552
       8       -0.000000275158    -0.000000210934    -0.000001636999
       9        0.000000755421     0.000000824266    -0.000001021190
      10        0.000000865220     0.000000338721    -0.000000202327
      11       -0.000472561104    -0.000662006134    -0.000164178703
      12        0.000007855606    -0.000007344632     0.000015154745
      13        0.000001092462    -0.000001575204    -0.000001326028
      14       -0.000003568638    -0.000000819711    -0.000007623316

  **** Optimization is complete! (in 7 steps) ****
    Final optimized geometry and variables:
    Molecular point group: c1

    Geometry (in Angstrom), charge = 0, multiplicity = 1:

    O            0.219148100325     1.451085024086    -0.255126146943
    C            0.164075776482     0.272392219759    -0.205044335650
    C           -1.120106131347    -0.525374447346    -0.209074575789
    O            1.288276973599    -0.480886071177    -0.203147271383
    C           -2.371162167437     0.343976594451    -0.237438913755
    H           -1.077511513532    -1.185079275444    -1.071441551703
    H           -1.123511941130    -1.178062226981     0.659300131965
    H           -2.383659332591     0.976689915962    -1.116143505008
    H           -3.259682455475    -0.278133115595    -0.250122211702
    H           -2.418051744512     0.988480914092     0.632151728745
    C            1.715388402678    -1.030728639792     1.023528777591
    H            1.874850832185    -0.249897983653     1.757859179217
    H            2.651000744293    -1.529398520093     0.824552118676
    H            1.004111100207    -1.753106151036     1.407981413949

  Mulliken Charges: (a.u.)
   Center  Symbol    Alpha    Beta     Spin     Total
       1     O     4.24959  4.24959  0.00000 -0.49918
       2     C     2.61635  2.61635  0.00000  0.76731
       3     C     3.21334  3.21334  0.00000 -0.42669
       4     O     4.31366  4.31366  0.00000 -0.62733
       5     C     3.23838  3.23838  0.00000 -0.47675
       6     H     0.39778  0.39778  0.00000  0.20443
       7     H     0.40739  0.40739  0.00000  0.18523
       8     H     0.40730  0.40730  0.00000  0.18539
       9     H     0.41784  0.41784  0.00000  0.16433
      10     H     0.41078  0.41078  0.00000  0.17844
      11     C     3.09258  3.09258  0.00000 -0.18516
      12     H     0.41169  0.41169  0.00000  0.17661
      13     H     0.40125  0.40125  0.00000  0.19749
      14     H     0.42206  0.42206  0.00000  0.15588

   Total alpha = 24.00000, Total beta = 24.00000, Total charge = -0.00000
