  ==> Input File <==

--------------------------------------------------------------------------
set {
	reference rhf
	basis cc-pvtz
}

set_num_threads( 4 )
memory 2 gb

molecule MOL {
0 1

O	 0.395927	 1.296676	 -0.000076
C	 0.503051	 0.114301	 -0.000074
C	 -0.701422	 -0.805636	 -0.000109
C	 1.858118	 -0.556123	 0.000212
C	 -0.490770	 -2.102767	 -0.765065
H	 -0.961865	 -1.004533	 1.036252
H	 -1.540319	 -0.247158	 -0.407286
H	 0.328657	 -2.671401	 -0.346229
H	 -1.385834	 -2.712025	 -0.726042
H	 -0.254928	 -1.907330	 -1.802569
H	 1.961106	 -1.191101	 -0.872843
H	 2.636688	 0.191085	 -0.000109
H	 1.961070	 -1.190284	 0.873873

	symmetry c1
}
set optking {
	frozen_dihedral = ("
		6 3 2 1
	")
}

ee = optimize('scf')
oeprop('DIPOLE', 'QUADRUPOLE', 'MULLIKEN_CHARGES')
f=open( 'psi4out.xyz', 'w' )
f.write( "13  " )
f.write( str(ee) + "\n" )
f.write( MOL.save_string_xyz() )
f.close()
--------------------------------------------------------------------------

    Molecular point group: c1
  Charge       = 0
  Multiplicity = 1
  Basis Set: CC-PVTZ
  Basis Set:
  @DF-RHF Final Energy:  -231.07880826466746
    Total Energy =                       -231.0788082646674866
    Molecular point group: c1
  Basis Set: CC-PVTZ
  Basis Set:
  Basis Set: CC-PVTZ
  Basis Set:
  @DF-RHF Final Energy:  -231.07890620335886
    Total Energy =                       -231.0789062033587413
  Basis Set: CC-PVTZ
  Basis Set:
  Basis Set: CC-PVTZ
  Basis Set:
  @DF-RHF Final Energy:  -231.07987828177698
    Total Energy =                       -231.0798782817769847
  Basis Set: CC-PVTZ
  Basis Set:
  Basis Set: CC-PVTZ
  Basis Set:
  @DF-RHF Final Energy:  -231.08023224624841
    Total Energy =                       -231.0802322462483005
  Basis Set: CC-PVTZ
  Basis Set:
  Basis Set: CC-PVTZ
  Basis Set:
  @DF-RHF Final Energy:  -231.08029374797991
    Total Energy =                       -231.0802937479799084
  Basis Set: CC-PVTZ
  Basis Set:
  Basis Set: CC-PVTZ
  Basis Set:
  @DF-RHF Final Energy:  -231.08032698366560
    Total Energy =                       -231.0803269836657137
  Basis Set: CC-PVTZ
  Basis Set:
  Basis Set: CC-PVTZ
  Basis Set:
  @DF-RHF Final Energy:  -231.08033243533410
    Total Energy =                       -231.0803324353340713
  Basis Set: CC-PVTZ
  Basis Set:
  Charge       = 0
  Multiplicity = 1
  Basis Set: CC-PVTZ
  Basis Set:

    Orbital Energies (a.u.)
    -----------------------

    Doubly Occupied:

       1A    -20.537267     2A    -11.321114     3A    -11.232804
       4A    -11.227528     5A    -11.227468     6A     -1.397869
       7A     -1.068680     8A     -0.994974     9A     -0.891470
      10A     -0.733238    11A     -0.655105    12A     -0.646972
      13A     -0.624140    14A     -0.588361    15A     -0.558927
      16A     -0.545930    17A     -0.530352    18A     -0.510630
      19A     -0.481738    20A     -0.402163

  @DF-RHF Final Energy:  -231.08033341288470

   => Energetics <=

    Nuclear Repulsion Energy =            177.1377314954973770
    One-Electron Energy =                -664.0826673111075706
    Two-Electron Energy =                 255.8646024027252110
    DFT Exchange-Correlation Energy =       0.0000000000000000
    Empirical Dispersion Energy =           0.0000000000000000
    PCM Polarization Energy =               0.0000000000000000
    EFP Energy =                            0.0000000000000000
    Total Energy =                       -231.0803334128849542
    Molecular point group: c1
  Basis Set: CC-PVTZ
  Basis Set:

  -Total Gradient:
     Atom            X                  Y                   Z
    ------   -----------------  -----------------  -----------------
       1       -0.000007157712     0.000020585382     0.001373957567
       2       -0.000146531795     0.000196263006    -0.001871415070
       3        0.000959265616    -0.001258945173     0.000552811901
       4        0.000004215354     0.000016201436    -0.000085403319
       5        0.000003281893    -0.000015184588    -0.000018859576
       6       -0.000815757584     0.001064847553    -0.000003282877
       7        0.000011172763    -0.000002698209    -0.000008823008
       8        0.000004096629     0.000009550194     0.000005557199
       9       -0.000005227548     0.000001540327     0.000001230811
      10       -0.000000027947    -0.000008363436     0.000003179439
      11        0.000001657653    -0.000011891365     0.000020127316
      12       -0.000007381973    -0.000005551276     0.000011886459
      13       -0.000001605347    -0.000006353849     0.000019033159

  **** Optimization is complete! (in 8 steps) ****
    Final optimized geometry and variables:
    Molecular point group: c1

    Geometry (in Angstrom), charge = 0, multiplicity = 1:

    O            0.059771829227     1.708505436521     0.141833908951
    C            0.201955119796     0.529130371420     0.138613308487
    C           -1.007608089029    -0.389540099873     0.152256699344
    C            1.580211915764    -0.089266283485     0.180667375578
    C           -0.867172607533    -1.714980360563    -0.591265786752
    H           -1.233422165735    -0.572075016133     1.200430568049
    H           -1.835273352207     0.185496261034    -0.240208178687
    H           -0.095018001041    -2.343371762601    -0.165429374952
    H           -1.798584897390    -2.264883291897    -0.544417883068
    H           -0.632039230263    -1.557795903609    -1.637918874693
    H            1.780640575726    -0.622504181623    -0.741513459460
    H            2.316488481871     0.688059212730     0.313372188039
    H            1.651321279174    -0.807368182751     0.990263540568

  Mulliken Charges: (a.u.)
   Center  Symbol    Alpha    Beta     Spin     Total
       1     O     4.17259  4.17259  0.00000 -0.34518
       2     C     2.85766  2.85766  0.00000  0.28468
       3     C     3.09750  3.09750  0.00000 -0.19500
       4     C     3.16141  3.16141  0.00000 -0.32281
       5     C     3.15745  3.15745  0.00000 -0.31490
       6     H     0.44582  0.44582  0.00000  0.10835
       7     H     0.43671  0.43671  0.00000  0.12658
       8     H     0.45245  0.45245  0.00000  0.09509
       9     H     0.44142  0.44142  0.00000  0.11716
      10     H     0.44847  0.44847  0.00000  0.10306
      11     H     0.44769  0.44769  0.00000  0.10462
      12     H     0.43221  0.43221  0.00000  0.13558
      13     H     0.44862  0.44862  0.00000  0.10277

   Total alpha = 20.00000, Total beta = 20.00000, Total charge = -0.00000
