  ==> Input File <==

--------------------------------------------------------------------------
set {
	reference rhf
	basis cc-pvtz
}

set_num_threads( 4 )
memory 2 gb

molecule MOL {
0 1

H	 0.760256	 -0.212700	 2.360616
C	 -0.203067	 -0.234259	 1.872503
O	 -0.000000	 0.000000	 0.518769
H	 -0.661060	 -1.206122	 2.044487
H	 -0.838478	 0.528381	 2.318023
C	 -1.165153	 0.000000	 -0.236961
H	 -1.229451	 0.882440	 -0.870223
H	 -2.002557	 0.000000	 0.445289
H	 -1.229451	 -0.882440	 -0.870223

	symmetry c1
}
set optking {
	frozen_dihedral = ("
		2 3 6 7
	")
}

ee = optimize('scf')
oeprop('DIPOLE', 'QUADRUPOLE', 'MULLIKEN_CHARGES')
f=open( 'psi4out.xyz', 'w' )
f.write( "9  " )
f.write( str(ee) + "\n" )
f.write( MOL.save_string_xyz() )
f.close()
--------------------------------------------------------------------------

    Molecular point group: c1
  Charge       = 0
  Multiplicity = 1
  Basis Set: CC-PVTZ
  Basis Set:
  @DF-RHF Final Energy:  -154.12263663214802
    Total Energy =                       -154.1226366321480441
    Molecular point group: c1
  Basis Set: CC-PVTZ
  Basis Set:
  Basis Set: CC-PVTZ
  Basis Set:
  @DF-RHF Final Energy:  -154.12345819213181
    Total Energy =                       -154.1234581921318636
  Basis Set: CC-PVTZ
  Basis Set:
  Basis Set: CC-PVTZ
  Basis Set:
  @DF-RHF Final Energy:  -154.12369355447606
    Total Energy =                       -154.1236935544760911
  Basis Set: CC-PVTZ
  Basis Set:
  Charge       = 0
  Multiplicity = 1
  Basis Set: CC-PVTZ
  Basis Set:

    Orbital Energies (a.u.)
    -----------------------

    Doubly Occupied:

       1A    -20.546790     2A    -11.263566     3A    -11.262661
       4A     -1.378001     5A     -0.975815     6A     -0.872635
       7A     -0.659412     8A     -0.654581     9A     -0.644837
      10A     -0.559165    11A     -0.527335    12A     -0.475139
      13A     -0.415323

  @DF-RHF Final Energy:  -154.12369542685946

   => Energetics <=

    Nuclear Repulsion Energy =             84.5970669513477418
    One-Electron Energy =                -376.9710072914767238
    Two-Electron Energy =                 138.2502449132695403
    DFT Exchange-Correlation Energy =       0.0000000000000000
    Empirical Dispersion Energy =           0.0000000000000000
    PCM Polarization Energy =               0.0000000000000000
    EFP Energy =                            0.0000000000000000
    Total Energy =                       -154.1236954268594275
    Molecular point group: c1
  Basis Set: CC-PVTZ
  Basis Set:

  -Total Gradient:
     Atom            X                  Y                   Z
    ------   -----------------  -----------------  -----------------
       1        0.000011578890     0.000003436220    -0.000018483195
       2       -0.000144812875     0.001183702032     0.000225392845
       3       -0.000080669856    -0.001486417345    -0.000110380531
       4        0.000000471072     0.000020067721    -0.000035627725
       5       -0.000002423538     0.000001390761    -0.000038012334
       6        0.000858363888    -0.000461780342    -0.001107293824
       7       -0.000634532398     0.000733564547     0.001112177677
       8       -0.000032756068     0.000004316950    -0.000004313089
       9        0.000024780886     0.000001719456    -0.000023459823

  **** Optimization is complete! (in 4 steps) ****
    Final optimized geometry and variables:
    Molecular point group: c1

    Geometry (in Angstrom), charge = 0, multiplicity = 1:

    H            1.260982624545    -0.124502010547     1.620074136248
    C            0.285498324008    -0.151458389505     1.156043556833
    O            0.459386587680     0.076971596222    -0.203500619991
    H           -0.162961421728    -1.123759044392     1.348121468251
    H           -0.338850208978     0.612540263707     1.613267260249
    C           -0.704679191016     0.080281634039    -0.971247351697
    H           -0.722792694371     0.970821792443    -1.587391692136
    H           -1.596821394804     0.085114045841    -0.352512245419
    H           -0.739240648829    -0.794320702417    -1.612193167119

  Mulliken Charges: (a.u.)
   Center  Symbol    Alpha    Beta     Spin     Total
       1     H     0.44979  0.44979  0.00000  0.10042
       2     C     3.02077  3.02077  0.00000 -0.04155
       3     O     4.17267  4.17267  0.00000 -0.34533
       4     H     0.47326  0.47326  0.00000  0.05347
       5     H     0.47284  0.47284  0.00000  0.05432
       6     C     3.01632  3.01632  0.00000 -0.03265
       7     H     0.45719  0.45719  0.00000  0.08563
       8     H     0.47509  0.47509  0.00000  0.04983
       9     H     0.46207  0.46207  0.00000  0.07586

   Total alpha = 13.00000, Total beta = 13.00000, Total charge = -0.00000
