  ==> Input File <==

--------------------------------------------------------------------------
set {
	reference rhf
	basis 6-31G*
}

set_num_threads( 1 )
memory 2 gb

molecule MOL {
0 1

H	 3.276176	 0.174363	 -0.109463
N	 2.434251	 -0.367735	 -0.081097
C	 1.267428	 0.496480	 0.024474
H	 2.501951	 -0.965776	 0.720575
C	 -0.016086	 -0.325158	 -0.029487
H	 1.288818	 1.183521	 -0.816092
H	 1.267576	 1.109062	 0.929528
C	 -1.282277	 0.529072	 0.046735
H	 -0.012495	 -0.908639	 -0.945788
H	 -0.015903	 -1.041248	 0.791956
C	 -1.121982	 1.891034	 -0.627853
H	 -1.556356	 0.674844	 1.089624
H	 -2.110393	 -0.005306	 -0.414371
H	 -0.323767	 2.464865	 -0.166017
H	 -2.034073	 2.475446	 -0.556620
H	 -0.881274	 1.780460	 -1.681444

	symmetry c1
}
set optking {
	frozen_dihedral = ("
		6 3 5 9,
		1 2 3 6
	")
}

ee = energy('scf')
oeprop('DIPOLE', 'QUADRUPOLE', 'MULLIKEN_CHARGES')
f=open( 'psi4out.xyz', 'w' )
f.write( "16  " )
f.write( str(ee) + "\n" )
f.write( MOL.save_string_xyz() )
f.close()
--------------------------------------------------------------------------

    Molecular point group: c1

    Geometry (in Angstrom), charge = 0, multiplicity = 1:

       Center              X                  Y                   Z               Mass
    ------------   -----------------  -----------------  -----------------  -----------------
           H          2.979781662824    -0.276369099777     0.018276255938     1.007825032070
           N          2.137856662824    -0.818467099777     0.046642255938    14.003074004780
           C          0.971033662824     0.045747900223     0.152213255938    12.000000000000
           H          2.205556662824    -1.416508099777     0.848314255938     1.007825032070
           C         -0.312480337176    -0.775890099777     0.098252255938    12.000000000000
           H          0.992423662824     0.732788900223    -0.688352744062     1.007825032070
           H          0.971181662824     0.658329900223     1.057267255938     1.007825032070
           C         -1.578671337176     0.078339900223     0.174474255938    12.000000000000
           H         -0.308889337176    -1.359371099777    -0.818048744062     1.007825032070
           H         -0.312297337176    -1.491980099777     0.919695255938     1.007825032070
           C         -1.418376337176     1.440301900223    -0.500113744062    12.000000000000
           H         -1.852750337176     0.224111900223     1.217363255938     1.007825032070
           H         -2.406787337176    -0.456038099777    -0.286631744062     1.007825032070
           H         -0.620161337176     2.014132900223    -0.038277744062     1.007825032070
           H         -2.330467337176     2.024713900223    -0.428880744062     1.007825032070
           H         -1.177668337176     1.329727900223    -1.553704744062     1.007825032070

  Charge       = 0
  Multiplicity = 1
  Basis Set: 6-31G*
  Basis Set:

    Orbital Energies (a.u.)
    -----------------------

    Doubly Occupied:

       1A    -15.532129     2A    -11.238808     3A    -11.214457
       4A    -11.208970     5A    -11.207608     6A     -1.176485
       7A     -1.061731     8A     -0.950588     9A     -0.865786
      10A     -0.772629    11A     -0.664219    12A     -0.637089
      13A     -0.610880    14A     -0.589660    15A     -0.541564
      16A     -0.531271    17A     -0.514086    18A     -0.468131
      19A     -0.459932    20A     -0.455325    21A     -0.380608

  @DF-RHF Final Energy:  -212.31002141968474

   => Energetics <=

    Nuclear Repulsion Energy =            190.7982791313680195
    One-Electron Energy =                -664.0525673702017002
    Two-Electron Energy =                 260.9442668191491634
    DFT Exchange-Correlation Energy =       0.0000000000000000
    Empirical Dispersion Energy =           0.0000000000000000
    PCM Polarization Energy =               0.0000000000000000
    EFP Energy =                            0.0000000000000000
    Total Energy =                       -212.3100214196845172

  Mulliken Charges: (a.u.)
   Center  Symbol    Alpha    Beta     Spin     Total
       1     H     0.33268  0.33268  0.00000  0.33465
       2     N     3.92182  3.92182  0.00000 -0.84364
       3     C     3.06592  3.06592  0.00000 -0.13184
       4     H     0.33566  0.33566  0.00000  0.32868
       5     C     3.15231  3.15231  0.00000 -0.30463
       6     H     0.41647  0.41647  0.00000  0.16705
       7     H     0.43473  0.43473  0.00000  0.13054
       8     C     3.15508  3.15508  0.00000 -0.31016
       9     H     0.41285  0.41285  0.00000  0.17430
      10     H     0.42545  0.42545  0.00000  0.14911
      11     C     3.24790  3.24790  0.00000 -0.49580
      12     H     0.42285  0.42285  0.00000  0.15429
      13     H     0.41890  0.41890  0.00000  0.16220
      14     H     0.41910  0.41910  0.00000  0.16179
      15     H     0.41833  0.41833  0.00000  0.16334
      16     H     0.41994  0.41994  0.00000  0.16012

   Total alpha = 21.00000, Total beta = 21.00000, Total charge = -0.00000
