  ==> Input File <==

--------------------------------------------------------------------------
set {
	reference rhf
	basis cc-pvtz
}

set_num_threads( 4 )
memory 2 gb

molecule MOL {
0 1

H	 3.273419	 0.176595	 -0.102789
N	 2.433987	 -0.362316	 -0.080024
C	 1.263552	 0.494993	 0.021953
H	 2.497638	 -0.973615	 0.707122
C	 -0.016533	 -0.325589	 -0.026925
H	 1.280915	 1.180773	 -0.818522
H	 1.263064	 1.106893	 0.925038
C	 -1.280353	 0.525521	 0.047747
H	 -0.016686	 -0.912532	 -0.939714
H	 -0.014099	 -1.037598	 0.796369
C	 -2.558219	 -0.306024	 0.087512
H	 -1.314026	 1.193802	 -0.808543
H	 -1.238400	 1.161214	 0.928093
H	 -2.646844	 -0.928641	 -0.796357
H	 -3.437268	 0.326296	 0.136441
H	 -2.572606	 -0.959872	 0.953224

	symmetry c1
}
set optking {
	frozen_dihedral = ("
		12 8 5 9
	")
}

ee = optimize('scf')
oeprop('DIPOLE', 'QUADRUPOLE', 'MULLIKEN_CHARGES')
f=open( 'psi4out.xyz', 'w' )
f.write( "16  " )
f.write( str(ee) + "\n" )
f.write( MOL.save_string_xyz() )
f.close()
--------------------------------------------------------------------------

    Molecular point group: c1
  Charge       = 0
  Multiplicity = 1
  Basis Set: CC-PVTZ
  Basis Set:
  @DF-RHF Final Energy:  -212.40027795669141
    Total Energy =                       -212.4002779566913546
    Molecular point group: c1
  Basis Set: CC-PVTZ
  Basis Set:
  Basis Set: CC-PVTZ
  Basis Set:
  @DF-RHF Final Energy:  -212.40028483788791
    Total Energy =                       -212.4002848378879662
  Basis Set: CC-PVTZ
  Basis Set:
  Basis Set: CC-PVTZ
  Basis Set:
  @DF-RHF Final Energy:  -212.40028647128199
    Total Energy =                       -212.4002864712820156
  Basis Set: CC-PVTZ
  Basis Set:
  Charge       = 0
  Multiplicity = 1
  Basis Set: CC-PVTZ
  Basis Set:

    Orbital Energies (a.u.)
    -----------------------

    Doubly Occupied:

       1A    -15.526526     2A    -11.238023     3A    -11.212958
       4A    -11.207931     5A    -11.205858     6A     -1.178287
       7A     -1.060840     8A     -0.959754     9A     -0.844051
      10A     -0.792352    11A     -0.665343    12A     -0.639263
      13A     -0.605626    14A     -0.577359    15A     -0.565650
      16A     -0.524670    17A     -0.501464    18A     -0.469968
      19A     -0.465629    20A     -0.462520    21A     -0.384018

  @DF-RHF Final Energy:  -212.40028649658342

   => Energetics <=

    Nuclear Repulsion Energy =            186.5710292601613105
    One-Electron Energy =                -655.7664469782990864
    Two-Electron Energy =                 256.7951312215542430
    DFT Exchange-Correlation Energy =       0.0000000000000000
    Empirical Dispersion Energy =           0.0000000000000000
    PCM Polarization Energy =               0.0000000000000000
    EFP Energy =                            0.0000000000000000
    Total Energy =                       -212.4002864965835329
    Molecular point group: c1
  Basis Set: CC-PVTZ
  Basis Set:

  -Total Gradient:
     Atom            X                  Y                   Z
    ------   -----------------  -----------------  -----------------
       1       -0.000002714725     0.000000587319    -0.000000539931
       2       -0.000000067987    -0.000000814402     0.000000631904
       3       -0.000000111864    -0.000003123488     0.000004190225
       4        0.000000172917     0.000001378540    -0.000000800305
       5       -0.000466189075    -0.000715441428     0.000302292554
       6        0.000001802305    -0.000001303956     0.000000399469
       7        0.000001941422     0.000005152804     0.000001704649
       8        0.000480576504     0.000680835836     0.000356180076
       9        0.000311354015     0.000486568376    -0.000317796660
      10       -0.000000217387     0.000004319346    -0.000001920059
      11        0.000002571449     0.000002109313    -0.000002082655
      12       -0.000325234633    -0.000457576395    -0.000341270184
      13        0.000000974490     0.000000683602     0.000000207852
      14       -0.000001149908    -0.000003631685    -0.000000035759
      15       -0.000001482932    -0.000000621709    -0.000001635128
      16       -0.000002224595     0.000000877927     0.000000473952

  **** Optimization is complete! (in 4 steps) ****
    Final optimized geometry and variables:
    Molecular point group: c1

    Geometry (in Angstrom), charge = 0, multiplicity = 1:

    H            3.272214048059     0.178737354448    -0.134513858963
    N            2.433171717305    -0.360687684693    -0.108444698543
    C            1.262991029863     0.495539184369     0.004616217631
    H            2.502441404583    -0.974721733141     0.676130566129
    C           -0.017206535477    -0.325868289901    -0.037206714044
    H            1.273546727984     1.183880190665    -0.833942481023
    H            1.268778027310     1.104759067858     0.909479588359
    C           -1.280341732447     0.526807090526     0.032397771807
    H           -0.016734277467    -0.914479525381    -0.948814690448
    H           -0.013030774367    -1.033198425164     0.789906569506
    C           -2.558995108647    -0.304356292951     0.063062995415
    H           -1.310092280359     1.192539194187    -0.825861012210
    H           -1.243880011776     1.161841301857     0.913313474455
    H           -2.638791594179    -0.930869858611    -0.818963167518
    H           -3.438338217177     0.328434828174     0.099997547648
    H           -2.582469681408    -0.954327176611     0.931450546545

  Mulliken Charges: (a.u.)
   Center  Symbol    Alpha    Beta     Spin     Total
       1     H     0.43019  0.43019  0.00000  0.13963
       2     N     3.68933  3.68933  0.00000 -0.37866
       3     C     3.02588  3.02588  0.00000 -0.05177
       4     H     0.43097  0.43097  0.00000  0.13806
       5     C     3.08024  3.08024  0.00000 -0.16049
       6     H     0.45730  0.45730  0.00000  0.08540
       7     H     0.46881  0.46881  0.00000  0.06238
       8     C     3.08841  3.08841  0.00000 -0.17683
       9     H     0.44915  0.44915  0.00000  0.10171
      10     H     0.46088  0.46088  0.00000  0.07823
      11     C     3.14932  3.14932  0.00000 -0.29865
      12     H     0.45433  0.45433  0.00000  0.09133
      13     H     0.45664  0.45664  0.00000  0.08672
      14     H     0.45418  0.45418  0.00000  0.09164
      15     H     0.44881  0.44881  0.00000  0.10238
      16     H     0.45554  0.45554  0.00000  0.08891

   Total alpha = 21.00000, Total beta = 21.00000, Total charge = -0.00000
