                              Psi4 1.0.54 Driver

  ==> Input File <==

--------------------------------------------------------------------------
set {
	reference rhf
	basis cc-pvtz
}

set_num_threads( 4 )
memory 2 gb

molecule MOL {
0 1

H	 -3.162190	 0.493205	 -0.000107
C	 -2.363908	 -0.234727	 0.000005
O	 -1.158738	 0.454634	 -0.000087
H	 -2.464314	 -0.863616	 -0.882153
H	 -2.464327	 -0.863359	 0.882345
C	 -0.028611	 -0.359694	 0.000037
C	 1.212847	 0.509314	 -0.000053
H	 -0.034155	 -1.007047	 -0.877198
H	 -0.034195	 -1.006836	 0.877430
C	 1.043367	 1.766952	 0.844917
H	 2.046150	 -0.078753	 0.368336
H	 1.447374	 0.776462	 -1.024543
H	 0.831752	 1.522002	 1.880438
H	 1.943896	 2.368414	 0.827273
H	 0.229183	 2.383071	 0.478079

	symmetry c1
}
set optking {
	frozen_dihedral = ("
		11 7 6 8
	")
}

ee,wfn = optimize('scf', return_wfn=True)
oeprop( wfn, 'DIPOLE', 'QUADRUPOLE', 'MULLIKEN_CHARGES')
f=open( 'psi4out.xyz', 'w' )
f.write( "15  " )
f.write( str(ee) + "\n" )
f.write( MOL.save_string_xyz() )
f.close()
--------------------------------------------------------------------------

    Molecular point group: c1
  Charge       = 0
  Multiplicity = 1
  Basis Set: CC-PVTZ
  Basis Set:
  @DF-RHF Final Energy:  -232.22445353986248
    Total Energy =                       -232.2244535398625658
    Molecular point group: c1
  Basis Set: CC-PVTZ
  Basis Set:
  Basis Set: CC-PVTZ
  Basis Set:
  @DF-RHF Final Energy:  -232.22498017289803
    Total Energy =                       -232.2249801728980287
  Basis Set: CC-PVTZ
  Basis Set:
  Basis Set: CC-PVTZ
  Basis Set:
  @DF-RHF Final Energy:  -232.22544263314902
    Total Energy =                       -232.2254426331488162
  Basis Set: CC-PVTZ
  Basis Set:
  Basis Set: CC-PVTZ
  Basis Set:
  @DF-RHF Final Energy:  -232.22545529044115
    Total Energy =                       -232.2254552904412321
  Basis Set: CC-PVTZ
  Basis Set:
  Charge       = 0
  Multiplicity = 1
  Basis Set: CC-PVTZ
  Basis Set:

    Orbital Energies (a.u.)
    -----------------------

    Doubly Occupied:

       1A    -20.547194     2A    -11.265360     3A    -11.262091
       4A    -11.214153     5A    -11.200000     6A     -1.381647
       7A     -1.053091     8A     -0.949737     9A     -0.888580
      10A     -0.795605    11A     -0.675415    12A     -0.659405
      13A     -0.635043    14A     -0.599968    15A     -0.557297
      16A     -0.545342    17A     -0.503413    18A     -0.483717
      19A     -0.475805    20A     -0.459831    21A     -0.415692

  @DF-RHF Final Energy:  -232.22545665938168

   => Energetics <=

    Nuclear Repulsion Energy =            193.5922505852307154
    One-Electron Energy =                -698.4986451449079823
    Two-Electron Energy =                 272.6809379002957598
    DFT Exchange-Correlation Energy =       0.0000000000000000
    Empirical Dispersion Energy =           0.0000000000000000
    PCM Polarization Energy =               0.0000000000000000
    EFP Energy =                            0.0000000000000000
    Total Energy =                       -232.2254566593815071
    Molecular point group: c1
  Basis Set: CC-PVTZ
  Basis Set:

  -Total Gradient:
     Atom            X                  Y                   Z
    ------   -----------------  -----------------  -----------------
       1        0.000007318815     0.000001318423     0.000002045761
       2       -0.000054561851    -0.000024229761    -0.000008407174
       3        0.000116669334    -0.000041434918     0.000006864343
       4       -0.000005930621     0.000001581804     0.000001022097
       5       -0.000003218616     0.000001272329     0.000002250158
       6        0.002977391994    -0.004447254366     0.004826920217
       7        0.000738145923    -0.001232432425    -0.006964390117
       8       -0.002669148424     0.003959106059    -0.003013770327
       9        0.000017589175    -0.000003590536    -0.000007460618
      10        0.000020122160    -0.000045795995    -0.000041556909
      11       -0.001089398299     0.001788440249     0.005159455850
      12       -0.000016891000    -0.000015036291     0.000001811610
      13       -0.000012549578     0.000006255842     0.000037585544
      14        0.000006480461     0.000014059991     0.000009744317
      15       -0.000032019474     0.000037739596    -0.000012114752

  **** Optimization is complete! (in 5 steps) ****
    Final optimized geometry and variables:
    Molecular point group: c1

    Geometry (in Angstrom), charge = 0, multiplicity = 1:

    H           -2.889354554790     0.104433382883    -0.283592468747
    C           -2.097212359874    -0.628614202034    -0.231940102004
    O           -0.887567329290     0.050819646645    -0.206678741173
    H           -2.170294643873    -1.283426255913    -1.098010816032
    H           -2.236137929103    -1.230172677958     0.664162587545
    C            0.235078613313    -0.776731441153    -0.134210767950
    C            1.505231797062     0.064563630261    -0.152809915193
    H            0.222953177135    -1.441092376510    -0.996655113036
    H            0.189660543016    -1.380514158429     0.770799224257
    C            1.422553255178     1.318494412531     0.715765097425
    H            2.310622498695    -0.551632454443     0.235444765192
    H            1.751825933199     0.339133825509    -1.171692844991
    H            1.172229852339     1.066965437595     1.741244953713
    H            2.376801391733     1.833003084416     0.723920246075
    H            0.669503805957     2.002132161340     0.351205840997

  Mulliken Charges: (a.u.)
   Center  Symbol    Alpha    Beta     Spin     Total
       1     H     0.44753  0.44753  0.00000  0.10494
       2     C     3.03015  3.03015  0.00000 -0.06030
       3     O     4.17378  4.17378  0.00000 -0.34757
       4     H     0.47209  0.47209  0.00000  0.05582
       5     H     0.47254  0.47254  0.00000  0.05491
       6     C     2.97224  2.97224  0.00000  0.05552
       7     C     3.08483  3.08483  0.00000 -0.16965
       8     H     0.46676  0.46676  0.00000  0.06648
       9     H     0.47117  0.47117  0.00000  0.05766
      10     C     3.14395  3.14395  0.00000 -0.28790
      11     H     0.45659  0.45659  0.00000  0.08682
      12     H     0.45241  0.45241  0.00000  0.09518
      13     H     0.45802  0.45802  0.00000  0.08396
      14     H     0.45271  0.45271  0.00000  0.09457
      15     H     0.44523  0.44523  0.00000  0.10955

   Total alpha = 21.00000, Total beta = 21.00000, Total charge = -0.00000

*** Psi4 exiting successfully. Buy a developer a beer!
