  ==> Input File <==

--------------------------------------------------------------------------
set {
	reference rhf
	basis 6-31G*
}

set_num_threads( 4 )
memory 2 gb

molecule MOL {
0 1

H	 2.591676	 2.013956	 0.335017
O	 3.341076	 1.666752	 -0.126416
C	 3.569581	 0.339145	 0.272707
C	 2.539767	 -0.640285	 -0.279495
H	 4.553106	 0.084646	 -0.100901
H	 3.608576	 0.269204	 1.359154
C	 1.115811	 -0.397273	 0.226630
H	 2.556196	 -0.582511	 -1.364741
H	 2.852081	 -1.648031	 -0.010655
C	 0.481465	 0.860519	 -0.373687
H	 1.131140	 -0.314286	 1.309794
H	 0.494136	 -1.260043	 -0.013139
C	 -0.976100	 1.104109	 0.034369
H	 1.080745	 1.727881	 -0.102774
H	 0.527689	 0.787521	 -1.458231
C	 -1.185576	 1.422409	 1.517368
H	 -1.362305	 1.932525	 -0.555875
H	 -1.575010	 0.235858	 -0.236342
C	 -2.639165	 1.760962	 1.854853
H	 -0.548216	 2.259620	 1.798366
H	 -0.870100	 0.580608	 2.129045
C	 -2.852208	 2.072831	 3.335736
H	 -2.958407	 2.612331	 1.257573
H	 -3.278676	 0.929467	 1.565840
H	 -2.250228	 2.921477	 3.648214
H	 -3.891117	 2.310579	 3.542566
H	 -2.576638	 1.226444	 3.958675

	symmetry c1
}
set optking {
	frozen_dihedral = ("
		10 7 4 8
	")
}

ee = optimize('scf')
oeprop('DIPOLE', 'QUADRUPOLE', 'MULLIKEN_CHARGES')
f=open( 'psi4out.xyz', 'w' )
f.write( "27  " )
f.write( str(ee) + "\n" )
f.write( MOL.save_string_xyz() )
f.close()
--------------------------------------------------------------------------

    Molecular point group: c1
  Charge       = 0
  Multiplicity = 1
  Basis Set: 6-31G*
  Basis Set:
  @DF-RHF Final Energy:  -388.27223698759570
    Total Energy =                       -388.2722369875961022
    Molecular point group: c1
  Basis Set: 6-31G*
  Basis Set:
  Basis Set: 6-31G*
  Basis Set:
  @DF-RHF Final Energy:  -388.27727696636117
    Total Energy =                       -388.2772769663613417
  Basis Set: 6-31G*
  Basis Set:
  Basis Set: 6-31G*
  Basis Set:
  @DF-RHF Final Energy:  -388.27793133022351
    Total Energy =                       -388.2779313302239643
  Basis Set: 6-31G*
  Basis Set:
  Basis Set: 6-31G*
  Basis Set:
  @DF-RHF Final Energy:  -388.27796254672535
    Total Energy =                       -388.2779625467254618
  Basis Set: 6-31G*
  Basis Set:
  @DF-RHF Final Energy:  -388.27810514325517
    Total Energy =                       -388.2781051432548338
  @DF-RHF Final Energy:  -388.27813325095332
    Total Energy =                       -388.2781332509534877
  Basis Set: 6-31G*
  Basis Set:
  @DF-RHF Final Energy:  -388.27813626261116
    Total Energy =                       -388.2781362626109285
  Basis Set: 6-31G*
  Basis Set:
  Basis Set: 6-31G*
  Basis Set:
  @DF-RHF Final Energy:  -388.27814396024746
    Total Energy =                       -388.2781439602474620
  Basis Set: 6-31G*
  Basis Set:
  Basis Set: 6-31G*
  Basis Set:
  @DF-RHF Final Energy:  -388.27814543518332
    Total Energy =                       -388.2781454351834327
  Basis Set: 6-31G*
  Basis Set:
  Charge       = 0
  Multiplicity = 1
  Basis Set: 6-31G*
  Basis Set:

    Orbital Energies (a.u.)
    -----------------------

    Doubly Occupied:

       1A    -20.550448     2A    -11.266553     3A    -11.220668
       4A    -11.219823     5A    -11.217152     6A    -11.217020
       7A    -11.215761     8A    -11.215470     9A    -11.210290
      10A     -1.357684    11A     -1.095886    12A     -1.060722
      13A     -1.012876    14A     -0.948694    15A     -0.890047
      16A     -0.824070    17A     -0.801674    18A     -0.776278
      19A     -0.698041    20A     -0.648923    21A     -0.630195
      22A     -0.622602    23A     -0.597268    24A     -0.583203
      25A     -0.568936    26A     -0.558618    27A     -0.548758
      28A     -0.527481    29A     -0.517974    30A     -0.497067
      31A     -0.488081    32A     -0.473478    33A     -0.468226
      34A     -0.460075    35A     -0.449426    36A     -0.440403
      37A     -0.421381

  @DF-RHF Final Energy:  -388.27814607827202

   => Energetics <=

    Nuclear Repulsion Energy =            465.1302623412105959
    One-Electron Energy =               -1448.2143166428618315
    Two-Electron Energy =                 594.8059082233796744
    DFT Exchange-Correlation Energy =       0.0000000000000000
    Empirical Dispersion Energy =           0.0000000000000000
    PCM Polarization Energy =               0.0000000000000000
    EFP Energy =                            0.0000000000000000
    Total Energy =                       -388.2781460782715612
    Molecular point group: c1
  Basis Set: 6-31G*
  Basis Set:

  -Total Gradient:
     Atom            X                  Y                   Z
    ------   -----------------  -----------------  -----------------
       1       -0.000012492561     0.000020790966     0.000003712561
       2        0.000038173166     0.000002407944     0.000020731222
       3        0.000007186732    -0.000034574127    -0.000052879209
       4       -0.000417721481    -0.001177191871    -0.000105480475
       5        0.000017190861     0.000007230078     0.000004400784
       6       -0.000007623199     0.000010662608    -0.000004398075
       7        0.000465663817     0.000705310168     0.000598008415
       8        0.000238436299     0.000829399883    -0.000043827160
       9        0.000005547742    -0.000017435521     0.000003034515
      10       -0.000341965814    -0.000375261636    -0.000427761581
      11       -0.000004954539     0.000004348765    -0.000005766970
      12       -0.000009222800    -0.000005927637     0.000010042284
      13       -0.000003362931     0.000005246274    -0.000000235139
      14       -0.000016461652     0.000017795923    -0.000002049057
      15       -0.000006700386     0.000002573737     0.000013069231
      16        0.000015762884    -0.000000366729     0.000011691398
      17        0.000009771291     0.000002262060     0.000004675710
      18        0.000022029238    -0.000001701492    -0.000007056224
      19       -0.000003294591     0.000006585043    -0.000008793788
      20       -0.000001585215    -0.000000321551    -0.000001696405
      21        0.000005871169    -0.000001724352    -0.000006855848
      22        0.000005089769    -0.000001779590    -0.000000714879
      23       -0.000004122666     0.000002131044    -0.000000626437
      24       -0.000002077842    -0.000000142846     0.000000148857
      25       -0.000001184311     0.000001298451     0.000000690716
      26        0.000000809599    -0.000002064649    -0.000002576713
      27        0.000001237425     0.000000449058     0.000000512266

  **** Optimization is complete! (in 10 steps) ****
    Final optimized geometry and variables:
    Molecular point group: c1

    Geometry (in Angstrom), charge = 0, multiplicity = 1:

    H            2.660539992600     1.129212497999    -0.862518783730
    O            3.299228458870     0.537913167892    -1.230409757346
    C            3.257530261907    -0.695070566108    -0.558333903512
    C            2.060993256444    -1.569379931509    -0.927046785690
    H            4.168353742841    -1.206884896564    -0.841967428570
    H            3.296232872022    -0.546039483326     0.520286175755
    C            0.702132295542    -1.155652744323    -0.342207809364
    H            2.000735880713    -1.614746399926    -2.011385078622
    H            2.281903588364    -2.577212899374    -0.580717609384
    C            0.057808042634     0.089907390332    -0.966452022933
    H            0.802851556880    -1.027687916676     0.733345445380
    H            0.016730435314    -1.989500383571    -0.480386920210
    C           -1.423915807015     0.269994639452    -0.616449589516
    H            0.590272795755     0.989321797879    -0.663309938399
    H            0.155147410050     0.031697708743    -2.047378812500
    C           -1.706398609610     0.525836859736     0.866305472615
    H           -1.814305969560     1.104458156348    -1.195248394498
    H           -1.976555592017    -0.609611802115    -0.942256523699
    C           -3.184644805541     0.796737801083     1.153789645118
    H           -1.114851978396     1.376376476337     1.203384271755
    H           -1.382395365170    -0.325658975990     1.459778579485
    C           -3.469664646615     1.047699427476     2.634111405011
    H           -3.512968285153     1.655708096016     0.572542090894
    H           -3.778139266241    -0.048045191084     0.810551139815
    H           -2.915873534517     1.907889371955     2.999782219885
    H           -4.524831648560     1.237202980035     2.805150345234
    H           -3.185384128038     0.191292602947     3.239126711286

  Mulliken Charges: (a.u.)
   Center  Symbol    Alpha    Beta     Spin     Total
       1     H     0.27654  0.27654  0.00000  0.44693
       2     O     4.37286  4.37286  0.00000 -0.74572
       3     C     2.99696  2.99696  0.00000  0.00608
       4     C     3.16555  3.16555  0.00000 -0.33110
       5     H     0.41518  0.41518  0.00000  0.16963
       6     H     0.43264  0.43264  0.00000  0.13472
       7     C     3.16189  3.16189  0.00000 -0.32378
       8     H     0.41438  0.41438  0.00000  0.17124
       9     H     0.42214  0.42214  0.00000  0.15571
      10     C     3.15225  3.15225  0.00000 -0.30449
      11     H     0.42186  0.42186  0.00000  0.15628
      12     H     0.41940  0.41940  0.00000  0.16120
      13     C     3.15403  3.15403  0.00000 -0.30806
      14     H     0.43694  0.43694  0.00000  0.12612
      15     H     0.41480  0.41480  0.00000  0.17040
      16     C     3.15297  3.15297  0.00000 -0.30593
      17     H     0.42084  0.42084  0.00000  0.15832
      18     H     0.42271  0.42271  0.00000  0.15459
      19     C     3.15125  3.15125  0.00000 -0.30249
      20     H     0.42584  0.42584  0.00000  0.14832
      21     H     0.42150  0.42150  0.00000  0.15699
      22     C     3.23927  3.23927  0.00000 -0.47853
      23     H     0.42275  0.42275  0.00000  0.15449
      24     H     0.42269  0.42269  0.00000  0.15462
      25     H     0.42190  0.42190  0.00000  0.15620
      26     H     0.41894  0.41894  0.00000  0.16211
      27     H     0.42192  0.42192  0.00000  0.15615

   Total alpha = 37.00000, Total beta = 37.00000, Total charge =  0.00000
