  ==> Input File <==

--------------------------------------------------------------------------
set {
	reference rhf
	basis cc-pvtz
}

set_num_threads( 4 )
memory 2 gb

molecule MOL {
0 1

H	 -3.941973	 0.934228	 -0.390224
C	 -3.240162	 0.342701	 0.161016
C	 -2.105997	 -0.000418	 -0.398703
H	 -3.485368	 0.047206	 1.162193
O	 -1.189946	 -0.765863	 0.237511
H	 -1.846458	 0.297311	 -1.398265
C	 0.026572	 -0.995256	 -0.379403
C	 1.057223	 0.049888	 -0.004615
H	 -0.054361	 -1.010670	 -1.459674
H	 0.397526	 -1.952058	 -0.044198
F	 1.496572	 -0.184825	 1.215616
F	 2.094770	 0.028616	 -0.813659
F	 0.560043	 1.262640	 -0.027008

	symmetry c1
}
set optking {
	frozen_dihedral = ("
		11 8 7 9
	")
}

ee = optimize('scf')
oeprop('DIPOLE', 'QUADRUPOLE', 'MULLIKEN_CHARGES')
f=open( 'psi4out.xyz', 'w' )
f.write( "13  " )
f.write( str(ee) + "\n" )
f.write( MOL.save_string_xyz() )
f.close()
--------------------------------------------------------------------------

    Molecular point group: c1
  Charge       = 0
  Multiplicity = 1
  Basis Set: CC-PVTZ
  Basis Set:
  @DF-RHF Final Energy:  -527.74023430188004
    Total Energy =                       -527.7402343018807187
    Molecular point group: c1
  Basis Set: CC-PVTZ
  Basis Set:
  Basis Set: CC-PVTZ
  Basis Set:
  @DF-RHF Final Energy:  -527.74079854690831
    Total Energy =                       -527.7407985469085361
  Basis Set: CC-PVTZ
  Basis Set:
  Basis Set: CC-PVTZ
  Basis Set:
  @DF-RHF Final Energy:  -527.74092103438875
    Total Energy =                       -527.7409210343889754
  Basis Set: CC-PVTZ
  Basis Set:
  Basis Set: CC-PVTZ
  Basis Set:
  @DF-RHF Final Energy:  -527.74093320899760
    Total Energy =                       -527.7409332089976033
  Basis Set: CC-PVTZ
  Basis Set:
  Basis Set: CC-PVTZ
  Basis Set:
  @DF-RHF Final Energy:  -527.74093556021990
    Total Energy =                       -527.7409355602196683
  Basis Set: CC-PVTZ
  Basis Set:
  Basis Set: CC-PVTZ
  Basis Set:
  @DF-RHF Final Energy:  -527.74093697177045
    Total Energy =                       -527.7409369717702248
  Basis Set: CC-PVTZ
  Basis Set:
  Charge       = 0
  Multiplicity = 1
  Basis Set: CC-PVTZ
  Basis Set:

    Orbital Energies (a.u.)
    -----------------------

    Doubly Occupied:

       1A    -26.341981     2A    -26.340425     3A    -26.338108
       4A    -20.604577     5A    -11.498290     6A    -11.319949
       7A    -11.298903     8A    -11.214023     9A     -1.750594
      10A     -1.647727    11A     -1.644592    12A     -1.445168
      13A     -1.087871    14A     -1.020590    15A     -0.932568
      16A     -0.844057    17A     -0.839755    18A     -0.827508
      19A     -0.797021    20A     -0.731071    21A     -0.720283
      22A     -0.703449    23A     -0.681526    24A     -0.667774
      25A     -0.661890    26A     -0.650888    27A     -0.639620
      28A     -0.587851    29A     -0.565913    30A     -0.529892
      31A     -0.517960    32A     -0.356873

  @DF-RHF Final Energy:  -527.74093784249953

   => Energetics <=

    Nuclear Repulsion Energy =            413.0058046672690466
    One-Electron Energy =               -1549.8760905288972936
    Two-Electron Energy =                 609.1293480191288836
    DFT Exchange-Correlation Energy =       0.0000000000000000
    Empirical Dispersion Energy =           0.0000000000000000
    PCM Polarization Energy =               0.0000000000000000
    EFP Energy =                            0.0000000000000000
    Total Energy =                       -527.7409378424993065
    Molecular point group: c1
  Basis Set: CC-PVTZ
  Basis Set:

  -Total Gradient:
     Atom            X                  Y                   Z
    ------   -----------------  -----------------  -----------------
       1       -0.000003201814     0.000001501699    -0.000000323331
       2        0.000027828733    -0.000001356398     0.000011808272
       3       -0.000097697874     0.000041630186    -0.000007450618
       4        0.000002668774     0.000004299149    -0.000002621227
       5        0.000031689789    -0.000006074214    -0.000013864883
       6        0.000019360139    -0.000013946662     0.000000676798
       7       -0.002539711027     0.002580003043    -0.000272234301
       8       -0.002474323662     0.001876743715     0.001763356915
       9        0.002645987795    -0.002676665631    -0.000111126249
      10        0.000026478805     0.000028228728    -0.000004248236
      11        0.002215451585    -0.001853142154    -0.001205233304
      12        0.000152535495    -0.000003531748    -0.000169568089
      13       -0.000007066728     0.000022310281     0.000010828250

  **** Optimization is complete! (in 7 steps) ****
    Final optimized geometry and variables:
    Molecular point group: c1

    Geometry (in Angstrom), charge = 0, multiplicity = 1:

    H           -3.962744913085     0.930045431702    -0.388528772967
    C           -3.267082858194     0.322776472076     0.153313334311
    C           -2.113545515344     0.021964521984    -0.390809020688
    H           -3.533575399000    -0.021432115028     1.133278296817
    O           -1.200825433083    -0.755047646991     0.236387507258
    H           -1.832883404528     0.368036820682    -1.368818203392
    C            0.012996497847    -0.980396093050    -0.383481976028
    C            1.060036454100     0.051551380806    -0.003130244220
    H           -0.055411190170    -1.009408542609    -1.464110712174
    H            0.382546427127    -1.939393938502    -0.051554240845
    F            1.510302425104    -0.131862292885     1.216495735775
    F            2.092143142346    -0.055075714314    -0.819129905195
    F            0.606895309547     1.280261693937    -0.088667571496

  Mulliken Charges: (a.u.)
   Center  Symbol    Alpha    Beta     Spin     Total
       1     H     0.42518  0.42518  0.00000  0.14963
       2     C     3.19729  3.19729  0.00000 -0.39459
       3     C     2.95702  2.95702  0.00000  0.08595
       4     H     0.42492  0.42492  0.00000  0.15016
       5     O     4.14402  4.14402  0.00000 -0.28804
       6     H     0.43464  0.43464  0.00000  0.13072
       7     C     3.02365  3.02365  0.00000 -0.04729
       8     C     2.67347  2.67347  0.00000  0.65305
       9     H     0.45501  0.45501  0.00000  0.08998
      10     H     0.43603  0.43603  0.00000  0.12793
      11     F     4.60792  4.60792  0.00000 -0.21584
      12     F     4.61374  4.61374  0.00000 -0.22748
      13     F     4.60709  4.60709  0.00000 -0.21418

   Total alpha = 32.00000, Total beta = 32.00000, Total charge = -0.00000
