  ==> Input File <==

--------------------------------------------------------------------------
set {
	reference rhf
	basis 6-31G*
}

set_num_threads( 4 )
memory 2 gb

molecule MOL {
0 1

O	 -2.779560	 0.590739	 0.585340
C	 -1.921153	 0.064240	 -0.045697
C	 -2.145679	 -0.786912	 -1.266138
O	 -0.632575	 0.154573	 0.251549
H	 -1.750492	 -1.781895	 -1.096481
H	 -3.202373	 -0.840332	 -1.481497
H	 -1.615366	 -0.362764	 -2.110899
C	 0.160891	 -1.019931	 0.106212
C	 1.589627	 -0.672828	 0.480843
H	 0.089836	 -1.367806	 -0.916050
H	 -0.238459	 -1.792301	 0.749618
C	 2.246377	 0.346236	 -0.452210
H	 2.163194	 -1.597435	 0.473358
H	 1.604769	 -0.303424	 1.502885
C	 3.691736	 0.652107	 -0.061850
H	 2.219579	 -0.032311	 -1.472055
H	 1.666466	 1.263317	 -0.447249
H	 4.134505	 1.377213	 -0.737283
H	 4.305508	 -0.243868	 -0.089969
H	 3.748266	 1.059562	 0.943567

	symmetry c1
}
set optking {
	frozen_dihedral = ("
		1 2 4 8
	")
}

ee = optimize('scf')
oeprop('DIPOLE', 'QUADRUPOLE', 'MULLIKEN_CHARGES')
f=open( 'psi4out.xyz', 'w' )
f.write( "20  " )
f.write( str(ee) + "\n" )
f.write( MOL.save_string_xyz() )
f.close()
--------------------------------------------------------------------------

    Molecular point group: c1
  Charge       = 0
  Multiplicity = 1
  Basis Set: 6-31G*
  Basis Set:
  @DF-RHF Final Energy:  -383.92142074377443
    Total Energy =                       -383.9214207437744335
    Molecular point group: c1
  Basis Set: 6-31G*
  Basis Set:
  Basis Set: 6-31G*
  Basis Set:
  @DF-RHF Final Energy:  -383.92206718536823
    Total Energy =                       -383.9220671853682916
  Basis Set: 6-31G*
  Basis Set:
  Basis Set: 6-31G*
  Basis Set:
  @DF-RHF Final Energy:  -383.92710532676915
    Total Energy =                       -383.9271053267686966
  Basis Set: 6-31G*
  Basis Set:
  Basis Set: 6-31G*
  Basis Set:
  @DF-RHF Final Energy:  -383.92792389604523
    Total Energy =                       -383.9279238960450584
  Basis Set: 6-31G*
  Basis Set:
  @DF-RHF Final Energy:  -383.92809758666641
    Total Energy =                       -383.9280975866661265
  @DF-RHF Final Energy:  -383.92876483728452
    Total Energy =                       -383.9287648372846888
  @DF-RHF Final Energy:  -383.92877875776531
    Total Energy =                       -383.9287787577655990
  Basis Set: 6-31G*
  Basis Set:
  @DF-RHF Final Energy:  -383.92878758100454
    Total Energy =                       -383.9287875810048263
  Basis Set: 6-31G*
  Basis Set:
  Basis Set: 6-31G*
  Basis Set:
  @DF-RHF Final Energy:  -383.92878888627212
    Total Energy =                       -383.9287888862724003
  Basis Set: 6-31G*
  Basis Set:
  Basis Set: 6-31G*
  Basis Set:
  @DF-RHF Final Energy:  -383.92879016199089
    Total Energy =                       -383.9287901619909462
  Basis Set: 6-31G*
  Basis Set:
  Charge       = 0
  Multiplicity = 1
  Basis Set: 6-31G*
  Basis Set:

    Orbital Energies (a.u.)
    -----------------------

    Doubly Occupied:

       1A    -20.593909     2A    -20.545431     3A    -11.376398
       4A    -11.297320     5A    -11.240967     6A    -11.230083
       7A    -11.222370     8A    -11.214285     9A     -1.460328
      10A     -1.366282    11A     -1.086607    12A     -1.019451
      13A     -0.998154    14A     -0.887821    15A     -0.814529
      16A     -0.779487    17A     -0.696307    18A     -0.687684
      19A     -0.660566    20A     -0.632860    21A     -0.612413
      22A     -0.592505    23A     -0.580896    24A     -0.555042
      25A     -0.551124    26A     -0.537352    27A     -0.502571
      28A     -0.488382    29A     -0.478013    30A     -0.476065
      31A     -0.446600    32A     -0.433762

  @DF-RHF Final Energy:  -383.92879020890121

   => Energetics <=

    Nuclear Repulsion Energy =            384.5127638666217536
    One-Electron Energy =               -1284.7519829766997645
    Two-Electron Energy =                 516.3104289011769197
    DFT Exchange-Correlation Energy =       0.0000000000000000
    Empirical Dispersion Energy =           0.0000000000000000
    PCM Polarization Energy =               0.0000000000000000
    EFP Energy =                            0.0000000000000000
    Total Energy =                       -383.9287902089010913
    Molecular point group: c1
  Basis Set: 6-31G*
  Basis Set:

  -Total Gradient:
     Atom            X                  Y                   Z
    ------   -----------------  -----------------  -----------------
       1       -0.000230708319    -0.002840214647     0.002355670485
       2        0.000053137610     0.003794004559    -0.001758402851
       3       -0.000002738745     0.000003319675     0.000001558027
       4        0.000637026381    -0.000400695674    -0.003628864354
       5       -0.000003269428    -0.000002446667    -0.000000563386
       6       -0.000001031175    -0.000002768759    -0.000002963759
       7       -0.000001388041     0.000001903992     0.000002520885
       8       -0.000450243091    -0.000556849412     0.003039331189
       9       -0.000004366639    -0.000011305106    -0.000001307787
      10        0.000000968787    -0.000003674565    -0.000007561084
      11        0.000001129788     0.000005876652     0.000000245434
      12       -0.000004046339     0.000012633021     0.000008270687
      13        0.000000230915    -0.000004703509     0.000001875195
      14       -0.000000891057     0.000000181525    -0.000005696228
      15        0.000004276116     0.000000690501    -0.000007063061
      16        0.000000978405     0.000002043774     0.000002050155
      17       -0.000000485268     0.000000448994    -0.000000464952
      18        0.000003889420    -0.000001849464    -0.000000897849
      19       -0.000001987687    -0.000000642397     0.000003707237
      20       -0.000000481624     0.000004047506    -0.000001443983

  **** Optimization is complete! (in 11 steps) ****
    Final optimized geometry and variables:
    Molecular point group: c1

    Geometry (in Angstrom), charge = 0, multiplicity = 1:

    O           -2.682992172167     0.760699192161     0.645255053147
    C           -1.943672627287     0.131991938266    -0.030493509259
    C           -2.412206816679    -0.746278973752    -1.167448237369
    O           -0.622077900500     0.194316335169     0.180354587388
    H           -2.291647022714    -1.795282015914    -0.918149228402
    H           -3.458554192594    -0.548980182782    -1.345213134123
    H           -1.840074455506    -0.548963278813    -2.066736667149
    C            0.188362369991    -0.966125355595     0.095537406437
    C            1.589977332764    -0.594022693706     0.543919413753
    H            0.202906549733    -1.341802072535    -0.922302177739
    H           -0.221178228641    -1.737192681545     0.739549362725
    C            2.271635249746     0.433930585903    -0.360522591249
    H            2.180135967906    -1.507846971728     0.573711333663
    H            1.536833143497    -0.216694158901     1.560675922467
    C            3.684171352692     0.779136803107     0.109198566133
    H            2.313595430803     0.046312833025    -1.376841776985
    H            1.668359185117     1.334464682798    -0.395334356758
    H            4.146914548358     1.507834072989    -0.548548349685
    H            4.320739691944    -0.101205791072     0.127846586951
    H            3.671385101153     1.199406563714     1.110574812273

  Mulliken Charges: (a.u.)
   Center  Symbol    Alpha    Beta     Spin     Total
       1     O     4.25720  4.25720  0.00000 -0.51440
       2     C     2.61886  2.61886  0.00000  0.76227
       3     C     3.30454  3.30454  0.00000 -0.60908
       4     O     4.30817  4.30817  0.00000 -0.61634
       5     H     0.40324  0.40324  0.00000  0.19353
       6     H     0.38968  0.38968  0.00000  0.22065
       7     H     0.40215  0.40215  0.00000  0.19569
       8     C     3.00427  3.00427  0.00000 -0.00854
       9     C     3.16157  3.16157  0.00000 -0.32315
      10     H     0.42096  0.42096  0.00000  0.15809
      11     H     0.41505  0.41505  0.00000  0.16990
      12     C     3.15643  3.15643  0.00000 -0.31285
      13     H     0.41969  0.41969  0.00000  0.16063
      14     H     0.40842  0.40842  0.00000  0.18317
      15     C     3.24079  3.24079  0.00000 -0.48158
      16     H     0.42548  0.42548  0.00000  0.14904
      17     H     0.40558  0.40558  0.00000  0.18883
      18     H     0.41680  0.41680  0.00000  0.16639
      19     H     0.42259  0.42259  0.00000  0.15483
      20     H     0.41854  0.41854  0.00000  0.16293

   Total alpha = 32.00000, Total beta = 32.00000, Total charge =  0.00000
