  ==> Input File <==

--------------------------------------------------------------------------
set {
	reference rhf
	basis 6-31G*
}

set_num_threads( 4 )
memory 2 gb

molecule MOL {
0 1

H	 -2.098997	 -0.674324	 -0.616650
O	 -2.035884	 -0.060112	 0.102722
C	 -0.955155	 0.788182	 -0.092531
C	 0.353668	 0.040312	 -0.004810
H	 -0.985057	 1.290372	 -1.054184
H	 -0.974469	 1.533190	 0.688632
F	 0.284911	 -0.916000	 0.914598
F	 0.636386	 -0.535104	 -1.162466
F	 1.362605	 0.824743	 0.314978

	symmetry c1
}
set optking {
	frozen_dihedral = ("
		7 4 3 5
	")
}

ee = optimize('scf')
oeprop('DIPOLE', 'QUADRUPOLE', 'MULLIKEN_CHARGES')
f=open( 'psi4out.xyz', 'w' )
f.write( "9  " )
f.write( str(ee) + "\n" )
f.write( MOL.save_string_xyz() )
f.close()
--------------------------------------------------------------------------

    Molecular point group: c1
  Charge       = 0
  Multiplicity = 1
  Basis Set: 6-31G*
  Basis Set:
  @DF-RHF Final Energy:  -450.65917178650619
    Total Energy =                       -450.6591717865061923
    Molecular point group: c1
  Basis Set: 6-31G*
  Basis Set:
  Basis Set: 6-31G*
  Basis Set:
  @DF-RHF Final Energy:  -450.65980091250316
    Total Energy =                       -450.6598009125032149
  Basis Set: 6-31G*
  Basis Set:
  Basis Set: 6-31G*
  Basis Set:
  @DF-RHF Final Energy:  -450.65995490689721
    Total Energy =                       -450.6599549068970418
  Basis Set: 6-31G*
  Basis Set:
  Basis Set: 6-31G*
  Basis Set:
  @DF-RHF Final Energy:  -450.65996962191537
    Total Energy =                       -450.6599696219155931
  Basis Set: 6-31G*
  Basis Set:
  Basis Set: 6-31G*
  Basis Set:
  @DF-RHF Final Energy:  -450.65997101299234
    Total Energy =                       -450.6599710129921164
  Basis Set: 6-31G*
  Basis Set:
  Charge       = 0
  Multiplicity = 1
  Basis Set: 6-31G*
  Basis Set:

    Orbital Energies (a.u.)
    -----------------------

    Doubly Occupied:

       1A    -26.343551     2A    -26.339127     3A    -26.338575
       4A    -20.589716     5A    -11.499497     6A    -11.310057
       7A     -1.738992     8A     -1.638969     9A     -1.633537
      10A     -1.401249    11A     -1.045920    12A     -0.922878
      13A     -0.828445    14A     -0.827754    15A     -0.803095
      16A     -0.728719    17A     -0.711666    18A     -0.695199
      19A     -0.663663    20A     -0.656653    21A     -0.640785
      22A     -0.628355    23A     -0.611138    24A     -0.530386
      25A     -0.480055

  @DF-RHF Final Energy:  -450.65997109335149

   => Energetics <=

    Nuclear Repulsion Energy =            276.6733484866583694
    One-Electron Energy =               -1175.4506779663668112
    Two-Electron Energy =                 448.1173583863569547
    DFT Exchange-Correlation Energy =       0.0000000000000000
    Empirical Dispersion Energy =           0.0000000000000000
    PCM Polarization Energy =               0.0000000000000000
    EFP Energy =                            0.0000000000000000
    Total Energy =                       -450.6599710933514871
    Molecular point group: c1
  Basis Set: 6-31G*
  Basis Set:

  -Total Gradient:
     Atom            X                  Y                   Z
    ------   -----------------  -----------------  -----------------
       1        0.000009242560    -0.000002180106    -0.000003619451
       2       -0.000007071989     0.000014790012     0.000010525666
       3        0.002472309827     0.004426037405     0.001584480334
       4        0.001564461643     0.003181951764     0.003905325872
       5       -0.002472277058    -0.004528518819    -0.002187588607
       6       -0.000007428421     0.000018673371    -0.000007554947
       7       -0.001576642353    -0.003092554502    -0.003294563609
       8        0.000006196383    -0.000034467507    -0.000033787203
       9        0.000011209412     0.000016268385     0.000026781936

  **** Optimization is complete! (in 6 steps) ****
    Final optimized geometry and variables:
    Molecular point group: c1

    Geometry (in Angstrom), charge = 0, multiplicity = 1:

    H           -2.130911879285    -0.625966865913    -0.669066038945
    O           -2.047058947721    -0.049971277565     0.079191753570
    C           -0.955736981455     0.795092084765    -0.085316559253
    C            0.356613586143     0.039828815614     0.005463970005
    H           -0.982442791954     1.280826377343    -1.054557768615
    H           -0.990738756394     1.533051737985     0.700832801203
    F            0.333222454123    -0.906049113565     0.919859174487
    F            0.629396347291    -0.557108563805    -1.152879512012
    F            1.356956238892     0.861802075172     0.271042486246

  Mulliken Charges: (a.u.)
   Center  Symbol    Alpha    Beta     Spin     Total
       1     H     0.27383  0.27383  0.00000  0.45234
       2     O     4.36029  4.36029  0.00000 -0.72058
       3     C     3.05652  3.05652  0.00000 -0.11304
       4     C     2.46534  2.46534  0.00000  1.06933
       5     H     0.40788  0.40788  0.00000  0.18424
       6     H     0.39483  0.39483  0.00000  0.21034
       7     F     4.67349  4.67349  0.00000 -0.34698
       8     F     4.68699  4.68699  0.00000 -0.37399
       9     F     4.68083  4.68083  0.00000 -0.36166

   Total alpha = 25.00000, Total beta = 25.00000, Total charge = -0.00000
