                              Psi4 1.0.54 Driver

  ==> Input File <==

--------------------------------------------------------------------------
set {
	reference rhf
	basis cc-pvtz
}

set_num_threads( 4 )
memory 2 gb

molecule MOL {
0 1

O	 2.868453	 1.353349	 -0.000734
C	 2.841259	 0.166180	 -0.000295
C	 1.542794	 -0.614730	 -0.000853
C	 4.113372	 -0.651103	 0.000743
C	 0.288398	 0.247429	 0.000314
H	 1.557171	 -1.273139	 -0.866508
H	 1.557484	 -1.274998	 0.863344
C	 -0.993089	 -0.581367	 -0.000217
H	 0.305153	 0.900562	 -0.864701
H	 0.305567	 0.898805	 0.866656
C	 -2.258482	 0.271340	 0.000669
H	 -1.002280	 -1.233920	 -0.870484
H	 -1.002061	 -1.235367	 0.868958
C	 -2.305585	 1.289336	 -1.135201
H	 -2.339151	 0.791870	 0.951802
H	 -3.128196	 -0.377937	 -0.063860
C	 -3.572900	 2.137654	 -1.127623
H	 -1.437227	 1.939525	 -1.070796
H	 -2.226298	 0.769809	 -2.086371
H	 -3.663669	 2.697063	 -0.202494
H	 -3.574663	 2.849112	 -1.945453
H	 -4.458537	 1.518747	 -1.225834
H	 4.145311	 -1.294584	 -0.871587
H	 4.970080	 0.004978	 -0.000091
H	 4.145223	 -1.291980	 0.874988

	symmetry c1
}
set optking {
	frozen_dihedral = ("
		15 11 8 12
	")
}

ee,wfn = optimize('scf', return_wfn=True)
oeprop( wfn, 'DIPOLE', 'QUADRUPOLE', 'MULLIKEN_CHARGES')
f=open( 'psi4out.xyz', 'w' )
f.write( "25  " )
f.write( str(ee) + "\n" )
f.write( MOL.save_string_xyz() )
f.close()
--------------------------------------------------------------------------

    Molecular point group: c1
  Charge       = 0
  Multiplicity = 1
  Basis Set: CC-PVTZ
  Basis Set:
  @DF-RHF Final Energy:  -387.27127805314848
    Total Energy =                       -387.2712780531483077
    Molecular point group: c1
  Basis Set: CC-PVTZ
  Basis Set:
  Basis Set: CC-PVTZ
  Basis Set:
  @DF-RHF Final Energy:  -387.27112726345723
    Total Energy =                       -387.2711272634574016
  Basis Set: CC-PVTZ
  Basis Set:
  Basis Set: CC-PVTZ
  Basis Set:
  @DF-RHF Final Energy:  -387.27254112557830
    Total Energy =                       -387.2725411255779591
  Basis Set: CC-PVTZ
  Basis Set:
  Basis Set: CC-PVTZ
  Basis Set:
  @DF-RHF Final Energy:  -387.27264336856865
    Total Energy =                       -387.2726433685686516
  Basis Set: CC-PVTZ
  Basis Set:
  Basis Set: CC-PVTZ
  Basis Set:
  @DF-RHF Final Energy:  -387.27162192789240
    Total Energy =                       -387.2716219278923973
  Basis Set: CC-PVTZ
  Basis Set:
  Basis Set: CC-PVTZ
  Basis Set:
  @DF-RHF Final Energy:  -387.27263934423212
    Total Energy =                       -387.2726393442322887
  Basis Set: CC-PVTZ
  Basis Set:
  Basis Set: CC-PVTZ
  Basis Set:
  @DF-RHF Final Energy:  -387.27266399517265
    Total Energy =                       -387.2726639951724792
  Basis Set: CC-PVTZ
  Basis Set:
  Charge       = 0
  Multiplicity = 1
  Basis Set: CC-PVTZ
  Basis Set:

    Orbital Energies (a.u.)
    -----------------------

    Doubly Occupied:

       1A    -20.538965     2A    -11.320564     3A    -11.230162
       4A    -11.226601     5A    -11.215469     6A    -11.214389
       7A    -11.212093     8A    -11.211289     9A    -11.205242
      10A     -1.398999    11A     -1.094905    12A     -1.055930
      13A     -1.014307    14A     -0.970132    15A     -0.889846
      16A     -0.831103    17A     -0.775224    18A     -0.732086
      19A     -0.657735    20A     -0.652087    21A     -0.636067
      22A     -0.623337    23A     -0.601390    24A     -0.581610
      25A     -0.570739    26A     -0.562303    27A     -0.548991
      28A     -0.520691    29A     -0.503649    30A     -0.499948
      31A     -0.491909    32A     -0.478994    33A     -0.459217
      34A     -0.458559    35A     -0.448437    36A     -0.401916

  @DF-RHF Final Energy:  -387.27266430206305

   => Energetics <=

    Nuclear Repulsion Energy =            445.6169290249176811
    One-Electron Energy =               -1408.1094187087915088
    Two-Electron Energy =                 575.2198253818112335
    DFT Exchange-Correlation Energy =       0.0000000000000000
    Empirical Dispersion Energy =           0.0000000000000000
    PCM Polarization Energy =               0.0000000000000000
    EFP Energy =                            0.0000000000000000
    Total Energy =                       -387.2726643020625943
    Molecular point group: c1
  Basis Set: CC-PVTZ
  Basis Set:

  -Total Gradient:
     Atom            X                  Y                   Z
    ------   -----------------  -----------------  -----------------
       1        0.000007071125    -0.000050586330    -0.000013489142
       2        0.000026317591     0.000011164887     0.000034840949
       3        0.000016487433     0.000027634149    -0.000035405709
       4       -0.000003738550    -0.000002406643     0.000021433231
       5        0.000013560911     0.000002591563     0.000049050554
       6       -0.000003600541    -0.000010730411     0.000003426415
       7       -0.000004687020     0.000011221121    -0.000001130955
       8        0.000781503760     0.001316399529    -0.001088049223
       9        0.000009598782    -0.000018945989     0.000008783446
      10        0.000012529919     0.000006262427    -0.000002663543
      11        0.000936211649     0.001500232258    -0.000631352255
      12       -0.000834980725    -0.001342016531     0.001009458138
      13       -0.000005892887     0.000008451974    -0.000010216255
      14       -0.000041357565    -0.000029858266    -0.000045519504
      15       -0.000908713671    -0.001474573932     0.000723857876
      16        0.000015549061     0.000017977400    -0.000005917221
      17        0.000023677342     0.000012343802     0.000010379639
      18       -0.000041519322    -0.000013259986     0.000004580258
      19        0.000002629265     0.000000618233    -0.000015234983
      20       -0.000009307094    -0.000001159896     0.000004100330
      21        0.000011369366    -0.000011539524     0.000020392656
      22        0.000029939614     0.000007928198    -0.000009958299
      23       -0.000003437169     0.000018487156     0.000017412661
      24       -0.000025772036    -0.000006508930    -0.000000762139
      25       -0.000003439236     0.000020273739    -0.000048016923

  **** Optimization is complete! (in 8 steps) ****
    Final optimized geometry and variables:
    Molecular point group: c1

    Geometry (in Angstrom), charge = 0, multiplicity = 1:

    O            2.674495244645     0.907184740664     0.199589593785
    C            2.613676930747    -0.277655838849     0.249948343623
    C            1.293959634838    -1.022176597581     0.255124632404
    C            3.861870246169    -1.128697616656     0.312395074411
    C            0.064685094373    -0.125869462841     0.200301329251
    H            1.304717915311    -1.712251075184    -0.585701074754
    H            1.275228183274    -1.650209928370     1.142806417808
    C           -1.234339247425    -0.928378948964     0.193728361328
    H            0.130044593833     0.501138841006    -0.679042416386
    H            0.076944178267     0.546983695923     1.051028049762
    C           -2.513542371950    -0.092284022464     0.267459736157
    H           -1.272683938133    -1.564254585521    -0.688248468991
    H           -1.230605339253    -1.608078341701     1.042552416912
    C           -2.694774169993     0.929680706587    -0.852398171843
    H           -2.559293087896     0.408634825740     1.231712755455
    H           -3.360001495820    -0.774231337347     0.252809018459
    C           -4.046906626733     1.633113391029    -0.792237421576
    H           -1.907620365931     1.673979523047    -0.807760862055
    H           -2.590994423320     0.430911965727    -1.812980314147
    H           -4.171792042082     2.159071997339     0.148545788201
    H           -4.147851221965     2.358428883537    -1.591334020367
    H           -4.862790150134     0.923817727510    -0.883588553832
    H            3.891711857594    -1.811049935655    -0.529896770615
    H            4.736770966646    -0.497204451882     0.299696508842
    H            3.859075757704    -1.730461667726     1.214470780504

  Mulliken Charges: (a.u.)
   Center  Symbol    Alpha    Beta     Spin     Total
       1     O     4.17084  4.17084  0.00000 -0.34168
       2     C     2.86155  2.86155  0.00000  0.27690
       3     C     3.11470  3.11470  0.00000 -0.22940
       4     C     3.15136  3.15136  0.00000 -0.30272
       5     C     3.08553  3.08553  0.00000 -0.17106
       6     H     0.44524  0.44524  0.00000  0.10952
       7     H     0.44451  0.44451  0.00000  0.11099
       8     C     3.10039  3.10039  0.00000 -0.20077
       9     H     0.44331  0.44331  0.00000  0.11339
      10     H     0.44565  0.44565  0.00000  0.10871
      11     C     3.09394  3.09394  0.00000 -0.18787
      12     H     0.45375  0.45375  0.00000  0.09250
      13     H     0.45058  0.45058  0.00000  0.09885
      14     C     3.08780  3.08780  0.00000 -0.17560
      15     H     0.45281  0.45281  0.00000  0.09438
      16     H     0.45007  0.45007  0.00000  0.09987
      17     C     3.15016  3.15016  0.00000 -0.30031
      18     H     0.44890  0.44890  0.00000  0.10221
      19     H     0.45474  0.45474  0.00000  0.09052
      20     H     0.45480  0.45480  0.00000  0.09041
      21     H     0.44807  0.44807  0.00000  0.10385
      22     H     0.45519  0.45519  0.00000  0.08961
      23     H     0.45049  0.45049  0.00000  0.09901
      24     H     0.43536  0.43536  0.00000  0.12927
      25     H     0.45027  0.45027  0.00000  0.09945

   Total alpha = 36.00000, Total beta = 36.00000, Total charge = -0.00000

*** Psi4 exiting successfully. Buy a developer a beer!
