  ==> Input File <==

--------------------------------------------------------------------------
set {
	reference rhf
	basis cc-pvtz
}

set_num_threads( 4 )
memory 2 gb

molecule MOL {
0 1

H	 -2.404891	 -0.689323	 0.928530
O	 -2.346257	 -0.289210	 0.080372
C	 -1.183935	 0.486039	 -0.009831
C	 0.062853	 -0.375310	 0.027457
H	 -1.178881	 1.094526	 -0.908634
H	 -1.184406	 1.155156	 0.838676
O	 1.172093	 0.457955	 -0.054438
H	 0.052476	 -1.081302	 -0.804627
H	 0.076323	 -0.955658	 0.947560
C	 2.395478	 -0.199028	 -0.000366
H	 2.505946	 -0.901710	 -0.823354
H	 3.174616	 0.545641	 -0.071768
H	 2.513730	 -0.742241	 0.934223

	symmetry c1
}
set optking {
	frozen_dihedral = ("
		1 2 3 5
	")
}

ee = optimize('scf')
oeprop('DIPOLE', 'QUADRUPOLE', 'MULLIKEN_CHARGES')
f=open( 'psi4out.xyz', 'w' )
f.write( "13  " )
f.write( str(ee) + "\n" )
f.write( MOL.save_string_xyz() )
f.close()
--------------------------------------------------------------------------

    Molecular point group: c1
  Charge       = 0
  Multiplicity = 1
  Basis Set: CC-PVTZ
  Basis Set:
  @DF-RHF Final Energy:  -268.06058203418570
    Total Energy =                       -268.0605820341856429
    Molecular point group: c1
  Basis Set: CC-PVTZ
  Basis Set:
  Basis Set: CC-PVTZ
  Basis Set:
  @DF-RHF Final Energy:  -268.06196425399298
    Total Energy =                       -268.0619642539928122
  Basis Set: CC-PVTZ
  Basis Set:
  Basis Set: CC-PVTZ
  Basis Set:
  @DF-RHF Final Energy:  -268.06229292211884
    Total Energy =                       -268.0622929221187860
  Basis Set: CC-PVTZ
  Basis Set:
  Basis Set: CC-PVTZ
  Basis Set:
  @DF-RHF Final Energy:  -268.06229893021214
    Total Energy =                       -268.0622989302121368
  Basis Set: CC-PVTZ
  Basis Set:
  Charge       = 0
  Multiplicity = 1
  Basis Set: CC-PVTZ
  Basis Set:

    Orbital Energies (a.u.)
    -----------------------

    Doubly Occupied:

       1A    -20.556404     2A    -20.552979     3A    -11.269798
       4A    -11.268072     5A    -11.267525     6A     -1.392395
       7A     -1.369385     8A     -1.019921     9A     -0.914203
      10A     -0.843482    11A     -0.711581    12A     -0.676709
      13A     -0.664022    14A     -0.638962    15A     -0.597730
      16A     -0.572412    17A     -0.546847    18A     -0.492151
      19A     -0.482867    20A     -0.441905    21A     -0.425137

  @DF-RHF Final Energy:  -268.06229947003220

   => Energetics <=

    Nuclear Repulsion Energy =            190.5146465045862101
    One-Electron Energy =                -743.7449220641902912
    Two-Electron Energy =                 285.1679760895720506
    DFT Exchange-Correlation Energy =       0.0000000000000000
    Empirical Dispersion Energy =           0.0000000000000000
    PCM Polarization Energy =               0.0000000000000000
    EFP Energy =                            0.0000000000000000
    Total Energy =                       -268.0622994700319737
    Molecular point group: c1
  Basis Set: CC-PVTZ
  Basis Set:

  -Total Gradient:
     Atom            X                  Y                   Z
    ------   -----------------  -----------------  -----------------
       1        0.000145342247    -0.000201000425    -0.000089703343
       2       -0.000168750401     0.000210949817     0.000091286503
       3       -0.000120218123     0.000140464284     0.000129727713
       4       -0.000048099430     0.000039714825     0.000004203065
       5        0.000139509315    -0.000178056851    -0.000106960137
       6       -0.000002316758    -0.000018047854    -0.000000402928
       7        0.000037063054    -0.000013725863    -0.000009987940
       8        0.000005686163    -0.000006204969    -0.000002679531
       9       -0.000010382977     0.000016439695    -0.000020186022
      10        0.000014186599     0.000014510490     0.000010144256
      11       -0.000001143882     0.000002016611    -0.000001086737
      12        0.000006885885    -0.000004139923    -0.000004224745
      13        0.000002238312    -0.000002919840    -0.000000130153

  **** Optimization is complete! (in 5 steps) ****
    Final optimized geometry and variables:
    Molecular point group: c1

    Geometry (in Angstrom), charge = 0, multiplicity = 1:

    H           -2.450405919408    -0.674863460237     0.876924730155
    O           -2.347501690618    -0.295664249067     0.023227502936
    C           -1.185302013963     0.483267817248    -0.022955165310
    C            0.063285761234    -0.375279594446     0.020803197236
    H           -1.210877503732     1.030939182281    -0.954044849218
    H           -1.157488766057     1.206915255956     0.785592181387
    O            1.171297540028     0.461255582290    -0.038864228875
    H            0.054451433070    -1.073184184313    -0.813773738619
    H            0.078095488311    -0.964095290596     0.939641670448
    C            2.395206700460    -0.197057904262    -0.037597825171
    H            2.490388810897    -0.860278590336    -0.894093020868
    H            3.173218165539     0.550503405245    -0.087390229309
    H            2.530171168725    -0.783453504857     0.868603422360

  Mulliken Charges: (a.u.)
   Center  Symbol    Alpha    Beta     Spin     Total
       1     H     0.39426  0.39426  0.00000  0.21148
       2     O     4.20187  4.20187  0.00000 -0.40374
       3     C     2.97248  2.97248  0.00000  0.05503
       4     C     2.96598  2.96598  0.00000  0.06805
       5     H     0.45274  0.45274  0.00000  0.09453
       6     H     0.46692  0.46692  0.00000  0.06616
       7     O     4.17526  4.17526  0.00000 -0.35053
       8     H     0.46943  0.46943  0.00000  0.06115
       9     H     0.48233  0.48233  0.00000  0.03534
      10     C     3.03183  3.03183  0.00000 -0.06367
      11     H     0.46982  0.46982  0.00000  0.06036
      12     H     0.44585  0.44585  0.00000  0.10831
      13     H     0.47123  0.47123  0.00000  0.05754

   Total alpha = 21.00000, Total beta = 21.00000, Total charge =  0.00000
