  ==> Input File <==

--------------------------------------------------------------------------
set {
	reference rhf
	basis 6-31G*
}

set_num_threads( 4 )
memory 2 gb

molecule MOL {
0 1

H	 1.251556	 -1.699728	 1.279668
O	 0.577719	 -1.128728	 0.939680
C	 1.135793	 0.118896	 0.612333
C	 0.031547	 1.023609	 0.088541
H	 1.899677	 0.004819	 -0.154712
H	 1.614942	 0.562617	 1.482177
C	 -1.134819	 0.293262	 -0.585751
H	 0.474374	 1.714721	 -0.623187
H	 -0.338529	 1.620940	 0.920081
C	 -1.917817	 -0.639439	 0.339494
H	 -0.758119	 -0.268455	 -1.433105
H	 -1.813832	 1.041889	 -0.986690
H	 -2.777680	 -1.057197	 -0.174994
H	 -1.310268	 -1.471279	 0.680599
H	 -2.283753	 -0.111424	 1.216626

	symmetry c1
}
set optking {
	frozen_dihedral = ("
		2 3 4 8
	")
}

ee = optimize('scf')
oeprop('DIPOLE', 'QUADRUPOLE', 'MULLIKEN_CHARGES')
f=open( 'psi4out.xyz', 'w' )
f.write( "15  " )
f.write( str(ee) + "\n" )
f.write( MOL.save_string_xyz() )
f.close()
--------------------------------------------------------------------------

    Molecular point group: c1
  Charge       = 0
  Multiplicity = 1
  Basis Set: 6-31G*
  Basis Set:
  @DF-RHF Final Energy:  -232.12802455250261
    Total Energy =                       -232.1280245525025521
    Molecular point group: c1
  Basis Set: 6-31G*
  Basis Set:
  Basis Set: 6-31G*
  Basis Set:
  @DF-RHF Final Energy:  -232.13530824076443
    Total Energy =                       -232.1353082407645729
  Basis Set: 6-31G*
  Basis Set:
  Basis Set: 6-31G*
  Basis Set:
  @DF-RHF Final Energy:  -232.13711545174201
    Total Energy =                       -232.1371154517418063
  Basis Set: 6-31G*
  Basis Set:
  Basis Set: 6-31G*
  Basis Set:
  @DF-RHF Final Energy:  -232.13781097187751
    Total Energy =                       -232.1378109718773999
  Basis Set: 6-31G*
  Basis Set:
  Basis Set: 6-31G*
  Basis Set:
  @DF-RHF Final Energy:  -232.13787338413880
    Total Energy =                       -232.1378733841387429
  Basis Set: 6-31G*
  Basis Set:
  Basis Set: 6-31G*
  Basis Set:
  @DF-RHF Final Energy:  -232.13788363961532
    Total Energy =                       -232.1378836396154384
  Basis Set: 6-31G*
  Basis Set:
  Basis Set: 6-31G*
  Basis Set:
  @DF-RHF Final Energy:  -232.13788607059470
    Total Energy =                       -232.1378860705948455
  Basis Set: 6-31G*
  Basis Set:
  Charge       = 0
  Multiplicity = 1
  Basis Set: 6-31G*
  Basis Set:

    Orbital Energies (a.u.)
    -----------------------

    Doubly Occupied:

       1A    -20.554685     2A    -11.269697     3A    -11.213630
       4A    -11.207340     5A    -11.191926     6A     -1.361622
       7A     -1.057612     8A     -0.968022     9A     -0.859228
      10A     -0.776023    11A     -0.704631    12A     -0.645986
      13A     -0.603818    14A     -0.578318    15A     -0.542234
      16A     -0.536562    17A     -0.508238    18A     -0.472460
      19A     -0.459571    20A     -0.444882    21A     -0.428935

  @DF-RHF Final Energy:  -232.13788655948582

   => Energetics <=

    Nuclear Repulsion Energy =            192.8951443312239462
    One-Electron Energy =                -697.2952211943338625
    Two-Electron Energy =                 272.2621903036241520
    DFT Exchange-Correlation Energy =       0.0000000000000000
    Empirical Dispersion Energy =           0.0000000000000000
    PCM Polarization Energy =               0.0000000000000000
    EFP Energy =                            0.0000000000000000
    Total Energy =                       -232.1378865594857643
    Molecular point group: c1
  Basis Set: 6-31G*
  Basis Set:

  -Total Gradient:
     Atom            X                  Y                   Z
    ------   -----------------  -----------------  -----------------
       1        0.000004053238     0.000000110865    -0.000002176739
       2        0.000660198172    -0.000892715698    -0.004098707670
       3       -0.001020273006     0.000549839909     0.004572919536
       4        0.001149282097     0.003486772897     0.003747221858
       5       -0.000011133879    -0.000004397973     0.000003003720
       6       -0.000010379615     0.000008281787     0.000003998205
       7        0.000018811892     0.000016107343    -0.000030304752
       8       -0.000792379514    -0.003147837756    -0.004236005593
       9       -0.000000327431    -0.000001099810    -0.000003785670
      10       -0.000001050630     0.000010638175     0.000036817433
      11       -0.000005529461     0.000005908742     0.000008868451
      12        0.000018113454     0.000008317382     0.000011404690
      13       -0.000027616840    -0.000022685936    -0.000001623054
      14        0.000003144597    -0.000001220538     0.000008015938
      15        0.000015086927    -0.000016019389    -0.000019646356

  **** Optimization is complete! (in 8 steps) ****
    Final optimized geometry and variables:
    Molecular point group: c1

    Geometry (in Angstrom), charge = 0, multiplicity = 1:

    H            1.821719559816    -1.577149197515     0.760491262226
    O            1.050597606207    -1.080672417730     0.526564008493
    C            1.413673565071     0.256082195864     0.289455646863
    C            0.191052369870     1.096673531422    -0.098717537319
    H            2.135853327547     0.288696096788    -0.524578536009
    H            1.895449501018     0.686042916397     1.164819740232
    C           -0.911204683479     0.338438271894    -0.859689325008
    H            0.551194888682     1.884766872035    -0.754657384264
    H           -0.237776994448     1.571793093222     0.778611516741
    C           -1.905544206697    -0.402121230321     0.035546632679
    H           -0.457370675395    -0.358291919297    -1.557944372110
    H           -1.460541886725     1.060082324756    -1.459568647641
    H           -2.668828844122    -0.891559526495    -0.563167184038
    H           -1.411876075496    -1.153192741990     0.636665486926
    H           -2.410219522582     0.291098956500     0.704215039768

  Mulliken Charges: (a.u.)
   Center  Symbol    Alpha    Beta     Spin     Total
       1     H     0.28016  0.28016  0.00000  0.43967
       2     O     4.36954  4.36954  0.00000 -0.73907
       3     C     2.99309  2.99309  0.00000  0.01383
       4     C     3.16984  3.16984  0.00000 -0.33967
       5     H     0.43204  0.43204  0.00000  0.13591
       6     H     0.42919  0.42919  0.00000  0.14162
       7     C     3.14828  3.14828  0.00000 -0.29656
       8     H     0.42037  0.42037  0.00000  0.15925
       9     H     0.41831  0.41831  0.00000  0.16338
      10     C     3.24107  3.24107  0.00000 -0.48215
      11     H     0.41705  0.41705  0.00000  0.16590
      12     H     0.42512  0.42512  0.00000  0.14976
      13     H     0.42515  0.42515  0.00000  0.14970
      14     H     0.40228  0.40228  0.00000  0.19544
      15     H     0.42851  0.42851  0.00000  0.14299

   Total alpha = 21.00000, Total beta = 21.00000, Total charge =  0.00000
