  ==> Input File <==

--------------------------------------------------------------------------
set {
	reference rhf
	basis 6-31G*
}

set_num_threads( 4 )
memory 2 gb

molecule MOL {
0 1

H	 -3.407059	 -1.043082	 0.000000
O	 -3.119761	 -0.140267	 0.000000
C	 -1.777559	 -0.059267	 0.000000
C	 -0.970776	 -1.119373	 -0.402835
C	 -1.210131	 1.136558	 0.422013
H	 -1.418619	 -2.042785	 -0.728500
C	 0.400994	 -0.979250	 -0.382003
H	 -1.853479	 1.939573	 0.727861
C	 0.163413	 1.261380	 0.437247
H	 1.035513	 -1.788925	 -0.690078
C	 0.984585	 0.211707	 0.037887
H	 0.603640	 2.187861	 0.764194
C	 2.453100	 0.360043	 0.059581
O	 3.226178	 -0.487106	 -0.265146
H	 2.813782	 1.334367	 0.405654

	symmetry c1
}
set optking {
	frozen_dihedral = ("
		5 3 2 1
	")
}

ee = optimize('scf')
oeprop('DIPOLE', 'QUADRUPOLE', 'MULLIKEN_CHARGES')
f=open( 'psi4out.xyz', 'w' )
f.write( "15  " )
f.write( str(ee) + "\n" )
f.write( MOL.save_string_xyz() )
f.close()
--------------------------------------------------------------------------

    Molecular point group: c1
  Charge       = 0
  Multiplicity = 1
  Basis Set: 6-31G*
  Basis Set:
  @DF-RHF Final Energy:  -418.28923299023108
    Total Energy =                       -418.2892329902313122
    Molecular point group: c1
  Basis Set: 6-31G*
  Basis Set:
  Basis Set: 6-31G*
  Basis Set:
  @DF-RHF Final Energy:  -418.28925103902486
    Total Energy =                       -418.2892510390246343
  Basis Set: 6-31G*
  Basis Set:
  Basis Set: 6-31G*
  Basis Set:
  @DF-RHF Final Energy:  -418.28925413730013
    Total Energy =                       -418.2892541373000768
  Basis Set: 6-31G*
  Basis Set:
  Basis Set: 6-31G*
  Basis Set:
  @DF-RHF Final Energy:  -418.28922417559551
    Total Energy =                       -418.2892241755955638
  Basis Set: 6-31G*
  Basis Set:
  Charge       = 0
  Multiplicity = 1
  Basis Set: 6-31G*
  Basis Set:

    Orbital Energies (a.u.)
    -----------------------

    Doubly Occupied:

       1A    -20.608882     2A    -20.556318     3A    -11.328341
       4A    -11.322662     5A    -11.260645     6A    -11.256518
       7A    -11.244275     8A    -11.239355     9A    -11.239094
      10A     -1.429611    11A     -1.397506    12A     -1.170626
      13A     -1.041518    14A     -1.038503    15A     -0.888496
      16A     -0.866396    17A     -0.794488    18A     -0.756778
      19A     -0.713296    20A     -0.665869    21A     -0.642605
      22A     -0.628237    23A     -0.612311    24A     -0.607667
      25A     -0.575520    26A     -0.556958    27A     -0.549280
      28A     -0.505686    29A     -0.483745    30A     -0.418925
      31A     -0.357698    32A     -0.327896

  @DF-RHF Final Energy:  -418.28925507486838

   => Energetics <=

    Nuclear Repulsion Energy =            401.3005949345307499
    One-Electron Energy =               -1365.0082900202701239
    Two-Electron Energy =                 545.4184400108713362
    DFT Exchange-Correlation Energy =       0.0000000000000000
    Empirical Dispersion Energy =           0.0000000000000000
    PCM Polarization Energy =               0.0000000000000000
    EFP Energy =                            0.0000000000000000
    Total Energy =                       -418.2892550748680378
    Molecular point group: c1
  Basis Set: 6-31G*
  Basis Set:

  -Total Gradient:
     Atom            X                  Y                   Z
    ------   -----------------  -----------------  -----------------
       1        0.000002455339    -0.000001295380     0.002467999104
       2        0.000001596925    -0.000279438437    -0.002297725821
       3       -0.000039946996     0.000818879955    -0.001865656666
       4       -0.000074462683     0.000029316276     0.000029578139
       5        0.000128180753    -0.000570589916     0.001661191058
       6        0.000005410415     0.000004863028    -0.000006526784
       7        0.000077602630     0.000063320868     0.000002630932
       8       -0.000012316054    -0.000002087771     0.000010304789
       9       -0.000089967201     0.000044187974     0.000033139740
      10       -0.000005702224    -0.000010935752     0.000008037355
      11        0.000006117617    -0.000103337972    -0.000032945703
      12        0.000000443172    -0.000000668868    -0.000006207589
      13       -0.000014091100     0.000019935714    -0.000005309084
      14        0.000010959394    -0.000008266217     0.000001435667
      15        0.000003720001    -0.000003883500     0.000000054862

  **** Optimization is complete! (in 5 steps) ****
    Final optimized geometry and variables:
    Molecular point group: c1

    Geometry (in Angstrom), charge = 0, multiplicity = 1:

    H           -3.405270662404    -1.047454528684     0.006480308470
    O           -3.121305607910    -0.143648830857     0.009133223368
    C           -1.776646742445    -0.060177001383     0.014031543020
    C           -0.970652061718    -1.121853102696    -0.386398940827
    C           -1.209417650190     1.133463604783     0.439286577427
    H           -1.420534341271    -2.041938089222    -0.717826175188
    C            0.400958553268    -0.983088445774    -0.364732239528
    H           -1.852173018459     1.934678947272     0.751238796129
    C            0.164778963942     1.260697455440     0.448039544850
    H            1.035401714594    -1.793359818826    -0.671406589587
    C            0.984534920377     0.209987111802     0.050565412540
    H            0.605528061886     2.186677244565     0.775620442666
    C            2.453406428283     0.358551185361     0.071403592597
    O            3.226106920138    -0.490842571719    -0.248369060074
    H            2.814601979657     1.334577206156     0.411754486353

  Mulliken Charges: (a.u.)
   Center  Symbol    Alpha    Beta     Spin     Total
       1     H     0.26870  0.26870  0.00000  0.46261
       2     O     4.37458  4.37458  0.00000 -0.74916
       3     C     2.78728  2.78728  0.00000  0.42544
       4     C     3.14503  3.14503  0.00000 -0.29006
       5     C     3.12777  3.12777  0.00000 -0.25554
       6     H     0.39690  0.39690  0.00000  0.20621
       7     C     3.07837  3.07837  0.00000 -0.15674
       8     H     0.38650  0.38650  0.00000  0.22699
       9     C     3.09273  3.09273  0.00000 -0.18545
      10     H     0.37461  0.37461  0.00000  0.25079
      11     C     3.06828  3.06828  0.00000 -0.13655
      12     H     0.38979  0.38979  0.00000  0.22043
      13     C     2.83035  2.83035  0.00000  0.33931
      14     O     4.25453  4.25453  0.00000 -0.50906
      15     H     0.42460  0.42460  0.00000  0.15080

   Total alpha = 32.00000, Total beta = 32.00000, Total charge =  0.00000
