  ==> Input File <==

--------------------------------------------------------------------------
set {
	reference rhf
	basis 6-31G*
}

set_num_threads( 1 )
memory 2 gb

molecule MOL {
0 1

H	 2.172787	 3.846935	 3.054212
C	 2.009466	 3.019743	 3.756138
C	 0.698773	 2.293437	 3.591292
O	 2.834332	 2.754764	 4.569239
C	 0.460720	 1.828976	 2.147733
H	 0.678793	 1.461765	 4.286008
H	 -0.089942	 2.987655	 3.878775
C	 1.436976	 0.743685	 1.686901
H	 -0.556231	 1.456136	 2.069723
H	 0.521111	 2.685497	 1.478046
C	 1.180775	 0.282413	 0.250794
H	 1.365883	 -0.108105	 2.360137
H	 2.459332	 1.107702	 1.769479
C	 2.148627	 -0.814315	 -0.201312
H	 0.155514	 -0.070214	 0.171888
H	 1.264404	 1.134890	 -0.422016
C	 3.580890	 -0.659131	 0.322722
H	 2.166869	 -0.852443	 -1.289387
H	 1.762857	 -1.776509	 0.128956
C	 4.324889	 0.564933	 -0.213704
H	 4.142010	 -1.551473	 0.056605
H	 3.564836	 -0.624694	 1.410140
H	 4.342616	 0.565491	 -1.300421
H	 3.866655	 1.493402	 0.110242
H	 5.353900	 0.572371	 0.132816

	symmetry c1
}
set optking {
	frozen_dihedral = ("
		6 3 5 8,
		6 3 2 4,
		3 5 8 12,
		12 8 11 14,
		20 17 14 18
	")
}

ee = energy('scf')
oeprop('DIPOLE', 'QUADRUPOLE', 'MULLIKEN_CHARGES')
f=open( 'psi4out.xyz', 'w' )
f.write( "25  " )
f.write( str(ee) + "\n" )
f.write( MOL.save_string_xyz() )
f.close()
--------------------------------------------------------------------------

    Molecular point group: c1

    Geometry (in Angstrom), charge = 0, multiplicity = 1:

       Center              X                  Y                   Z               Mass
    ------------   -----------------  -----------------  -----------------  -----------------
           H          0.074293322509     2.726080690740     1.280824667469     1.007825032070
           C         -0.089027677491     1.898888690740     1.982750667469    12.000000000000
           C         -1.399720677491     1.172582690740     1.817904667469    12.000000000000
           O          0.735838322509     1.633909690740     2.795851667469    15.994914619560
           C         -1.637773677491     0.708121690740     0.374345667469    12.000000000000
           H         -1.419700677491     0.340910690740     2.512620667469     1.007825032070
           H         -2.188435677491     1.866800690740     2.105387667469     1.007825032070
           C         -0.661517677491    -0.377169309260    -0.086486332531    12.000000000000
           H         -2.654724677491     0.335281690740     0.296335667469     1.007825032070
           H         -1.577382677491     1.564642690740    -0.295341332531     1.007825032070
           C         -0.917718677491    -0.838441309260    -1.522593332531    12.000000000000
           H         -0.732610677491    -1.228959309260     0.586749667469     1.007825032070
           H          0.360838322509    -0.013152309260    -0.003908332531     1.007825032070
           C          0.050133322509    -1.935169309260    -1.974699332531    12.000000000000
           H         -1.942979677491    -1.191068309260    -1.601499332531     1.007825032070
           H         -0.834089677491     0.014035690740    -2.195403332531     1.007825032070
           C          1.482396322509    -1.779985309260    -1.450665332531    12.000000000000
           H          0.068375322509    -1.973297309260    -3.062774332531     1.007825032070
           H         -0.335636677491    -2.897363309260    -1.644431332531     1.007825032070
           C          2.226395322509    -0.555921309260    -1.987091332531    12.000000000000
           H          2.043516322509    -2.672327309260    -1.716782332531     1.007825032070
           H          1.466342322509    -1.745548309260    -0.363247332531     1.007825032070
           H          2.244122322509    -0.555363309260    -3.073808332531     1.007825032070
           H          1.768161322509     0.372547690740    -1.663145332531     1.007825032070
           H          3.255406322509    -0.548483309260    -1.640571332531     1.007825032070

  Charge       = 0
  Multiplicity = 1
  Basis Set: 6-31G*
  Basis Set:

    Orbital Energies (a.u.)
    -----------------------

    Doubly Occupied:

       1A    -20.562161     2A    -11.326287     3A    -11.234948
       4A    -11.234365     5A    -11.222593     6A    -11.219497
       7A    -11.216429     8A    -11.215559     9A    -11.210081
      10A     -1.402165    11A     -1.106140    12A     -1.068826
      13A     -1.008390    14A     -0.945533    15A     -0.874195
      16A     -0.832717    17A     -0.789074    18A     -0.764501
      19A     -0.666650    20A     -0.662486    21A     -0.634239
      22A     -0.627198    23A     -0.609460    24A     -0.587929
      25A     -0.562664    26A     -0.559478    27A     -0.539967
      28A     -0.520549    29A     -0.513629    30A     -0.500458
      31A     -0.486795    32A     -0.480852    33A     -0.454970
      34A     -0.451445    35A     -0.446077    36A     -0.409513

  @DF-RHF Final Energy:  -387.11562431950455

   => Energetics <=

    Nuclear Repulsion Energy =            456.2059841453075819
    One-Electron Energy =               -1428.7477358837932115
    Two-Electron Energy =                 585.4261274189815367
    DFT Exchange-Correlation Energy =       0.0000000000000000
    Empirical Dispersion Energy =           0.0000000000000000
    PCM Polarization Energy =               0.0000000000000000
    EFP Energy =                            0.0000000000000000
    Total Energy =                       -387.1156243195040361

  Mulliken Charges: (a.u.)
   Center  Symbol    Alpha    Beta     Spin     Total
       1     H     0.43263  0.43263  0.00000  0.13475
       2     C     2.83094  2.83094  0.00000  0.33813
       3     C     3.20793  3.20793  0.00000 -0.41586
       4     O     4.23797  4.23797  0.00000 -0.47595
       5     C     3.16519  3.16519  0.00000 -0.33039
       6     H     0.39990  0.39990  0.00000  0.20021
       7     H     0.40672  0.40672  0.00000  0.18656
       8     C     3.16197  3.16197  0.00000 -0.32393
       9     H     0.41316  0.41316  0.00000  0.17369
      10     H     0.41990  0.41990  0.00000  0.16020
      11     C     3.15487  3.15487  0.00000 -0.30975
      12     H     0.41805  0.41805  0.00000  0.16391
      13     H     0.41444  0.41444  0.00000  0.17112
      14     C     3.15286  3.15286  0.00000 -0.30572
      15     H     0.41974  0.41974  0.00000  0.16052
      16     H     0.42232  0.42232  0.00000  0.15536
      17     C     3.16232  3.16232  0.00000 -0.32465
      18     H     0.42119  0.42119  0.00000  0.15761
      19     H     0.42103  0.42103  0.00000  0.15794
      20     C     3.24039  3.24039  0.00000 -0.48077
      21     H     0.41880  0.41880  0.00000  0.16240
      22     H     0.41654  0.41654  0.00000  0.16692
      23     H     0.42172  0.42172  0.00000  0.15657
      24     H     0.42257  0.42257  0.00000  0.15486
      25     H     0.41687  0.41687  0.00000  0.16626

   Total alpha = 36.00000, Total beta = 36.00000, Total charge =  0.00000
