  ==> Input File <==

--------------------------------------------------------------------------
set {
	reference rhf
	basis cc-pvtz
}

set_num_threads( 4 )
memory 2 gb

molecule MOL {
0 1

H	 -2.997682	 0.313128	 2.018727
O	 -2.153609	 0.593318	 1.716949
C	 -2.021813	 0.336996	 0.342658
C	 -0.669613	 0.837286	 -0.127252
H	 -2.101897	 -0.729713	 0.149162
H	 -2.814417	 0.833263	 -0.214012
C	 0.490865	 -0.082543	 0.241244
H	 -0.708709	 0.967192	 -1.204587
H	 -0.507562	 1.822272	 0.303070
C	 1.839800	 0.429565	 -0.255472
H	 0.305636	 -1.070211	 -0.165276
H	 0.527397	 -0.195943	 1.322876
C	 3.001144	 -0.485193	 0.119072
H	 1.804373	 0.541073	 -1.335756
H	 2.020437	 1.423114	 0.146921
H	 2.866892	 -1.477297	 -0.298806
H	 3.943543	 -0.095749	 -0.249061
H	 3.085064	 -0.590459	 1.195790

	symmetry c1
}
set optking {
	frozen_dihedral = ("
		2 3 4 8
	")
}

ee = optimize('scf')
oeprop('DIPOLE', 'QUADRUPOLE', 'MULLIKEN_CHARGES')
f=open( 'psi4out.xyz', 'w' )
f.write( "18  " )
f.write( str(ee) + "\n" )
f.write( MOL.save_string_xyz() )
f.close()
--------------------------------------------------------------------------

    Molecular point group: c1
  Charge       = 0
  Multiplicity = 1
  Basis Set: CC-PVTZ
  Basis Set:
  @DF-RHF Final Energy:  -271.28597166700735
    Total Energy =                       -271.2859716670071180
    Molecular point group: c1
  Basis Set: CC-PVTZ
  Basis Set:
  Basis Set: CC-PVTZ
  Basis Set:
  @DF-RHF Final Energy:  -271.28619227648653
    Total Energy =                       -271.2861922764863039
  Basis Set: CC-PVTZ
  Basis Set:
  Basis Set: CC-PVTZ
  Basis Set:
  @DF-RHF Final Energy:  -271.28622368468598
    Total Energy =                       -271.2862236846859787
  Basis Set: CC-PVTZ
  Basis Set:
  Basis Set: CC-PVTZ
  Basis Set:
  @DF-RHF Final Energy:  -271.28622717154235
    Total Energy =                       -271.2862271715421798
  Basis Set: CC-PVTZ
  Basis Set:
  Basis Set: CC-PVTZ
  Basis Set:
  @DF-RHF Final Energy:  -271.28622822934750
    Total Energy =                       -271.2862282293472163
  Basis Set: CC-PVTZ
  Basis Set:
  Charge       = 0
  Multiplicity = 1
  Basis Set: CC-PVTZ
  Basis Set:

    Orbital Energies (a.u.)
    -----------------------

    Doubly Occupied:

       1A    -20.546085     2A    -11.265752     3A    -11.209953
       4A    -11.209817     5A    -11.206707     6A    -11.203508
       7A     -1.363621     8A     -1.077290     9A     -1.010364
      10A     -0.914605    11A     -0.819100    12A     -0.786399
      13A     -0.708582    14A     -0.638275    15A     -0.631841
      16A     -0.581561    17A     -0.571902    18A     -0.560400
      19A     -0.525909    20A     -0.500346    21A     -0.488686
      22A     -0.470213    23A     -0.460476    24A     -0.452333
      25A     -0.429691

  @DF-RHF Final Energy:  -271.28622829702039

   => Energetics <=

    Nuclear Repulsion Energy =            248.6959307667557937
    One-Electron Energy =                -860.6974824383094074
    Two-Electron Energy =                 340.7153233745331136
    DFT Exchange-Correlation Energy =       0.0000000000000000
    Empirical Dispersion Energy =           0.0000000000000000
    PCM Polarization Energy =               0.0000000000000000
    EFP Energy =                            0.0000000000000000
    Total Energy =                       -271.2862282970205570
    Molecular point group: c1
  Basis Set: CC-PVTZ
  Basis Set:

  -Total Gradient:
     Atom            X                  Y                   Z
    ------   -----------------  -----------------  -----------------
       1        0.000003112480    -0.000000336098    -0.000006986351
       2       -0.000894390155     0.002058152963    -0.000482580200
       3        0.000963763129    -0.002022623995     0.000705621185
       4        0.000780513577    -0.002857790708    -0.000552137194
       5        0.000002882551     0.000001312460    -0.000005495048
       6        0.000001777836     0.000002766334     0.000001284501
       7       -0.000004883546     0.000004918111    -0.000002174906
       8       -0.000856569249     0.002814404993     0.000334371460
       9       -0.000000480896     0.000006504497     0.000002277042
      10       -0.000002284766    -0.000010695339    -0.000010936300
      11        0.000006930149     0.000008572864     0.000002682485
      12        0.000002140704    -0.000006802806     0.000010083073
      13       -0.000000874451     0.000001490396     0.000004416304
      14       -0.000000298452     0.000001937987    -0.000001862952
      15       -0.000001126255    -0.000002187411     0.000001057244
      16       -0.000000176991     0.000001063207    -0.000001063961
      17       -0.000000316236     0.000001357727     0.000001383697
      18        0.000000280569    -0.000002045182     0.000000059922

  **** Optimization is complete! (in 6 steps) ****
    Final optimized geometry and variables:
    Molecular point group: c1

    Geometry (in Angstrom), charge = 0, multiplicity = 1:

    H           -2.937014327306     0.009703966941     1.707053962181
    O           -2.144096735804     0.362739015366     1.348285928396
    C           -2.061866063606     0.072375266510    -0.023926374483
    C           -0.713613236826     0.541088775539    -0.540752692776
    H           -2.183975881298    -0.994254734166    -0.199387260305
    H           -2.856396899321     0.586524673462    -0.558617834792
    C            0.447983034438    -0.368690923814    -0.155437764241
    H           -0.772611425500     0.651752200688    -1.620074668714
    H           -0.544331941606     1.538639165842    -0.146513669519
    C            1.804093817084     0.161210490502    -0.611515654373
    H            0.287427862141    -1.355820852062    -0.583718859625
    H            0.453543468236    -0.497082895173     0.922151510409
    C            2.962624492820    -0.755807530701    -0.234039222199
    H            1.792664948533     0.301599929858    -1.689358551863
    H            1.967633589586     1.144112290133    -0.178528483790
    H            2.847021097017    -1.737407833307    -0.681818533983
    H            3.910666205719    -0.350023202363    -0.568311292299
    H            3.020345435337    -0.889380608650     0.841032374602

  Mulliken Charges: (a.u.)
   Center  Symbol    Alpha    Beta     Spin     Total
       1     H     0.39539  0.39539  0.00000  0.20922
       2     O     4.19964  4.19964  0.00000 -0.39927
       3     C     2.97186  2.97186  0.00000  0.05628
       4     C     3.09081  3.09081  0.00000 -0.18162
       5     H     0.47468  0.47468  0.00000  0.05064
       6     H     0.46595  0.46595  0.00000  0.06810
       7     C     3.08778  3.08778  0.00000 -0.17555
       8     H     0.45297  0.45297  0.00000  0.09407
       9     H     0.45146  0.45146  0.00000  0.09708
      10     C     3.08397  3.08397  0.00000 -0.16795
      11     H     0.45888  0.45888  0.00000  0.08223
      12     H     0.44703  0.44703  0.00000  0.10594
      13     C     3.14990  3.14990  0.00000 -0.29980
      14     H     0.45650  0.45650  0.00000  0.08699
      15     H     0.45349  0.45349  0.00000  0.09303
      16     H     0.45608  0.45608  0.00000  0.08784
      17     H     0.44909  0.44909  0.00000  0.10181
      18     H     0.45452  0.45452  0.00000  0.09096

   Total alpha = 25.00000, Total beta = 25.00000, Total charge = -0.00000
