                              Psi4 1.0.54 Driver

  ==> Input File <==

--------------------------------------------------------------------------
set {
	reference rhf
	basis cc-pvtz
}

set_num_threads( 4 )
memory 2 gb

molecule MOL {
0 1

O	 -2.817697	 1.304178	 0.001046
C	 -2.664672	 0.129869	 0.003507
C	 -3.797908	 -0.860100	 -0.001145
O	 -1.481217	 -0.452708	 0.001092
H	 -4.408836	 -0.679689	 -0.875387
H	 -3.443486	 -1.878443	 -0.002770
H	 -4.412123	 -0.683688	 0.871605
C	 -0.332055	 0.384012	 -0.000250
C	 0.892252	 -0.506059	 -0.000295
H	 -0.360822	 1.020205	 -0.874146
H	 -0.359817	 1.021310	 0.872861
C	 2.188199	 0.299473	 -0.001416
H	 0.857046	 -1.152781	 -0.871031
H	 0.857910	 -1.151798	 0.871202
C	 3.437151	 -0.577593	 -0.000991
H	 2.209565	 0.950707	 -0.871712
H	 2.210062	 0.952234	 0.867721
C	 3.124214	 -2.063022	 0.142463
H	 4.092230	 -0.267230	 0.808084
H	 3.990540	 -0.412836	 -0.921155
H	 2.600426	 -2.264836	 1.070775
H	 4.030844	 -2.656751	 0.138965
H	 2.497670	 -2.411494	 -0.671702

	symmetry c1
}
set optking {
	frozen_dihedral = ("
		19 15 12 16
	")
}

ee,wfn = optimize('scf', return_wfn=True)
oeprop( wfn, 'DIPOLE', 'QUADRUPOLE', 'MULLIKEN_CHARGES')
f=open( 'psi4out.xyz', 'w' )
f.write( "23  " )
f.write( str(ee) + "\n" )
f.write( MOL.save_string_xyz() )
f.close()
--------------------------------------------------------------------------

    Molecular point group: c1
  Charge       = 0
  Multiplicity = 1
  Basis Set: CC-PVTZ
  Basis Set:
  @DF-RHF Final Energy:  -423.12061170617767
    Total Energy =                       -423.1206117061776695
    Molecular point group: c1
  Basis Set: CC-PVTZ
  Basis Set:
  Basis Set: CC-PVTZ
  Basis Set:
  @DF-RHF Final Energy:  -422.36767537220413
    Total Energy =                       -422.3676753722039621
  Basis Set: CC-PVTZ
  Basis Set:
  Basis Set: CC-PVTZ
  Basis Set:
  @DF-RHF Final Energy:  -422.59914982633518
    Total Energy =                       -422.5991498263347239
  Basis Set: CC-PVTZ
  Basis Set:
  Basis Set: CC-PVTZ
  Basis Set:
  @DF-RHF Final Energy:  -422.92413360093553
    Total Energy =                       -422.9241336009355337
  Basis Set: CC-PVTZ
  Basis Set:
  @DF-RHF Final Energy:  -423.08948710512465
    Total Energy =                       -423.0894871051245900
  @DF-RHF Final Energy:  -423.12185528876728
    Total Energy =                       -423.1218552887677333
  @DF-RHF Final Energy:  -423.12459531102212
    Total Energy =                       -423.1245953110217215
  @DF-RHF Final Energy:  -423.12295172873303
    Total Energy =                       -423.1229517287326871
  Basis Set: CC-PVTZ
  Basis Set:
  @DF-RHF Final Energy:  -423.12461757277532
    Total Energy =                       -423.1246175727753780
  Basis Set: CC-PVTZ
  Basis Set:
  Basis Set: CC-PVTZ
  Basis Set:
  @DF-RHF Final Energy:  -423.12486185364651
    Total Energy =                       -423.1248618536460526
  Basis Set: CC-PVTZ
  Basis Set:
  Basis Set: CC-PVTZ
  Basis Set:
  @DF-RHF Final Energy:  -423.12486361390108
    Total Energy =                       -423.1248636139008568
  Basis Set: CC-PVTZ
  Basis Set:
  Charge       = 0
  Multiplicity = 1
  Basis Set: CC-PVTZ
  Basis Set:

    Orbital Energies (a.u.)
    -----------------------

    Doubly Occupied:

       1A    -20.595697     2A    -20.529347     3A    -11.366236
       4A    -11.279011     5A    -11.230575     6A    -11.222133
       7A    -11.221364     8A    -11.220153     9A    -11.210848
      10A     -1.470924    11A     -1.363795    12A     -1.092130
      13A     -1.040073    14A     -1.002254    15A     -0.931620
      16A     -0.859398    17A     -0.789788    18A     -0.769044
      19A     -0.694666    20A     -0.687423    21A     -0.672967
      22A     -0.645548    23A     -0.606612    24A     -0.604734
      25A     -0.575186    26A     -0.566613    27A     -0.551106
      28A     -0.537901    29A     -0.531200    30A     -0.506130
      31A     -0.502499    32A     -0.471630    33A     -0.467515
      34A     -0.456534    35A     -0.454077    36A     -0.438696

  @DF-RHF Final Energy:  -423.12486458365578

   => Energetics <=

    Nuclear Repulsion Energy =            455.6826722513570189
    One-Electron Energy =               -1479.2842170343240014
    Two-Electron Energy =                 600.4766801993110903
    DFT Exchange-Correlation Energy =       0.0000000000000000
    Empirical Dispersion Energy =           0.0000000000000000
    PCM Polarization Energy =               0.0000000000000000
    EFP Energy =                            0.0000000000000000
    Total Energy =                       -423.1248645836559490
    Molecular point group: c1
  Basis Set: CC-PVTZ
  Basis Set:

  -Total Gradient:
     Atom            X                  Y                   Z
    ------   -----------------  -----------------  -----------------
       1       -0.000002057369    -0.000009145100    -0.000027817284
       2        0.000046893623    -0.000014179912     0.000007436674
       3        0.000038390869    -0.000024788599    -0.000029085749
       4       -0.000009156527    -0.000005213716     0.000001087808
       5       -0.000030219824     0.000015127253    -0.000030662207
       6        0.000003079957     0.000020616225     0.000000883619
       7       -0.000053056684    -0.000004989791     0.000042743239
       8       -0.000012499169     0.000012089826     0.000048995324
       9       -0.000017658619    -0.000024000550     0.000019975982
      10        0.000006560014    -0.000018458956    -0.000007219388
      11        0.000017748063    -0.000009470045     0.000012552589
      12       -0.000043980350     0.002003138278     0.001251409107
      13       -0.000012463271     0.000034595850    -0.000017276316
      14       -0.000019513950     0.000008056491    -0.000004047689
      15        0.001613181335     0.000947909222    -0.001504581364
      16       -0.000143430153    -0.001827783684    -0.000822571809
      17        0.000004370802    -0.000006849182     0.000017096005
      18       -0.000037113782    -0.000009728156     0.000012380536
      19       -0.001359784285    -0.001106289659     0.001043045198
      20        0.000003876623     0.000018970801    -0.000035400918
      21       -0.000008393250    -0.000013303778     0.000013746550
      22       -0.000004935273    -0.000001796490     0.000002009589
      23        0.000020161221     0.000015493670     0.000005300501

  **** Optimization is complete! (in 12 steps) ****
    Final optimized geometry and variables:
    Molecular point group: c1

    Geometry (in Angstrom), charge = 0, multiplicity = 1:

    O           -2.286818108975     1.029525398697    -1.802716760807
    C           -2.151229821732    -0.063126145573    -1.366484318077
    C           -3.115305177189    -1.190061915266    -1.622432253604
    O           -1.136997860624    -0.425009174524    -0.604935527027
    H           -3.159582521112    -1.368475984015    -2.688690146469
    H           -2.824195739454    -2.093410407008    -1.110661711156
    H           -4.100260696608    -0.881250407618    -1.299215423213
    C           -0.157297773097     0.557827040219    -0.296872868447
    C            0.893030567261    -0.091541468558     0.579411780775
    H            0.268376778623     0.931351918171    -1.218110771088
    H           -0.636307619127     1.387284715513     0.205083631758
    C            1.988934939114     0.907579948546     0.953851892487
    H            1.311984467892    -0.937418157777     0.046671065524
    H            0.408506239980    -0.484849597653     1.464990118240
    C            3.142537979214     0.377455825388     1.846515962571
    H            2.414114006990     1.286886254705     0.030326998601
    H            1.523760035674     1.756837823336     1.443022199624
    C            3.000557313667    -1.040541113563     2.400555422841
    H            3.255818161019     1.045396137840     2.692892049592
    H            4.071913217348     0.433147888014     1.291616224507
    H            2.122694410233    -1.144993454635     3.027204201203
    H            3.864135943354    -1.282931080580     3.009201016827
    H            2.938282183524    -1.783329718227     1.614732220514

  Mulliken Charges: (a.u.)
   Center  Symbol    Alpha    Beta     Spin     Total
       1     O     4.20240  4.20240  0.00000 -0.40480
       2     C     2.81584  2.81584  0.00000  0.36832
       3     C     3.13993  3.13993  0.00000 -0.27986
       4     O     4.14402  4.14402  0.00000 -0.28805
       5     H     0.44240  0.44240  0.00000  0.11521
       6     H     0.44192  0.44192  0.00000  0.11616
       7     H     0.44190  0.44190  0.00000  0.11620
       8     C     2.98085  2.98085  0.00000  0.03831
       9     C     3.08176  3.08176  0.00000 -0.16351
      10     H     0.45382  0.45382  0.00000  0.09236
      11     H     0.45397  0.45397  0.00000  0.09206
      12     C     3.10995  3.10995  0.00000 -0.21990
      13     H     0.44931  0.44931  0.00000  0.10139
      14     H     0.44884  0.44884  0.00000  0.10231
      15     C     3.08683  3.08683  0.00000 -0.17367
      16     H     0.44965  0.44965  0.00000  0.10070
      17     H     0.44944  0.44944  0.00000  0.10111
      18     C     3.15754  3.15754  0.00000 -0.31509
      19     H     0.45031  0.45031  0.00000  0.09938
      20     H     0.45014  0.45014  0.00000  0.09972
      21     H     0.45280  0.45280  0.00000  0.09440
      22     H     0.44374  0.44374  0.00000  0.11251
      23     H     0.45263  0.45263  0.00000  0.09474

   Total alpha = 36.00000, Total beta = 36.00000, Total charge =  0.00000

*** Psi4 exiting successfully. Buy a developer a beer!
