                              Psi4 1.0.54 Driver

  ==> Input File <==

--------------------------------------------------------------------------
set {
	reference rhf
	basis cc-pvtz
}

set_num_threads( 4 )
memory 2 gb

molecule MOL {
0 1

H	 -1.567163	 -1.174386	 -0.784779
O	 -2.321472	 -0.864941	 -0.318626
C	 -2.021813	 0.336996	 0.342658
C	 -0.669613	 0.837286	 -0.127252
H	 -2.780861	 1.084746	 0.127159
H	 -2.006390	 0.184138	 1.420053
C	 0.490865	 -0.082543	 0.241244
H	 -0.708709	 0.967192	 -1.204587
H	 -0.507562	 1.822272	 0.303070
C	 1.839800	 0.429565	 -0.255472
H	 0.305636	 -1.070211	 -0.165276
H	 0.527397	 -0.195943	 1.322876
C	 3.001144	 -0.485193	 0.119072
H	 1.804373	 0.541073	 -1.335756
H	 2.020437	 1.423114	 0.146921
H	 2.866892	 -1.477297	 -0.298806
H	 3.943543	 -0.095749	 -0.249061
H	 3.085064	 -0.590459	 1.195790

	symmetry c1
}
set optking {
	frozen_dihedral = ("
		1 2 3 4
	")
}

ee,wfn = optimize('scf', return_wfn=True)
oeprop( wfn, 'DIPOLE', 'QUADRUPOLE', 'MULLIKEN_CHARGES')
f=open( 'psi4out.xyz', 'w' )
f.write( "18  " )
f.write( str(ee) + "\n" )
f.write( MOL.save_string_xyz() )
f.close()
--------------------------------------------------------------------------

    Molecular point group: c1
  Charge       = 0
  Multiplicity = 1
  Basis Set: CC-PVTZ
  Basis Set:
  @DF-RHF Final Energy:  -271.28167793467514
    Total Energy =                       -271.2816779346750877
    Molecular point group: c1
  Basis Set: CC-PVTZ
  Basis Set:
  Basis Set: CC-PVTZ
  Basis Set:
  @DF-RHF Final Energy:  -271.28294469926743
    Total Energy =                       -271.2829446992669773
  Basis Set: CC-PVTZ
  Basis Set:
  Basis Set: CC-PVTZ
  Basis Set:
  @DF-RHF Final Energy:  -271.28361631142593
    Total Energy =                       -271.2836163114258170
  Basis Set: CC-PVTZ
  Basis Set:
  Basis Set: CC-PVTZ
  Basis Set:
  @DF-RHF Final Energy:  -271.28374660916728
    Total Energy =                       -271.2837466091673377
  Basis Set: CC-PVTZ
  Basis Set:
  Basis Set: CC-PVTZ
  Basis Set:
  @DF-RHF Final Energy:  -271.28374988553787
    Total Energy =                       -271.2837498855381000
  Basis Set: CC-PVTZ
  Basis Set:
  Charge       = 0
  Multiplicity = 1
  Basis Set: CC-PVTZ
  Basis Set:

    Orbital Energies (a.u.)
    -----------------------

    Doubly Occupied:

       1A    -20.542316     2A    -11.264594     3A    -11.222182
       4A    -11.221517     5A    -11.220359     6A    -11.211878
       7A     -1.360795     8A     -1.087436     9A     -1.015988
      10A     -0.924020    11A     -0.836027    12A     -0.799002
      13A     -0.669261    14A     -0.659712    15A     -0.631825
      16A     -0.613996    17A     -0.578287    18A     -0.560710
      19A     -0.541093    20A     -0.504004    21A     -0.497561
      22A     -0.479576    23A     -0.472502    24A     -0.451582
      25A     -0.432187

  @DF-RHF Final Energy:  -271.28375030597215

   => Energetics <=

    Nuclear Repulsion Energy =            249.0855965836813368
    One-Electron Energy =                -861.1418880098353839
    Two-Electron Energy =                 340.7725411201820407
    DFT Exchange-Correlation Energy =       0.0000000000000000
    Empirical Dispersion Energy =           0.0000000000000000
    PCM Polarization Energy =               0.0000000000000000
    EFP Energy =                            0.0000000000000000
    Total Energy =                       -271.2837503059720348
    Molecular point group: c1
  Basis Set: CC-PVTZ
  Basis Set:

  -Total Gradient:
     Atom            X                  Y                   Z
    ------   -----------------  -----------------  -----------------
       1       -0.000208350731     0.000272322067    -0.000478431323
       2        0.000339057390    -0.000522336127     0.000670716347
       3       -0.000310092736     0.000423282727    -0.000467457211
       4        0.000172594687    -0.000214290009     0.000256389904
       5        0.000009326225     0.000014876067     0.000004487071
       6        0.000003810822    -0.000000234111    -0.000003490442
       7        0.000005563908     0.000009788653     0.000012679327
       8       -0.000008723618     0.000012861455    -0.000005859433
       9        0.000014325058     0.000003163800    -0.000001224390
      10        0.000000142804     0.000008977272     0.000004285718
      11       -0.000011316225    -0.000001736276     0.000002808400
      12        0.000007860503    -0.000001438280     0.000009914805
      13       -0.000013125631    -0.000010052318    -0.000003488980
      14       -0.000000967979     0.000005678410    -0.000002475445
      15        0.000001748199     0.000001425883     0.000004410355
      16        0.000002643634    -0.000006543924     0.000000152404
      17       -0.000006382635     0.000000949794    -0.000004655814
      18        0.000001886322     0.000003304915     0.000001238706

  **** Optimization is complete! (in 6 steps) ****
    Final optimized geometry and variables:
    Molecular point group: c1

    Geometry (in Angstrom), charge = 0, multiplicity = 1:

    H           -1.887256756584    -1.193712397331    -0.522962612805
    O           -2.507311661173    -0.741011295495     0.015782168441
    C           -1.962560245481     0.458636212432     0.505134194258
    C           -0.636271616548     0.842569907729    -0.132227887785
    H           -2.689129308310     1.242184805684     0.325677870696
    H           -1.838159016154     0.371534550778     1.581094035037
    C            0.519702970036    -0.101900833028     0.194339305168
    H           -0.769017798489     0.908492552767    -1.209868290719
    H           -0.382621229465     1.842909854426     0.206517909069
    C            1.837651497064     0.320624551176    -0.449137983190
    H            0.284548349359    -1.114487453816    -0.125423947543
    H            0.644028031380    -0.151140600644     1.273018079748
    C            2.993191480534    -0.618293968936    -0.119973919776
    H            1.710569798813     0.372074007828    -1.527000065883
    H            2.087183980933     1.326945553768    -0.124443717064
    H            2.788679286183    -1.626883549223    -0.463563440594
    H            3.912047884228    -0.289098113202    -0.591032855159
    H            3.167794148346    -0.664056044582     0.949734180296

  Mulliken Charges: (a.u.)
   Center  Symbol    Alpha    Beta     Spin     Total
       1     H     0.39092  0.39092  0.00000  0.21817
       2     O     4.20933  4.20933  0.00000 -0.41867
       3     C     2.95448  2.95448  0.00000  0.09104
       4     C     3.11155  3.11155  0.00000 -0.22309
       5     H     0.46101  0.46101  0.00000  0.07797
       6     H     0.47491  0.47491  0.00000  0.05018
       7     C     3.08818  3.08818  0.00000 -0.17635
       8     H     0.44976  0.44976  0.00000  0.10048
       9     H     0.45176  0.45176  0.00000  0.09648
      10     C     3.08412  3.08412  0.00000 -0.16824
      11     H     0.45964  0.45964  0.00000  0.08072
      12     H     0.45127  0.45127  0.00000  0.09747
      13     C     3.14942  3.14942  0.00000 -0.29884
      14     H     0.45376  0.45376  0.00000  0.09248
      15     H     0.45318  0.45318  0.00000  0.09364
      16     H     0.45500  0.45500  0.00000  0.09000
      17     H     0.44752  0.44752  0.00000  0.10496
      18     H     0.45420  0.45420  0.00000  0.09159

   Total alpha = 25.00000, Total beta = 25.00000, Total charge =  0.00000

*** Psi4 exiting successfully. Buy a developer a beer!
