                              Psi4 1.0.54 Driver

  ==> Input File <==

--------------------------------------------------------------------------
set {
	reference rhf
	basis cc-pvtz
}

set_num_threads( 4 )
memory 2 gb

molecule MOL {
0 1

H	 2.737875	 -0.104219	 -0.903667
N	 2.326826	 -0.066186	 0.000000
C	 0.934676	 -0.005420	 0.000000
H	 2.709238	 -0.760309	 0.599147
C	 0.226436	 -0.001077	 -1.195129
C	 0.226436	 -0.001077	 1.195129
H	 0.759091	 -0.011439	 -2.128123
C	 -1.153391	 0.009141	 -1.189028
H	 0.759091	 -0.011439	 2.128123
C	 -1.153391	 0.009141	 1.189028
H	 -1.680905	 0.012964	 -2.124348
C	 -1.857876	 0.014675	 0.000000
H	 -1.680905	 0.012964	 2.124348
H	 -2.930222	 0.022904	 0.000000

	symmetry c1
}
set optking {
	frozen_dihedral = ("
		1 2 3 5
	")
}

ee,wfn = optimize('scf', return_wfn=True)
oeprop( wfn, 'DIPOLE', 'QUADRUPOLE', 'MULLIKEN_CHARGES')
f=open( 'psi4out.xyz', 'w' )
f.write( "14  " )
f.write( str(ee) + "\n" )
f.write( MOL.save_string_xyz() )
f.close()
--------------------------------------------------------------------------

    Molecular point group: c1
  Charge       = 0
  Multiplicity = 1
  Basis Set: CC-PVTZ
  Basis Set:
  @DF-RHF Final Energy:  -285.83195535884482
    Total Energy =                       -285.8319553588448798
    Molecular point group: c1
  Basis Set: CC-PVTZ
  Basis Set:
  Basis Set: CC-PVTZ
  Basis Set:
  @DF-RHF Final Energy:  -285.83226621885512
    Total Energy =                       -285.8322662188552385
  Basis Set: CC-PVTZ
  Basis Set:
  Basis Set: CC-PVTZ
  Basis Set:
  @DF-RHF Final Energy:  -285.83235347538817
    Total Energy =                       -285.8323534753882882
  Basis Set: CC-PVTZ
  Basis Set:
  Basis Set: CC-PVTZ
  Basis Set:
  @DF-RHF Final Energy:  -285.83235881829654
    Total Energy =                       -285.8323588182964841
  Basis Set: CC-PVTZ
  Basis Set:
  Basis Set: CC-PVTZ
  Basis Set:
  @DF-RHF Final Energy:  -285.83236216905095
    Total Energy =                       -285.8323621690511800
  Basis Set: CC-PVTZ
  Basis Set:
  Charge       = 0
  Multiplicity = 1
  Basis Set: CC-PVTZ
  Basis Set:

    Orbital Energies (a.u.)
    -----------------------

    Doubly Occupied:

       1A    -15.552616     2A    -11.269413     3A    -11.226936
       4A    -11.226645     5A    -11.216480     6A    -11.215211
       7A    -11.212365     8A     -1.223686     9A     -1.130213
      10A     -1.013313    11A     -0.987834    12A     -0.832073
      13A     -0.813162    14A     -0.708000    15A     -0.688063
      16A     -0.654175    17A     -0.604543    18A     -0.595965
      19A     -0.582291    20A     -0.526521    21A     -0.506403
      22A     -0.488280    23A     -0.442839    24A     -0.335840
      25A     -0.296974

  @DF-RHF Final Energy:  -285.83236270230475

   => Energetics <=

    Nuclear Repulsion Energy =            273.6560472327984144
    One-Electron Energy =                -928.2771363909996580
    Two-Electron Energy =                 368.7887264558960965
    DFT Exchange-Correlation Energy =       0.0000000000000000
    Empirical Dispersion Energy =           0.0000000000000000
    PCM Polarization Energy =               0.0000000000000000
    EFP Energy =                            0.0000000000000000
    Total Energy =                       -285.8323627023051472
    Molecular point group: c1
  Basis Set: CC-PVTZ
  Basis Set:

  -Total Gradient:
     Atom            X                  Y                   Z
    ------   -----------------  -----------------  -----------------
       1        0.000034617353     0.003402768360     0.000003730414
       2        0.000010010872    -0.005736686122     0.000025567322
       3       -0.000040520530     0.004967080547    -0.000179090186
       4       -0.000008262246    -0.000030612300    -0.000003437610
       5        0.000132200837    -0.002605138905     0.000073734426
       6       -0.000131589644    -0.000020305696     0.000090968197
       7       -0.000011455572    -0.000001165313    -0.000001712018
       8       -0.000142329139     0.000022097019     0.000070227771
       9        0.000016990794    -0.000001714231    -0.000009758001
      10        0.000138451849     0.000046529648     0.000094835838
      11       -0.000003051057    -0.000002558777     0.000000853523
      12        0.000016073592    -0.000026948200    -0.000160522426
      13       -0.000008062046    -0.000006950949    -0.000008596418
      14       -0.000003075065    -0.000006395081     0.000003199167

  **** Optimization is complete! (in 6 steps) ****
    Final optimized geometry and variables:
    Molecular point group: c1

    Geometry (in Angstrom), charge = 0, multiplicity = 1:

    H            2.759335234355    -0.040830181603    -0.883920428631
    N            2.328953499373    -0.037308750664     0.010114914958
    C            0.933564885918    -0.018927499959    -0.004609887803
    H            2.742074350809    -0.686948570544     0.636885426333
    C            0.222180640475    -0.006724913585    -1.195424141213
    C            0.229573644638    -0.004908052487     1.194378378128
    H            0.749981717908    -0.032862097440    -2.130933421412
    C           -1.159104250772     0.043676961284    -1.185486753404
    H            0.770089299961    -0.005361504515     2.122305572717
    C           -1.148380373657     0.024747900022     1.193812868773
    H           -1.689959376728     0.060638669168    -2.118738026936
    C           -1.856771469466     0.054871954521     0.005200725652
    H           -1.673686775549     0.033864193165     2.130294093820
    H           -2.928804266376     0.085684511792     0.009845700301

  Mulliken Charges: (a.u.)
   Center  Symbol    Alpha    Beta     Spin     Total
       1     H     0.42204  0.42204  0.00000  0.15592
       2     N     3.68345  3.68345  0.00000 -0.36690
       3     C     2.88067  2.88067  0.00000  0.23865
       4     H     0.41579  0.41579  0.00000  0.16843
       5     C     3.12097  3.12097  0.00000 -0.24195
       6     C     3.11676  3.11676  0.00000 -0.23353
       7     H     0.43476  0.43476  0.00000  0.13049
       8     C     3.06035  3.06035  0.00000 -0.12070
       9     H     0.42940  0.42940  0.00000  0.14121
      10     C     3.05927  3.05927  0.00000 -0.11854
      11     H     0.42475  0.42475  0.00000  0.15051
      12     C     3.10194  3.10194  0.00000 -0.20388
      13     H     0.42461  0.42461  0.00000  0.15078
      14     H     0.42524  0.42524  0.00000  0.14953

   Total alpha = 25.00000, Total beta = 25.00000, Total charge =  0.00000

*** Psi4 exiting successfully. Buy a developer a beer!
