  ==> Input File <==

--------------------------------------------------------------------------
set {
	reference rhf
	basis 6-31G*
}

set_num_threads( 4 )
memory 2 gb

molecule MOL {
0 1

H	 1.082107	 -1.356649	 -0.647038
O	 1.654024	 -0.625927	 -0.460906
C	 1.135793	 0.118896	 0.612333
C	 0.031547	 1.023609	 0.088541
H	 1.915668	 0.729681	 1.063582
H	 0.754543	 -0.542641	 1.387006
C	 -1.134819	 0.293262	 -0.585751
H	 0.474374	 1.714721	 -0.623187
H	 -0.338529	 1.620940	 0.920081
C	 -1.917817	 -0.639439	 0.339494
H	 -0.758119	 -0.268455	 -1.433105
H	 -1.813832	 1.041889	 -0.986690
H	 -2.777680	 -1.057197	 -0.174994
H	 -1.310268	 -1.471279	 0.680599
H	 -2.283753	 -0.111424	 1.216626

	symmetry c1
}
set optking {
	frozen_dihedral = ("
		1 2 3 4
	")
}

ee = optimize('scf')
oeprop('DIPOLE', 'QUADRUPOLE', 'MULLIKEN_CHARGES')
f=open( 'psi4out.xyz', 'w' )
f.write( "15  " )
f.write( str(ee) + "\n" )
f.write( MOL.save_string_xyz() )
f.close()
--------------------------------------------------------------------------

    Molecular point group: c1
  Charge       = 0
  Multiplicity = 1
  Basis Set: 6-31G*
  Basis Set:
  @DF-RHF Final Energy:  -232.14117406197670
    Total Energy =                       -232.1411740619765851
    Molecular point group: c1
  Basis Set: 6-31G*
  Basis Set:
  Basis Set: 6-31G*
  Basis Set:
  @DF-RHF Final Energy:  -232.14255957871302
    Total Energy =                       -232.1425595787130192
  Basis Set: 6-31G*
  Basis Set:
  Basis Set: 6-31G*
  Basis Set:
  @DF-RHF Final Energy:  -232.14298353533670
    Total Energy =                       -232.1429835353367253
  Basis Set: 6-31G*
  Basis Set:
  Basis Set: 6-31G*
  Basis Set:
  @DF-RHF Final Energy:  -232.14298883355238
    Total Energy =                       -232.1429888335522946
  Basis Set: 6-31G*
  Basis Set:
  Charge       = 0
  Multiplicity = 1
  Basis Set: 6-31G*
  Basis Set:

    Orbital Energies (a.u.)
    -----------------------

    Doubly Occupied:

       1A    -20.553040     2A    -11.267147     3A    -11.221385
       4A    -11.216299     5A    -11.215304     6A     -1.359454
       7A     -1.070337     8A     -0.975717     9A     -0.878730
      10A     -0.785239    11A     -0.697395    12A     -0.644588
      13A     -0.614967    14A     -0.584506    15A     -0.570048
      16A     -0.546268    17A     -0.502096    18A     -0.493293
      19A     -0.476562    20A     -0.458626    21A     -0.426355

  @DF-RHF Final Energy:  -232.14298867255047

   => Energetics <=

    Nuclear Repulsion Energy =            191.4639556605762891
    One-Electron Energy =                -694.0991752494297771
    Two-Electron Energy =                 270.4922309163030150
    DFT Exchange-Correlation Energy =       0.0000000000000000
    Empirical Dispersion Energy =           0.0000000000000000
    PCM Polarization Energy =               0.0000000000000000
    EFP Energy =                            0.0000000000000000
    Total Energy =                       -232.1429886725504730
    Molecular point group: c1
  Basis Set: 6-31G*
  Basis Set:

  -Total Gradient:
     Atom            X                  Y                   Z
    ------   -----------------  -----------------  -----------------
       1        0.000268443768    -0.000302266278     0.000418068189
       2       -0.000243969938     0.000517995606    -0.000511291140
       3       -0.000248222757    -0.000462817144     0.000137558167
       4        0.000209319952     0.000216124871    -0.000045231156
       5        0.000031177725    -0.000013112086     0.000000191433
       6        0.000017894448     0.000029392389    -0.000019532328
       7        0.000041986064    -0.000010166508    -0.000021880034
       8       -0.000027024171     0.000004889768     0.000011704955
       9       -0.000023713138     0.000003473012     0.000012322169
      10       -0.000045796451     0.000032588632     0.000001041077
      11        0.000045752180    -0.000013483923     0.000025602915
      12        0.000000697164    -0.000007664081    -0.000009648809
      13       -0.000010693894     0.000013884649     0.000007790508
      14       -0.000024468211     0.000004528896    -0.000028637183
      15        0.000008617263    -0.000013367802     0.000021941236

  **** Optimization is complete! (in 5 steps) ****
    Final optimized geometry and variables:
    Molecular point group: c1

    Geometry (in Angstrom), charge = 0, multiplicity = 1:

    H            1.219399832118    -1.371210318917    -0.656347186296
    O            1.754330203242    -0.622514624830    -0.436856594280
    C            1.146049095367     0.110462556619     0.597127282337
    C            0.026678334954     1.018804569379     0.096811373634
    H            1.929827010022     0.716891876484     1.033117832977
    H            0.788982893168    -0.555836600821     1.378736723921
    C           -1.146212671832     0.298070891272    -0.577823880230
    H            0.458795406061     1.721945756549    -0.609405724862
    H           -0.342827408042     1.602560588683     0.938711335416
    C           -1.944300228768    -0.623953705984     0.346949220013
    H           -0.779088872224    -0.265682470147    -1.431912433652
    H           -1.817757285509     1.048012518830    -0.986569801344
    H           -2.798771329219    -1.045862150008    -0.172690922687
    H           -1.348322453047    -1.454290000054     0.714412350935
    H           -2.317988158152    -0.082529718461     1.211555328798

  Mulliken Charges: (a.u.)
   Center  Symbol    Alpha    Beta     Spin     Total
       1     H     0.28021  0.28021  0.00000  0.43957
       2     O     4.37054  4.37054  0.00000 -0.74107
       3     C     3.00108  3.00108  0.00000 -0.00216
       4     C     3.16037  3.16037  0.00000 -0.32074
       5     H     0.41440  0.41440  0.00000  0.17121
       6     H     0.42945  0.42945  0.00000  0.14110
       7     C     3.16247  3.16247  0.00000 -0.32494
       8     H     0.41372  0.41372  0.00000  0.17257
       9     H     0.42533  0.42533  0.00000  0.14935
      10     C     3.24219  3.24219  0.00000 -0.48438
      11     H     0.42175  0.42175  0.00000  0.15650
      12     H     0.41672  0.41672  0.00000  0.16656
      13     H     0.41675  0.41675  0.00000  0.16649
      14     H     0.42535  0.42535  0.00000  0.14930
      15     H     0.41968  0.41968  0.00000  0.16064

   Total alpha = 21.00000, Total beta = 21.00000, Total charge =  0.00000
