  ==> Input File <==

--------------------------------------------------------------------------
set {
	reference rhf
	basis 6-31G*
}

set_num_threads( 4 )
memory 2 gb

molecule MOL {
0 1

O	 1.192798	 1.341698	 0.195306
C	 1.057267	 0.224690	 0.578666
C	 -0.233596	 -0.557249	 0.566879
O	 2.051702	 -0.496912	 1.080029
C	 -1.412532	 0.227344	 -0.000452
H	 -0.056817	 -1.467134	 -0.000230
H	 -0.428296	 -0.877938	 1.586685
C	 -2.706999	 -0.587347	 -0.000541
H	 -1.177914	 0.545675	 -1.011454
H	 -1.549626	 1.136022	 0.577486
C	 -3.956778	 0.291888	 0.000910
H	 -2.726114	 -1.239230	 -0.871609
H	 -2.725217	 -1.240844	 0.869333
H	 -3.985213	 0.933254	 -0.875158
H	 -4.860123	 -0.309979	 0.000519
H	 -3.984618	 0.931166	 0.878514
C	 3.323727	 0.121524	 1.148075
H	 3.663379	 0.401603	 0.161323
H	 3.986686	 -0.613577	 1.577100
H	 3.285376	 1.001697	 1.773639

	symmetry c1
}
set optking {
	frozen_dihedral = ("
		9 5 8 12
	")
}

ee = optimize('scf')
oeprop('DIPOLE', 'QUADRUPOLE', 'MULLIKEN_CHARGES')
f=open( 'psi4out.xyz', 'w' )
f.write( "20  " )
f.write( str(ee) + "\n" )
f.write( MOL.save_string_xyz() )
f.close()
--------------------------------------------------------------------------

    Molecular point group: c1
  Charge       = 0
  Multiplicity = 1
  Basis Set: 6-31G*
  Basis Set:
  @DF-RHF Final Energy:  -383.93957151422740
    Total Energy =                       -383.9395715142276231
    Molecular point group: c1
  Basis Set: 6-31G*
  Basis Set:
  Basis Set: 6-31G*
  Basis Set:
  @DF-RHF Final Energy:  -383.93977727164861
    Total Energy =                       -383.9397772716487225
  Basis Set: 6-31G*
  Basis Set:
  Basis Set: 6-31G*
  Basis Set:
  @DF-RHF Final Energy:  -383.93966502981431
    Total Energy =                       -383.9396650298143641
  Basis Set: 6-31G*
  Basis Set:
  Basis Set: 6-31G*
  Basis Set:
  @DF-RHF Final Energy:  -383.93983548762617
    Total Energy =                       -383.9398354876261692
  Basis Set: 6-31G*
  Basis Set:
  Charge       = 0
  Multiplicity = 1
  Basis Set: 6-31G*
  Basis Set:

    Orbital Energies (a.u.)
    -----------------------

    Doubly Occupied:

       1A    -20.603658     2A    -20.545506     3A    -11.372207
       4A    -11.280878     5A    -11.235554     6A    -11.220310
       7A    -11.219428     8A    -11.210574     9A     -1.469344
      10A     -1.362799    11A     -1.088080    12A     -1.024049
      13A     -0.969019    14A     -0.885342    15A     -0.803959
      16A     -0.767429    17A     -0.697335    18A     -0.683486
      19A     -0.671923    20A     -0.644867    21A     -0.597265
      22A     -0.594880    23A     -0.577819    24A     -0.541593
      25A     -0.533591    26A     -0.522447    27A     -0.503009
      28A     -0.476713    29A     -0.472936    30A     -0.470192
      31A     -0.455749    32A     -0.436645

  @DF-RHF Final Energy:  -383.93983572459757

   => Energetics <=

    Nuclear Repulsion Energy =            381.0753176983186563
    One-Electron Energy =               -1278.1531311696310240
    Two-Electron Energy =                 513.1379777467152508
    DFT Exchange-Correlation Energy =       0.0000000000000000
    Empirical Dispersion Energy =           0.0000000000000000
    PCM Polarization Energy =               0.0000000000000000
    EFP Energy =                            0.0000000000000000
    Total Energy =                       -383.9398357245970601
    Molecular point group: c1
  Basis Set: 6-31G*
  Basis Set:

  -Total Gradient:
     Atom            X                  Y                   Z
    ------   -----------------  -----------------  -----------------
       1        0.000008502231    -0.000012748259    -0.000013835717
       2       -0.000013272006     0.000042367689     0.000084937493
       3       -0.000054369587    -0.000039627610     0.000022031284
       4        0.000003743551    -0.000010336436    -0.000028218833
       5       -0.003077398720     0.004623120558     0.000037397878
       6       -0.000003799769     0.000004577470     0.000007866306
       7        0.000032922972    -0.000026130676     0.000026055411
       8        0.002734492885    -0.004159770846     0.002474104192
       9        0.002085742577    -0.003266053408    -0.000566177415
      10       -0.000038207330    -0.000026725901    -0.000012617198
      11        0.000029478652     0.000029942728     0.000040712991
      12       -0.001730437328     0.002799533998    -0.002099602051
      13        0.000059374408     0.000031104457     0.000016249655
      14        0.000010551963     0.000020742540     0.000021759041
      15        0.000003628289    -0.000008695221    -0.000028110956
      16       -0.000053443793    -0.000002794880     0.000014506700
      17        0.000001615220     0.000002197733     0.000005736504
      18       -0.000000491780    -0.000000523508    -0.000000963051
      19        0.000000985088     0.000000289739    -0.000001275440
      20        0.000000382475    -0.000000470163    -0.000000556793

  **** Optimization is complete! (in 5 steps) ****
    Final optimized geometry and variables:
    Molecular point group: c1

    Geometry (in Angstrom), charge = 0, multiplicity = 1:

    O            1.246685891776     1.261175058107    -0.260350546992
    C            1.110541228446     0.146179851332     0.128846820394
    C           -0.185488556866    -0.627148853929     0.141587087411
    O            2.108932841112    -0.580121386741     0.615491392068
    C           -1.371724640887     0.165577579656    -0.403693104491
    H           -0.026238665128    -1.538056530081    -0.429552562349
    H           -0.362289510731    -0.947513061580     1.164602610309
    C           -2.657778503912    -0.669859959772    -0.433077842408
    H           -1.125239362906     0.491955135954    -1.408433951062
    H           -1.510969719093     1.058689096829     0.196090430397
    C           -3.916545250634     0.197210565933    -0.495892538113
    H           -2.645841462012    -1.313821983717    -1.309139627685
    H           -2.710002106460    -1.315725811217     0.439904840304
    H           -3.892954057508     0.857504666043    -1.358183247980
    H           -4.811186267134    -0.413161409726    -0.570790992468
    H           -4.010306171390     0.817132193895     0.390984646143
    C            3.385615281389     0.030710056303     0.660469621644
    H            3.710287036536     0.306286744453    -0.332588579694
    H            4.051284659947    -0.707350792287     1.080131060779
    H            3.363203350917     0.912653380286     1.284319405437

  Mulliken Charges: (a.u.)
   Center  Symbol    Alpha    Beta     Spin     Total
       1     O     4.28606  4.28606  0.00000 -0.57212
       2     C     2.60554  2.60554  0.00000  0.78892
       3     C     3.20918  3.20918  0.00000 -0.41836
       4     O     4.30713  4.30713  0.00000 -0.61425
       5     C     3.15180  3.15180  0.00000 -0.30360
       6     H     0.40069  0.40069  0.00000  0.19863
       7     H     0.40083  0.40083  0.00000  0.19834
       8     C     3.15502  3.15502  0.00000 -0.31004
       9     H     0.41033  0.41033  0.00000  0.17935
      10     H     0.41164  0.41164  0.00000  0.17673
      11     C     3.23976  3.23976  0.00000 -0.47951
      12     H     0.42074  0.42074  0.00000  0.15851
      13     H     0.42264  0.42264  0.00000  0.15471
      14     H     0.41961  0.41961  0.00000  0.16078
      15     H     0.41933  0.41933  0.00000  0.16133
      16     H     0.42068  0.42068  0.00000  0.15863
      17     C     3.09243  3.09243  0.00000 -0.18485
      18     H     0.40909  0.40909  0.00000  0.18183
      19     H     0.40844  0.40844  0.00000  0.18313
      20     H     0.40907  0.40907  0.00000  0.18186

   Total alpha = 32.00000, Total beta = 32.00000, Total charge = -0.00000
