  ==> Input File <==

--------------------------------------------------------------------------
set {
	reference rhf
	basis 6-31G*
}

set_num_threads( 1 )
memory 2 gb

molecule MOL {
0 1

O	 0.749854	 1.307668	 -0.000040
C	 0.576249	 0.131685	 -0.000108
C	 -0.766779	 -0.556801	 -0.000461
O	 1.568443	 -0.749345	 -0.000005
C	 -1.945214	 0.412366	 0.000161
H	 -0.796911	 -1.211249	 -0.867467
H	 -0.796854	 -1.212390	 0.865687
C	 -2.792042	 0.284927	 1.265550
H	 -2.558737	 0.230534	 -0.875698
H	 -1.574186	 1.427076	 -0.096153
H	 -3.201818	 -0.716050	 1.368415
H	 -3.623997	 0.981258	 1.246193
H	 -2.206677	 0.494849	 2.156479
C	 2.886820	 -0.232538	 0.000322
H	 3.059106	 0.369571	 -0.880203
H	 3.540187	 -1.091012	 0.000050
H	 3.059019	 0.368956	 0.881266

	symmetry c1
}
set optking {
	frozen_dihedral = ("
		1 2 3 6,
		14 4 2 1
	")
}

ee = energy('scf')
oeprop('DIPOLE', 'QUADRUPOLE', 'MULLIKEN_CHARGES')
f=open( 'psi4out.xyz', 'w' )
f.write( "17  " )
f.write( str(ee) + "\n" )
f.write( MOL.save_string_xyz() )
f.close()
--------------------------------------------------------------------------

    Molecular point group: c1

    Geometry (in Angstrom), charge = 0, multiplicity = 1:

       Center              X                  Y                   Z               Mass
    ------------   -----------------  -----------------  -----------------  -----------------
           O          0.676877334286     1.219053275234    -0.186319013332    15.994914619560
           C          0.503272334286     0.043070275234    -0.186387013332    12.000000000000
           C         -0.839755665714    -0.645415724766    -0.186740013332    12.000000000000
           O          1.495466334286    -0.837959724766    -0.186284013332    15.994914619560
           C         -2.018190665714     0.323751275234    -0.186118013332    12.000000000000
           H         -0.869887665714    -1.299863724766    -1.053746013332     1.007825032070
           H         -0.869830665714    -1.301004724766     0.679407986668     1.007825032070
           C         -2.865018665714     0.196312275234     1.079270986668    12.000000000000
           H         -2.631713665714     0.141919275234    -1.061977013332     1.007825032070
           H         -1.647162665714     1.338461275234    -0.282432013332     1.007825032070
           H         -3.274794665714    -0.804664724766     1.182135986668     1.007825032070
           H         -3.696973665714     0.892643275234     1.059913986668     1.007825032070
           H         -2.279653665714     0.406234275234     1.970199986668     1.007825032070
           C          2.813843334286    -0.321152724766    -0.185957013332    12.000000000000
           H          2.986129334286     0.280956275234    -1.066482013332     1.007825032070
           H          3.467210334286    -1.179626724766    -0.186229013332     1.007825032070
           H          2.986042334286     0.280341275234     0.694986986668     1.007825032070

  Charge       = 0
  Multiplicity = 1
  Basis Set: 6-31G*
  Basis Set:

    Orbital Energies (a.u.)
    -----------------------

    Doubly Occupied:

       1A    -20.604768     2A    -20.546832     3A    -11.373454
       4A    -11.281516     5A    -11.234404     6A    -11.217476
       7A    -11.212102     8A     -1.470523     9A     -1.364374
      10A     -1.079508    11A     -1.000479    12A     -0.938675
      13A     -0.828072    14A     -0.766608    15A     -0.704283
      16A     -0.682117    17A     -0.673409    18A     -0.626591
      19A     -0.604940    20A     -0.569574    21A     -0.568832
      22A     -0.532601    23A     -0.524518    24A     -0.487482
      25A     -0.485021    26A     -0.473380    27A     -0.458128
      28A     -0.441060

  @DF-RHF Final Energy:  -344.90175310600159

   => Energetics <=

    Nuclear Repulsion Energy =            314.6247705667658465
    One-Electron Energy =               -1093.5515809019784683
    Two-Electron Energy =                 434.0250572292106881
    DFT Exchange-Correlation Energy =       0.0000000000000000
    Empirical Dispersion Energy =           0.0000000000000000
    PCM Polarization Energy =               0.0000000000000000
    EFP Energy =                            0.0000000000000000
    Total Energy =                       -344.9017531060019337

  Mulliken Charges: (a.u.)
   Center  Symbol    Alpha    Beta     Spin     Total
       1     O     4.28448  4.28448  0.00000 -0.56897
       2     C     2.61187  2.61187  0.00000  0.77625
       3     C     3.20968  3.20968  0.00000 -0.41937
       4     O     4.30534  4.30534  0.00000 -0.61068
       5     C     3.16265  3.16265  0.00000 -0.32529
       6     H     0.39739  0.39739  0.00000  0.20521
       7     H     0.39773  0.39773  0.00000  0.20453
       8     C     3.24324  3.24324  0.00000 -0.48648
       9     H     0.41854  0.41854  0.00000  0.16293
      10     H     0.39186  0.39186  0.00000  0.21628
      11     H     0.42248  0.42248  0.00000  0.15504
      12     H     0.41725  0.41725  0.00000  0.16549
      13     H     0.41892  0.41892  0.00000  0.16216
      14     C     3.09231  3.09231  0.00000 -0.18463
      15     H     0.40893  0.40893  0.00000  0.18213
      16     H     0.40832  0.40832  0.00000  0.18336
      17     H     0.40899  0.40899  0.00000  0.18202

   Total alpha = 28.00000, Total beta = 28.00000, Total charge =  0.00000
