  ==> Input File <==

--------------------------------------------------------------------------
set {
	reference rhf
	basis 6-31G*
}

set_num_threads( 1 )
memory 2 gb

molecule MOL {
0 1

H	 5.249684	 -0.007244	 1.070325
C	 4.648883	 -0.355752	 0.235998
C	 3.159447	 -0.322900	 0.576113
H	 4.867485	 0.279604	 -0.617159
H	 4.975109	 -1.362979	 -0.008685
C	 2.283064	 -0.815158	 -0.577771
H	 2.874447	 0.690364	 0.840065
H	 2.977608	 -0.940116	 1.454561
C	 0.787594	 -0.810781	 -0.260257
H	 2.458727	 -0.202452	 -1.454913
H	 2.574417	 -1.830507	 -0.837044
C	 0.169600	 0.576866	 -0.172154
H	 0.244836	 -1.342737	 -1.040133
H	 0.584258	 -1.352365	 0.660893
C	 -1.181045	 0.701995	 0.511084
O	 0.711952	 1.534021	 -0.637034
C	 -2.285934	 -0.139295	 -0.145128
H	 -1.449051	 1.751551	 0.493206
H	 -1.071135	 0.403303	 1.551943
C	 -3.651768	 0.085446	 0.506485
H	 -2.346596	 0.110469	 -1.202272
H	 -2.034737	 -1.195320	 -0.088721
C	 -4.759797	 -0.746382	 -0.137905
H	 -3.908762	 1.140117	 0.445781
H	 -3.588286	 -0.154158	 1.565709
H	 -4.868882	 -0.505166	 -1.191300
H	 -4.548009	 -1.809175	 -0.062213
H	 -5.715422	 -0.564821	 0.343442

	symmetry c1
}
set optking {
	frozen_dihedral = ("
		10 6 3 2,
		12 15 17 21
	")
}

ee = energy('scf')
oeprop('DIPOLE', 'QUADRUPOLE', 'MULLIKEN_CHARGES')
f=open( 'psi4out.xyz', 'w' )
f.write( "28  " )
f.write( str(ee) + "\n" )
f.write( MOL.save_string_xyz() )
f.close()
--------------------------------------------------------------------------

    Molecular point group: c1

    Geometry (in Angstrom), charge = 0, multiplicity = 1:

       Center              X                  Y                   Z               Mass
    ------------   -----------------  -----------------  -----------------  -----------------
           H          5.258953217711     0.023153390240     1.083081733715     1.007825032070
           C          4.658152217711    -0.325354609760     0.248754733715    12.000000000000
           C          3.168716217711    -0.292502609760     0.588869733715    12.000000000000
           H          4.876754217711     0.310001390240    -0.604402266285     1.007825032070
           H          4.984378217711    -1.332581609760     0.004071733715     1.007825032070
           C          2.292333217711    -0.784760609760    -0.565014266285    12.000000000000
           H          2.883716217711     0.720761390240     0.852821733715     1.007825032070
           H          2.986877217711    -0.909718609760     1.467317733715     1.007825032070
           C          0.796863217711    -0.780383609760    -0.247500266285    12.000000000000
           H          2.467996217711    -0.172054609760    -1.442156266285     1.007825032070
           H          2.583686217711    -1.800109609760    -0.824287266285     1.007825032070
           C          0.178869217711     0.607263390240    -0.159397266285    12.000000000000
           H          0.254105217711    -1.312339609760    -1.027376266285     1.007825032070
           H          0.593527217711    -1.321967609760     0.673649733715     1.007825032070
           C         -1.171775782289     0.732392390240     0.523840733715    12.000000000000
           O          0.721221217711     1.564418390240    -0.624277266285    15.994914619560
           C         -2.276664782289    -0.108897609760    -0.132371266285    12.000000000000
           H         -1.439781782289     1.781948390240     0.505962733715     1.007825032070
           H         -1.061865782289     0.433700390240     1.564699733715     1.007825032070
           C         -3.642498782289     0.115843390240     0.519241733715    12.000000000000
           H         -2.337326782289     0.140866390240    -1.189515266285     1.007825032070
           H         -2.025467782289    -1.164922609760    -0.075964266285     1.007825032070
           C         -4.750527782289    -0.715984609760    -0.125148266285    12.000000000000
           H         -3.899492782289     1.170514390240     0.458537733715     1.007825032070
           H         -3.579016782289    -0.123760609760     1.578465733715     1.007825032070
           H         -4.859612782289    -0.474768609760    -1.178543266285     1.007825032070
           H         -4.538739782289    -1.778777609760    -0.049456266285     1.007825032070
           H         -5.706152782289    -0.534423609760     0.356198733715     1.007825032070

  Charge       = 0
  Multiplicity = 1
  Basis Set: 6-31G*
  Basis Set:

    Orbital Energies (a.u.)
    -----------------------

    Doubly Occupied:

       1A    -20.548058     2A    -11.322187     3A    -11.232376
       4A    -11.229934     5A    -11.228953     6A    -11.226179
       7A    -11.216456     8A    -11.216448     9A    -11.212399
      10A    -11.205740    11A     -1.393173    12A     -1.095468
      13A     -1.077342    14A     -1.022709    15A     -0.990680
      16A     -0.907126    17A     -0.873568    18A     -0.809303
      19A     -0.799894    20A     -0.722854    21A     -0.668796
      22A     -0.653567    23A     -0.627700    24A     -0.619797
      25A     -0.609511    26A     -0.587915    27A     -0.577538
      28A     -0.575006    29A     -0.542860    30A     -0.532390
      31A     -0.520279    32A     -0.507141    33A     -0.498872
      34A     -0.485111    35A     -0.479059    36A     -0.475987
      37A     -0.471475    38A     -0.465139    39A     -0.455272
      40A     -0.392295

  @DF-RHF Final Energy:  -426.16918448105548

   => Energetics <=

    Nuclear Repulsion Energy =            531.4300494927185810
    One-Electron Energy =               -1631.0454638707687991
    Two-Electron Energy =                 673.4462298969949643
    DFT Exchange-Correlation Energy =       0.0000000000000000
    Empirical Dispersion Energy =           0.0000000000000000
    PCM Polarization Energy =               0.0000000000000000
    EFP Energy =                            0.0000000000000000
    Total Energy =                       -426.1691844810552539

  Mulliken Charges: (a.u.)
   Center  Symbol    Alpha    Beta     Spin     Total
       1     H     0.41935  0.41935  0.00000  0.16130
       2     C     3.24011  3.24011  0.00000 -0.48022
       3     C     3.15645  3.15645  0.00000 -0.31291
       4     H     0.41829  0.41829  0.00000  0.16343
       5     H     0.42362  0.42362  0.00000  0.15277
       6     C     3.14913  3.14913  0.00000 -0.29826
       7     H     0.41046  0.41046  0.00000  0.17907
       8     H     0.42772  0.42772  0.00000  0.14456
       9     C     3.21235  3.21235  0.00000 -0.42470
      10     H     0.40660  0.40660  0.00000  0.18680
      11     H     0.42193  0.42193  0.00000  0.15615
      12     C     2.73050  2.73050  0.00000  0.53901
      13     H     0.40271  0.40271  0.00000  0.19459
      14     H     0.41321  0.41321  0.00000  0.17359
      15     C     3.20217  3.20217  0.00000 -0.40433
      16     O     4.26704  4.26704  0.00000 -0.53408
      17     C     3.16413  3.16413  0.00000 -0.32826
      18     H     0.39974  0.39974  0.00000  0.20053
      19     H     0.41206  0.41206  0.00000  0.17588
      20     C     3.15179  3.15179  0.00000 -0.30357
      21     H     0.41437  0.41437  0.00000  0.17126
      22     H     0.41842  0.41842  0.00000  0.16316
      23     C     3.24031  3.24031  0.00000 -0.48062
      24     H     0.41842  0.41842  0.00000  0.16315
      25     H     0.42140  0.42140  0.00000  0.15719
      26     H     0.41968  0.41968  0.00000  0.16063
      27     H     0.42119  0.42119  0.00000  0.15761
      28     H     0.41686  0.41686  0.00000  0.16629

   Total alpha = 40.00000, Total beta = 40.00000, Total charge =  0.00000
