  ==> Input File <==

--------------------------------------------------------------------------
set {
	reference rhf
	basis cc-pvtz
}

set_num_threads( 4 )
memory 2 gb

molecule MOL {
0 1

H	 -3.401682	 -1.036167	 0.000000
O	 -3.113760	 -0.140926	 0.000000
C	 -1.775087	 -0.058754	 0.000000
C	 -0.975985	 -1.031088	 -0.588589
C	 -1.201393	 1.042124	 0.614105
H	 -1.428439	 -1.882292	 -1.063104
C	 0.391883	 -0.897613	 -0.560058
H	 -1.835698	 1.780415	 1.061993
C	 0.169930	 1.160875	 0.634029
H	 1.019394	 -1.640844	 -1.010554
C	 0.981965	 0.199797	 0.051469
H	 0.616082	 2.014539	 1.110185
C	 2.448801	 0.348497	 0.085273
O	 3.221117	 -0.419052	 -0.384358
H	 2.806268	 1.251006	 0.592713

	symmetry c1
}
set optking {
	frozen_dihedral = ("
		5 3 2 1
	")
}

ee = optimize('scf')
oeprop('DIPOLE', 'QUADRUPOLE', 'MULLIKEN_CHARGES')
f=open( 'psi4out.xyz', 'w' )
f.write( "15  " )
f.write( str(ee) + "\n" )
f.write( MOL.save_string_xyz() )
f.close()
--------------------------------------------------------------------------

    Molecular point group: c1
  Charge       = 0
  Multiplicity = 1
  Basis Set: CC-PVTZ
  Basis Set:
  @DF-RHF Final Energy:  -418.44101680034845
    Total Energy =                       -418.4410168003482795
    Molecular point group: c1
  Basis Set: CC-PVTZ
  Basis Set:
  Basis Set: CC-PVTZ
  Basis Set:
  @DF-RHF Final Energy:  -418.44107047194098
    Total Energy =                       -418.4410704719404066
  Basis Set: CC-PVTZ
  Basis Set:
  Basis Set: CC-PVTZ
  Basis Set:
  @DF-RHF Final Energy:  -418.44107903820270
    Total Energy =                       -418.4410790382029290
  Basis Set: CC-PVTZ
  Basis Set:
  Basis Set: CC-PVTZ
  Basis Set:
  @DF-RHF Final Energy:  -418.44102354270331
    Total Energy =                       -418.4410235427031921
  Basis Set: CC-PVTZ
  Basis Set:
  Charge       = 0
  Multiplicity = 1
  Basis Set: CC-PVTZ
  Basis Set:

    Orbital Energies (a.u.)
    -----------------------

    Doubly Occupied:

       1A    -20.600284     2A    -20.546900     3A    -11.323682
       4A    -11.320048     5A    -11.258219     6A    -11.254089
       7A    -11.242173     8A    -11.238511     9A    -11.237446
      10A     -1.432465    11A     -1.403132    12A     -1.175426
      13A     -1.044958    14A     -1.042142    15A     -0.891284
      16A     -0.869025    17A     -0.797862    18A     -0.761103
      19A     -0.716939    20A     -0.670487    21A     -0.649537
      22A     -0.632133    23A     -0.620843    24A     -0.610368
      25A     -0.574961    26A     -0.560567    27A     -0.555093
      28A     -0.507996    29A     -0.490155    30A     -0.422565
      31A     -0.361931    32A     -0.334916

  @DF-RHF Final Energy:  -418.44108064902076

   => Energetics <=

    Nuclear Repulsion Energy =            402.1586261947167600
    One-Electron Energy =               -1366.9049308723131162
    Two-Electron Energy =                 546.3052240285752532
    DFT Exchange-Correlation Energy =       0.0000000000000000
    Empirical Dispersion Energy =           0.0000000000000000
    PCM Polarization Energy =               0.0000000000000000
    EFP Energy =                            0.0000000000000000
    Total Energy =                       -418.4410806490210462
    Molecular point group: c1
  Basis Set: CC-PVTZ
  Basis Set:

  -Total Gradient:
     Atom            X                  Y                   Z
    ------   -----------------  -----------------  -----------------
       1        0.000016939481    -0.000007919757     0.003232316020
       2       -0.000046822943    -0.000499843695    -0.003066105073
       3        0.000049958839     0.001608347968    -0.002182638467
       4       -0.000108339329     0.000075244083    -0.000020233640
       5        0.000121899827    -0.001141017104     0.002012661445
       6        0.000006572161    -0.000006646049     0.000003094493
       7        0.000133950712     0.000057949327     0.000061182362
       8       -0.000017794802     0.000007461759     0.000014291135
       9       -0.000117672378     0.000069077964     0.000018978275
      10       -0.000011186813    -0.000008529118     0.000000445570
      11       -0.000048894269    -0.000158157471    -0.000064708516
      12       -0.000008760307    -0.000009552814    -0.000004980163
      13        0.000034021978     0.000005147487    -0.000015372627
      14       -0.000005568596     0.000011787586     0.000011262699
      15        0.000001696438    -0.000003350168    -0.000000193516

  **** Optimization is complete! (in 5 steps) ****
    Final optimized geometry and variables:
    Molecular point group: c1

    Geometry (in Angstrom), charge = 0, multiplicity = 1:

    H           -3.400782899837    -1.044710768705     0.010225105959
    O           -3.117357473279    -0.147758632802     0.013513345481
    C           -1.773397412649    -0.062158239384     0.023359541916
    C           -0.975731215499    -1.036847566625    -0.563819464099
    C           -1.200026999989     1.034556197641     0.640228129433
    H           -1.432659614084    -1.881631641379    -1.044542057205
    C            0.391910958445    -0.906375836520    -0.534208664751
    H           -1.833321941853     1.769682380656     1.094901914147
    C            0.172908393001     1.158209858815     0.651985361729
    H            1.019294286693    -1.650618204644    -0.983262415632
    C            0.981934192879     0.195168042618     0.071959257255
    H            0.620014220806     2.011382082568     1.128093962422
    C            2.450065245896     0.344628587514     0.104158939645
    O            3.221507972912    -0.426486462535    -0.359912302827
    H            2.806994833490     1.251162420254     0.604907214695

  Mulliken Charges: (a.u.)
   Center  Symbol    Alpha    Beta     Spin     Total
       1     H     0.38382  0.38382  0.00000  0.23236
       2     O     4.17242  4.17242  0.00000 -0.34484
       3     C     2.85212  2.85212  0.00000  0.29576
       4     C     3.12739  3.12739  0.00000 -0.25479
       5     C     3.10809  3.10809  0.00000 -0.21617
       6     H     0.42600  0.42600  0.00000  0.14801
       7     C     3.06763  3.06763  0.00000 -0.13526
       8     H     0.41538  0.41538  0.00000  0.16924
       9     C     3.06816  3.06816  0.00000 -0.13632
      10     H     0.40711  0.40711  0.00000  0.18578
      11     C     3.00176  3.00176  0.00000 -0.00353
      12     H     0.42122  0.42122  0.00000  0.15757
      13     C     2.91064  2.91064  0.00000  0.17873
      14     O     4.17808  4.17808  0.00000 -0.35615
      15     H     0.46020  0.46020  0.00000  0.07960

   Total alpha = 32.00000, Total beta = 32.00000, Total charge =  0.00000
