                              Psi4 1.0.54 Driver

  ==> Input File <==

--------------------------------------------------------------------------
set {
	reference rhf
	basis cc-pvtz
}

set_num_threads( 4 )
memory 2 gb

molecule MOL {
0 1

H	 1.343274	 -0.829592	 -2.980073
C	 1.362379	 -0.359731	 -2.002499
C	 0.054909	 -0.621600	 -1.267345
H	 1.511275	 0.704754	 -2.135254
H	 2.219124	 -0.751482	 -1.468408
N	 0.000297	 0.000045	 0.046090
H	 -0.751741	 -0.223537	 -1.867327
H	 -0.122975	 -1.698385	 -1.197916
C	 -1.359159	 0.315706	 0.454404
C	 0.718218	 -0.765407	 1.052667
C	 -2.416729	 -0.286720	 -0.460525
H	 -1.478729	 1.390261	 0.442008
H	 -1.539692	 0.003361	 1.486761
C	 1.257542	 0.092887	 2.188845
H	 1.556238	 -1.255124	 0.576265
H	 0.090836	 -1.564771	 1.456799
H	 -2.285276	 0.073129	 -1.473515
H	 -2.371743	 -1.368476	 -0.483209
H	 -3.408658	 -0.007405	 -0.121593
H	 1.934859	 0.844343	 1.802240
H	 0.468748	 0.602015	 2.728633
H	 1.796397	 -0.523235	 2.900771

	symmetry c1
}
set optking {
	frozen_dihedral = ("
		3 6 9 11
	")
}

ee,wfn = optimize('scf', return_wfn=True)
oeprop( wfn, 'DIPOLE', 'QUADRUPOLE', 'MULLIKEN_CHARGES')
f=open( 'psi4out.xyz', 'w' )
f.write( "22  " )
f.write( str(ee) + "\n" )
f.write( MOL.save_string_xyz() )
f.close()
--------------------------------------------------------------------------

    Molecular point group: c1
  Charge       = 0
  Multiplicity = 1
  Basis Set: CC-PVTZ
  Basis Set:
  @DF-RHF Final Energy:  -290.45605978766645
    Total Energy =                       -290.4560597876663337
    Molecular point group: c1
  Basis Set: CC-PVTZ
  Basis Set:
  Basis Set: CC-PVTZ
  Basis Set:
  @DF-RHF Final Energy:  -290.35478240854422
    Total Energy =                       -290.3547824085439970
  Basis Set: CC-PVTZ
  Basis Set:
  Basis Set: CC-PVTZ
  Basis Set:
  @DF-RHF Final Energy:  -290.43948240068511
    Total Energy =                       -290.4394824006848808
  Basis Set: CC-PVTZ
  Basis Set:
  Basis Set: CC-PVTZ
  Basis Set:
  @DF-RHF Final Energy:  -290.46308329673684
    Total Energy =                       -290.4630832967367269
  Basis Set: CC-PVTZ
  Basis Set:
  @DF-RHF Final Energy:  -290.34261115455405
    Total Energy =                       -290.3426111545539925
  @DF-RHF Final Energy:  -290.45031365200123
    Total Energy =                       -290.4503136520011140
  @DF-RHF Final Energy:  -290.46610219013320
    Total Energy =                       -290.4661021901333697
  @DF-RHF Final Energy:  -290.46634570550890
    Total Energy =                       -290.4663457055089566
  @DF-RHF Final Energy:  -290.46656239777553
    Total Energy =                       -290.4665623977757036
  Basis Set: CC-PVTZ
  Basis Set:
  @DF-RHF Final Energy:  -290.46661572215908
    Total Energy =                       -290.4666157221593039
  Basis Set: CC-PVTZ
  Basis Set:
  Basis Set: CC-PVTZ
  Basis Set:
  @DF-RHF Final Energy:  -290.46662050038367
    Total Energy =                       -290.4666205003833852
  Basis Set: CC-PVTZ
  Basis Set:
  Basis Set: CC-PVTZ
  Basis Set:
  @DF-RHF Final Energy:  -290.46662203230125
    Total Energy =                       -290.4666220323011885
  Basis Set: CC-PVTZ
  Basis Set:
  Charge       = 0
  Multiplicity = 1
  Basis Set: CC-PVTZ
  Basis Set:

    Orbital Energies (a.u.)
    -----------------------

    Doubly Occupied:

       1A    -15.527659     2A    -11.239706     3A    -11.237496
       4A    -11.237014     5A    -11.209852     6A    -11.201814
       7A    -11.201601     8A     -1.218921     9A     -1.024506
      10A     -1.023079    11A     -0.956684    12A     -0.858185
      13A     -0.844228    14A     -0.758800    15A     -0.656097
      16A     -0.643982    17A     -0.619563    18A     -0.596139
      19A     -0.585012    20A     -0.546040    21A     -0.538724
      22A     -0.517693    23A     -0.512876    24A     -0.502817
      25A     -0.493726    26A     -0.489769    27A     -0.467214
      28A     -0.458335    29A     -0.330864

  @DF-RHF Final Energy:  -290.46662233168990

   => Energetics <=

    Nuclear Repulsion Energy =            337.5924864683530586
    One-Electron Energy =               -1061.1214185395594995
    Two-Electron Energy =                 433.0623097395164223
    DFT Exchange-Correlation Energy =       0.0000000000000000
    Empirical Dispersion Energy =           0.0000000000000000
    PCM Polarization Energy =               0.0000000000000000
    EFP Energy =                            0.0000000000000000
    Total Energy =                       -290.4666223316900187
    Molecular point group: c1
  Basis Set: CC-PVTZ
  Basis Set:

  -Total Gradient:
     Atom            X                  Y                   Z
    ------   -----------------  -----------------  -----------------
       1       -0.000004794443     0.000002177849     0.000003484164
       2        0.000004291255     0.000003684577     0.000006730183
       3       -0.000326314982    -0.000375134712     0.000334030978
       4        0.000006728859    -0.000003584209     0.000003604814
       5        0.000007230411    -0.000003656882     0.000004947689
       6        0.000628219441     0.000678774368    -0.000675004805
       7       -0.000009539163     0.000018762061     0.000003435797
       8       -0.000005676116    -0.000010337225     0.000002295498
       9       -0.000505497627    -0.000701264484     0.000709739147
      10       -0.000026584125     0.000046774907    -0.000030247693
      11        0.000208136589     0.000380504119    -0.000369005570
      12       -0.000006344127     0.000003426923     0.000007098065
      13        0.000003758350    -0.000006301543    -0.000009357794
      14        0.000007955806    -0.000005770610     0.000013368097
      15        0.000005534930    -0.000016196176    -0.000003134976
      16       -0.000001964896    -0.000016156777     0.000013329678
      17       -0.000003386459    -0.000003894266    -0.000003827264
      18        0.000014712940    -0.000000409070     0.000005539699
      19       -0.000000844908     0.000007035308    -0.000002224167
      20        0.000008887816     0.000000142351    -0.000004430629
      21       -0.000001967945     0.000005401558    -0.000001400536
      22       -0.000002541609    -0.000003978067    -0.000008970379

  **** Optimization is complete! (in 13 steps) ****
    Final optimized geometry and variables:
    Molecular point group: c1

    Geometry (in Angstrom), charge = 0, multiplicity = 1:

    H           -0.383636744468    -1.067819232552    -3.194172341571
    C            0.226757673998    -0.841422200058    -2.326004165663
    C           -0.646338686796    -0.291930012553    -1.202642738588
    H            0.973374739807    -0.110281517626    -2.611241743147
    H            0.741851562003    -1.751195355249    -2.044784461744
    N            0.118016593951     0.075654412212    -0.025976899880
    H           -1.143530774611     0.584765756212    -1.585498559018
    H           -1.432854773052    -1.014951747907    -0.969849312199
    C           -0.353208516410     1.194531476879     0.794690177582
    C            0.546762964685    -1.060963597982     0.765906124502
    C           -1.740751749329     1.761129409490     0.501825020980
    H            0.360828463508     2.011448182327     0.734873027839
    H           -0.354307981143     0.877229096061     1.831832354556
    C            1.867610482399    -0.825854694782     1.487476649881
    H            0.668309000600    -1.911936132534     0.110671934691
    H           -0.219689454751    -1.344972995115     1.493189309280
    H           -1.794179681373     2.262349658741    -0.455628460822
    H           -2.507965293235     0.996262875524     0.529097316345
    H           -1.978251271537     2.496517696925     1.262292551112
    H            2.652556074016    -0.607736966180     0.773312268655
    H            1.808106325356     0.004544031187     2.180586015781
    H            2.150400295085    -1.707287270478     2.053219411782

  Mulliken Charges: (a.u.)
   Center  Symbol    Alpha    Beta     Spin     Total
       1     H     0.45375  0.45375  0.00000  0.09250
       2     C     3.14010  3.14010  0.00000 -0.28020
       3     C     3.04512  3.04512  0.00000 -0.09025
       4     H     0.45294  0.45294  0.00000  0.09412
       5     H     0.45591  0.45591  0.00000  0.08818
       6     N     3.62250  3.62250  0.00000 -0.24500
       7     H     0.44852  0.44852  0.00000  0.10297
       8     H     0.46521  0.46521  0.00000  0.06958
       9     C     3.03231  3.03231  0.00000 -0.06462
      10     C     3.04607  3.04607  0.00000 -0.09214
      11     C     3.16114  3.16114  0.00000 -0.32228
      12     H     0.45262  0.45262  0.00000  0.09475
      13     H     0.46336  0.46336  0.00000  0.07327
      14     C     3.14002  3.14002  0.00000 -0.28003
      15     H     0.44891  0.44891  0.00000  0.10218
      16     H     0.46376  0.46376  0.00000  0.07248
      17     H     0.45119  0.45119  0.00000  0.09762
      18     H     0.45050  0.45050  0.00000  0.09900
      19     H     0.44549  0.44549  0.00000  0.10902
      20     H     0.45236  0.45236  0.00000  0.09528
      21     H     0.45473  0.45473  0.00000  0.09054
      22     H     0.45349  0.45349  0.00000  0.09302

   Total alpha = 29.00000, Total beta = 29.00000, Total charge =  0.00000

*** Psi4 exiting successfully. Buy a developer a beer!
