                              Psi4 1.0.54 Driver

  ==> Input File <==

--------------------------------------------------------------------------
set {
	reference rhf
	basis cc-pvtz
}

set_num_threads( 4 )
memory 2 gb

molecule MOL {
0 1

O	 1.699287	 1.551788	 -0.456080
C	 1.274039	 0.865580	 -1.321714
C	 -0.038881	 0.126166	 -1.287837
O	 1.914785	 0.655001	 -2.459922
C	 -0.824290	 0.329213	 -0.000115
H	 -0.610743	 0.448204	 -2.151964
H	 0.179867	 -0.923673	 -1.453459
C	 -2.146151	 -0.432825	 -0.000068
H	 -1.009501	 1.387841	 0.142287
H	 -0.217856	 0.014604	 0.841638
C	 -3.366283	 0.483552	 0.000557
H	 -2.189286	 -1.084450	 -0.869996
H	 -2.188867	 -1.085083	 0.869399
C	 -4.687436	 -0.278003	 0.000108
H	 -3.325150	 1.134819	 -0.867957
H	 -3.325087	 1.133730	 0.869885
H	 -4.773783	 -0.912098	 -0.876078
H	 -5.531922	 0.401392	 0.000363
H	 -4.773901	 -0.912898	 0.875703
C	 3.165796	 1.290751	 -2.627610
H	 3.057922	 2.364059	 -2.576760
H	 3.520026	 0.998100	 -3.602660
H	 3.861518	 0.970097	 -1.866449

	symmetry c1
}
set optking {
	frozen_dihedral = ("
		9 5 8 12
	")
}

ee,wfn = optimize('scf', return_wfn=True)
oeprop( wfn, 'DIPOLE', 'QUADRUPOLE', 'MULLIKEN_CHARGES')
f=open( 'psi4out.xyz', 'w' )
f.write( "23  " )
f.write( str(ee) + "\n" )
f.write( MOL.save_string_xyz() )
f.close()
--------------------------------------------------------------------------

    Molecular point group: c1
  Charge       = 0
  Multiplicity = 1
  Basis Set: CC-PVTZ
  Basis Set:
  @DF-RHF Final Energy:  -423.12534669440890
    Total Energy =                       -423.1253466944090178
    Molecular point group: c1
  Basis Set: CC-PVTZ
  Basis Set:
  Basis Set: CC-PVTZ
  Basis Set:
  @DF-RHF Final Energy:  -423.12559915978034
    Total Energy =                       -423.1255991597801085
  Basis Set: CC-PVTZ
  Basis Set:
  Basis Set: CC-PVTZ
  Basis Set:
  @DF-RHF Final Energy:  -423.12562244703042
    Total Energy =                       -423.1256224470304232
  Basis Set: CC-PVTZ
  Basis Set:
  Basis Set: CC-PVTZ
  Basis Set:
  @DF-RHF Final Energy:  -423.12562012357245
    Total Energy =                       -423.1256201235727303
  Basis Set: CC-PVTZ
  Basis Set:
  Basis Set: CC-PVTZ
  Basis Set:
  @DF-RHF Final Energy:  -423.12567002130498
    Total Energy =                       -423.1256700213049271
  Basis Set: CC-PVTZ
  Basis Set:
  Charge       = 0
  Multiplicity = 1
  Basis Set: CC-PVTZ
  Basis Set:

    Orbital Energies (a.u.)
    -----------------------

    Doubly Occupied:

       1A    -20.596246     2A    -20.534161     3A    -11.364320
       4A    -11.278451     5A    -11.234160     6A    -11.216976
       7A    -11.216013     8A    -11.215327     9A    -11.208110
      10A     -1.472115    11A     -1.365720    12A     -1.092860
      13A     -1.044371    14A     -0.987273    15A     -0.932203
      16A     -0.846421    17A     -0.795536    18A     -0.769253
      19A     -0.702381    20A     -0.685576    21A     -0.676252
      22A     -0.638142    23A     -0.621121    24A     -0.600122
      25A     -0.573924    26A     -0.560338    27A     -0.555827
      28A     -0.529600    29A     -0.522665    30A     -0.499124
      31A     -0.495584    32A     -0.470781    33A     -0.465221
      34A     -0.462205    35A     -0.453545    36A     -0.438265

  @DF-RHF Final Energy:  -423.12567010024640

   => Energetics <=

    Nuclear Repulsion Energy =            454.8342971416486193
    One-Electron Energy =               -1477.6795529861510659
    Two-Electron Energy =                 599.7195857442560509
    DFT Exchange-Correlation Energy =       0.0000000000000000
    Empirical Dispersion Energy =           0.0000000000000000
    PCM Polarization Energy =               0.0000000000000000
    EFP Energy =                            0.0000000000000000
    Total Energy =                       -423.1256701002463387
    Molecular point group: c1
  Basis Set: CC-PVTZ
  Basis Set:

  -Total Gradient:
     Atom            X                  Y                   Z
    ------   -----------------  -----------------  -----------------
       1       -0.000003497647    -0.000009763598     0.000014081196
       2       -0.000002993877     0.000021774100    -0.000003553903
       3       -0.000011910303     0.000018879799     0.000016064554
       4       -0.000002163177    -0.000010170460    -0.000013815324
       5        0.000010357418     0.000007811961     0.001498669492
       6        0.000003352600    -0.000004785397     0.000001961612
       7        0.000001289336    -0.000003796831     0.000009624761
       8        0.000667637373    -0.001172856794     0.000540587071
       9       -0.000098749181     0.000172670401    -0.001339195199
      10        0.000011623362     0.000008101105    -0.000001448142
      11        0.000011025169    -0.000023531919    -0.000036265417
      12       -0.000577457035     0.001003066133    -0.000704624887
      13       -0.000001796185    -0.000009409306    -0.000002823666
      14       -0.000014531630     0.000004489363     0.000024179907
      15        0.000000692371    -0.000004856516    -0.000005536194
      16        0.000007277127     0.000003465096    -0.000002466117
      17        0.000005986134     0.000006274819    -0.000000978173
      18       -0.000005955297    -0.000001630815     0.000005763123
      19       -0.000004516731    -0.000006680162     0.000001052607
      20        0.000004637579     0.000002781639    -0.000000030625
      21        0.000001234213    -0.000001769811    -0.000000133192
      22       -0.000000657348    -0.000000693984     0.000000278461
      23       -0.000000884276     0.000000631178    -0.000001391946

  **** Optimization is complete! (in 6 steps) ****
    Final optimized geometry and variables:
    Molecular point group: c1

    Geometry (in Angstrom), charge = 0, multiplicity = 1:

    O            1.993753117066     1.054012125438     0.450602063514
    C            1.570698682797     0.358514181264    -0.408783692501
    C            0.273893105281    -0.407914782814    -0.356103459045
    O            2.199985212088     0.160259049643    -1.555696371622
    C           -0.496265984938    -0.225358787976     0.945966829147
    H           -0.318945920402    -0.094335036774    -1.209459694704
    H            0.510783522611    -1.452388759139    -0.529066991269
    C           -1.837401500173    -0.986036098773     0.952536660939
    H           -0.670131319518     0.833200105997     1.093868052540
    H            0.128435762787    -0.544134191586     1.769870958451
    C           -3.056824113835    -0.065461229094     0.951590564641
    H           -1.899912840224    -1.635792825015     0.083970269871
    H           -1.889619159500    -1.636055131307     1.819464782477
    C           -4.379952011217    -0.822372888760     0.932870976905
    H           -3.006329425293     0.595275802351     0.089756000097
    H           -3.019273284035     0.576003099709     1.827321964608
    H           -4.463097285341    -1.444974154970     0.048085655378
    H           -5.222632713308    -0.140671784130     0.937432828920
    H           -4.472876415746    -1.468565698855     1.799502739270
    C            3.435160303581     0.821446865145    -1.740915686309
    H            3.306040703247     1.892380184799    -1.689155467864
    H            3.781962825436     0.535409855832    -2.720609954413
    H            4.147819526841     0.515821338813    -0.989283969098

  Mulliken Charges: (a.u.)
   Center  Symbol    Alpha    Beta     Spin     Total
       1     O     4.19682  4.19682  0.00000 -0.39364
       2     C     2.80900  2.80900  0.00000  0.38201
       3     C     3.09782  3.09782  0.00000 -0.19565
       4     O     4.14706  4.14706  0.00000 -0.29412
       5     C     3.09372  3.09372  0.00000 -0.18744
       6     H     0.43965  0.43965  0.00000  0.12071
       7     H     0.43880  0.43880  0.00000  0.12240
       8     C     3.09750  3.09750  0.00000 -0.19500
       9     H     0.44614  0.44614  0.00000  0.10772
      10     H     0.44044  0.44044  0.00000  0.11913
      11     C     3.08208  3.08208  0.00000 -0.16416
      12     H     0.45683  0.45683  0.00000  0.08634
      13     H     0.44668  0.44668  0.00000  0.10664
      14     C     3.15077  3.15077  0.00000 -0.30155
      15     H     0.45509  0.45509  0.00000  0.08983
      16     H     0.45175  0.45175  0.00000  0.09650
      17     H     0.45539  0.45539  0.00000  0.08922
      18     H     0.44800  0.44800  0.00000  0.10399
      19     H     0.45469  0.45469  0.00000  0.09063
      20     C     3.03781  3.03781  0.00000 -0.07563
      21     H     0.45431  0.45431  0.00000  0.09137
      22     H     0.44530  0.44530  0.00000  0.10941
      23     H     0.45434  0.45434  0.00000  0.09132

   Total alpha = 36.00000, Total beta = 36.00000, Total charge = -0.00000

*** Psi4 exiting successfully. Buy a developer a beer!
