                              Psi4 1.0.54 Driver

  ==> Input File <==

--------------------------------------------------------------------------
set {
	reference rhf
	basis cc-pvtz
}

set_num_threads( 4 )
memory 2 gb

molecule MOL {
0 1

H	 3.770490	 -0.411548	 0.646992
O	 2.875125	 -0.608870	 0.877386
C	 2.076458	 -0.067370	 -0.038225
C	 0.626018	 -0.337582	 0.258241
O	 2.499017	 0.544341	 -0.957515
C	 -0.267326	 0.883135	 0.076490
H	 0.325620	 -1.161483	 -0.378003
H	 0.574537	 -0.713685	 1.275261
C	 -1.726822	 0.642622	 0.463839
H	 -0.210803	 1.217591	 -0.953497
H	 0.129920	 1.693110	 0.675679
C	 -2.480891	 -0.340606	 -0.429852
H	 -2.243098	 1.597649	 0.438609
H	 -1.776542	 0.301208	 1.495542
C	 -3.955933	 -0.460128	 -0.060472
H	 -2.393755	 -0.020485	 -1.464726
H	 -2.024244	 -1.323637	 -0.374360
H	 -4.467673	 -1.160944	 -0.709827
H	 -4.458917	 0.497287	 -0.144505
H	 -4.076458	 -0.806900	 0.960497

	symmetry c1
}
set optking {
	frozen_dihedral = ("
		5 3 4 7
	")
}

ee,wfn = optimize('scf', return_wfn=True)
oeprop( wfn, 'DIPOLE', 'QUADRUPOLE', 'MULLIKEN_CHARGES')
f=open( 'psi4out.xyz', 'w' )
f.write( "20  " )
f.write( str(ee) + "\n" )
f.write( MOL.save_string_xyz() )
f.close()
--------------------------------------------------------------------------

    Molecular point group: c1
  Charge       = 0
  Multiplicity = 1
  Basis Set: CC-PVTZ
  Basis Set:
  @DF-RHF Final Energy:  -384.09328624635225
    Total Energy =                       -384.0932862463521360
    Molecular point group: c1
  Basis Set: CC-PVTZ
  Basis Set:
  Basis Set: CC-PVTZ
  Basis Set:
  @DF-RHF Final Energy:  -384.09317860761217
    Total Energy =                       -384.0931786076118897
  Basis Set: CC-PVTZ
  Basis Set:
  Basis Set: CC-PVTZ
  Basis Set:
  @DF-RHF Final Energy:  -384.09327063574148
    Total Energy =                       -384.0932706357411917
  Basis Set: CC-PVTZ
  Basis Set:
  Basis Set: CC-PVTZ
  Basis Set:
  @DF-RHF Final Energy:  -384.09384918814476
    Total Energy =                       -384.0938491881449863
  Basis Set: CC-PVTZ
  Basis Set:
  Basis Set: CC-PVTZ
  Basis Set:
  @DF-RHF Final Energy:  -384.09386076559974
    Total Energy =                       -384.0938607655995156
  Basis Set: CC-PVTZ
  Basis Set:
  Charge       = 0
  Multiplicity = 1
  Basis Set: CC-PVTZ
  Basis Set:

    Orbital Energies (a.u.)
    -----------------------

    Doubly Occupied:

       1A    -20.605583     2A    -20.538165     3A    -11.373233
       4A    -11.237792     5A    -11.224351     6A    -11.219590
       7A    -11.218573     8A    -11.210748     9A     -1.477898
      10A     -1.368232    11A     -1.098132    12A     -1.042014
      13A     -0.962025    14A     -0.869427    15A     -0.820565
      16A     -0.780845    17A     -0.704876    18A     -0.692277
      19A     -0.660772    20A     -0.634284    21A     -0.612268
      22A     -0.596641    23A     -0.577716    24A     -0.557499
      25A     -0.539789    26A     -0.516021    27A     -0.496318
      28A     -0.485296    29A     -0.471111    30A     -0.468737
      31A     -0.460164    32A     -0.442476

  @DF-RHF Final Energy:  -384.09386144908382

   => Energetics <=

    Nuclear Repulsion Energy =            376.6856623739435577
    One-Electron Energy =               -1269.6322094055835805
    Two-Electron Energy =                 508.8526855825559778
    DFT Exchange-Correlation Energy =       0.0000000000000000
    Empirical Dispersion Energy =           0.0000000000000000
    PCM Polarization Energy =               0.0000000000000000
    EFP Energy =                            0.0000000000000000
    Total Energy =                       -384.0938614490839882
    Molecular point group: c1
  Basis Set: CC-PVTZ
  Basis Set:

  -Total Gradient:
     Atom            X                  Y                   Z
    ------   -----------------  -----------------  -----------------
       1       -0.000072218030    -0.000013541431     0.000021226291
       2       -0.000091845936     0.000039881971    -0.000037688303
       3        0.000092305970     0.001478795771     0.000656719392
       4        0.000411693604    -0.001266419006     0.000584379435
       5       -0.000104503514    -0.000969606611    -0.000507750865
       6        0.000015003272     0.000038549400     0.000039036379
       7       -0.000326586916     0.000663000350    -0.000729281994
       8        0.000022007193     0.000025999909    -0.000019514595
       9       -0.000008333174     0.000019434914    -0.000021635762
      10        0.000000673973     0.000000832133     0.000016208191
      11        0.000006193016     0.000001085943     0.000004566187
      12        0.000015919673     0.000000188775    -0.000008091018
      13        0.000002812965    -0.000004807218    -0.000014672693
      14        0.000000077908     0.000018184541     0.000001999697
      15       -0.000000053961    -0.000009963635     0.000010236064
      16       -0.000004277887     0.000002316573     0.000012893774
      17        0.000044471129    -0.000021282903    -0.000007914895
      18       -0.000001895330    -0.000005484820    -0.000000708940
      19        0.000001280233     0.000003180607    -0.000001756551
      20       -0.000002724199    -0.000000345264     0.000001750204

  **** Optimization is complete! (in 6 steps) ****
    Final optimized geometry and variables:
    Molecular point group: c1

    Geometry (in Angstrom), charge = 0, multiplicity = 1:

    H            3.796994493819    -0.485199410872     0.484151962705
    O            2.917586231099    -0.663373963900     0.782921148172
    C            2.065744754263    -0.083330351816    -0.055455882527
    C            0.626817854086    -0.355065403776     0.296771298485
    O            2.431938978719     0.545139050294    -0.988492658507
    C           -0.266197043399     0.866268594707     0.077790955739
    H            0.316981450173    -1.170071135898    -0.348420325484
    H            0.570010474590    -0.708981382225     1.316968295479
    C           -1.733171894880     0.630284006259     0.438005573650
    H           -0.183031995930     1.183330122466    -0.954264325090
    H            0.113242014533     1.685251053780     0.680270167715
    C           -2.465999637838    -0.366433491156    -0.458336048294
    H           -2.248761150891     1.584731739712     0.386899040422
    H           -1.805442751321     0.304341856304     1.473193196487
    C           -3.947530989290    -0.486758333954    -0.115637367781
    H           -2.359448647794    -0.059097127217    -1.495083982559
    H           -2.007380081931    -1.347054544965    -0.381412972731
    H           -4.443267379543    -1.200184039453    -0.763627615863
    H           -4.453038596362     0.466781686693    -0.224894923573
    H           -4.086632803246    -0.817858320853     0.908191437638

  Mulliken Charges: (a.u.)
   Center  Symbol    Alpha    Beta     Spin     Total
       1     H     0.38110  0.38110  0.00000  0.23781
       2     O     4.15745  4.15745  0.00000 -0.31490
       3     C     2.80944  2.80944  0.00000  0.38112
       4     C     3.09806  3.09806  0.00000 -0.19612
       5     O     4.19640  4.19640  0.00000 -0.39279
       6     C     3.09938  3.09938  0.00000 -0.19876
       7     H     0.44231  0.44231  0.00000  0.11538
       8     H     0.43647  0.43647  0.00000  0.12706
       9     C     3.09768  3.09768  0.00000 -0.19536
      10     H     0.43903  0.43903  0.00000  0.12194
      11     H     0.44457  0.44457  0.00000  0.11086
      12     C     3.08722  3.08722  0.00000 -0.17445
      13     H     0.44598  0.44598  0.00000  0.10803
      14     H     0.45371  0.45371  0.00000  0.09258
      15     C     3.14958  3.14958  0.00000 -0.29916
      16     H     0.45094  0.45094  0.00000  0.09812
      17     H     0.45461  0.45461  0.00000  0.09077
      18     H     0.44752  0.44752  0.00000  0.10496
      19     H     0.45367  0.45367  0.00000  0.09267
      20     H     0.45488  0.45488  0.00000  0.09023

   Total alpha = 32.00000, Total beta = 32.00000, Total charge = -0.00000

*** Psi4 exiting successfully. Buy a developer a beer!
