                              Psi4 1.0.54 Driver

  ==> Input File <==

--------------------------------------------------------------------------
set {
	reference rhf
	basis cc-pvtz
}

set_num_threads( 4 )
memory 2 gb

molecule MOL {
0 1

H	 -2.123894	 -0.667238	 -0.609809
O	 -2.041679	 -0.058866	 0.103463
C	 -0.959304	 0.780994	 -0.094939
C	 0.354905	 0.037902	 -0.006215
H	 -0.985899	 1.279578	 -1.057596
H	 -0.969809	 1.529522	 0.682889
F	 1.367393	 0.879165	 0.107526
F	 0.367113	 -0.744940	 1.052372
F	 0.581964	 -0.708215	 -1.060599

	symmetry c1
}
set optking {
	frozen_dihedral = ("
		7 4 3 5
	")
}

ee,wfn = optimize('scf', return_wfn=True)
oeprop( wfn, 'DIPOLE', 'QUADRUPOLE', 'MULLIKEN_CHARGES')
f=open( 'psi4out.xyz', 'w' )
f.write( "9  " )
f.write( str(ee) + "\n" )
f.write( MOL.save_string_xyz() )
f.close()
--------------------------------------------------------------------------

    Molecular point group: c1
  Charge       = 0
  Multiplicity = 1
  Basis Set: CC-PVTZ
  Basis Set:
  @DF-RHF Final Energy:  -450.84565659889108
    Total Energy =                       -450.8456565988909688
    Molecular point group: c1
  Basis Set: CC-PVTZ
  Basis Set:
  Basis Set: CC-PVTZ
  Basis Set:
  @DF-RHF Final Energy:  -450.84602789783639
    Total Energy =                       -450.8460278978364499
  Basis Set: CC-PVTZ
  Basis Set:
  Basis Set: CC-PVTZ
  Basis Set:
  @DF-RHF Final Energy:  -450.84607739863304
    Total Energy =                       -450.8460773986330423
  Basis Set: CC-PVTZ
  Basis Set:
  Basis Set: CC-PVTZ
  Basis Set:
  @DF-RHF Final Energy:  -450.84608397333369
    Total Energy =                       -450.8460839733337480
  Basis Set: CC-PVTZ
  Basis Set:
  Charge       = 0
  Multiplicity = 1
  Basis Set: CC-PVTZ
  Basis Set:

    Orbital Energies (a.u.)
    -----------------------

    Doubly Occupied:

       1A    -26.339569     2A    -26.338523     3A    -26.333765
       4A    -20.583231     5A    -11.493053     6A    -11.310274
       7A     -1.747012     8A     -1.644669     9A     -1.641168
      10A     -1.406320    11A     -1.049562    12A     -0.929272
      13A     -0.837488    14A     -0.834910    15A     -0.809350
      16A     -0.733557    17A     -0.718766    18A     -0.702734
      19A     -0.671604    20A     -0.664173    21A     -0.648207
      22A     -0.633044    23A     -0.616328    24A     -0.534725
      25A     -0.484289

  @DF-RHF Final Energy:  -450.84608497104148

   => Energetics <=

    Nuclear Repulsion Energy =            277.5133103290728513
    One-Electron Energy =               -1177.3076122577044771
    Two-Electron Energy =                 448.9482169575898070
    DFT Exchange-Correlation Energy =       0.0000000000000000
    Empirical Dispersion Energy =           0.0000000000000000
    PCM Polarization Energy =               0.0000000000000000
    EFP Energy =                            0.0000000000000000
    Total Energy =                       -450.8460849710418188
    Molecular point group: c1
  Basis Set: CC-PVTZ
  Basis Set:

  -Total Gradient:
     Atom            X                  Y                   Z
    ------   -----------------  -----------------  -----------------
       1       -0.000008944421    -0.000024869733    -0.000004096881
       2       -0.000045410412    -0.000001936833    -0.000011412363
       3        0.002066384582     0.004025396397     0.003123244049
       4        0.000015718188    -0.000484292463    -0.004797362811
       5       -0.001735000462    -0.003328659937    -0.001699017308
       6       -0.000006149005    -0.000017145643    -0.000011567093
       7       -0.000284189435    -0.000168372072     0.003376835557
       8       -0.000016017829    -0.000033590367     0.000034760948
       9        0.000013608803     0.000033470648    -0.000011384098

  **** Optimization is complete! (in 5 steps) ****
    Final optimized geometry and variables:
    Molecular point group: c1

    Geometry (in Angstrom), charge = 0, multiplicity = 1:

    H           -2.140045335699    -0.644177974384    -0.677270918592
    O           -2.044661272871    -0.090896665245     0.077812707194
    C           -0.970348700082     0.771535950544    -0.077886158997
    C            0.354942253937     0.041246261094    -0.005375622337
    H           -1.005112681362     1.280683015910    -1.034433199782
    H           -1.001865300762     1.494131480391     0.722240004919
    F            1.345174984618     0.901382189894     0.113029295307
    F            0.416887450580    -0.774873668876     1.019557614594
    F            0.568056218752    -0.676386889095    -1.093018296627

  Mulliken Charges: (a.u.)
   Center  Symbol    Alpha    Beta     Spin     Total
       1     H     0.38794  0.38794  0.00000  0.22412
       2     O     4.19130  4.19130  0.00000 -0.38260
       3     C     2.99191  2.99191  0.00000  0.01619
       4     C     2.68571  2.68571  0.00000  0.62857
       5     H     0.46134  0.46134  0.00000  0.07732
       6     H     0.44624  0.44624  0.00000  0.10752
       7     F     4.61241  4.61241  0.00000 -0.22481
       8     F     4.60685  4.60685  0.00000 -0.21370
       9     F     4.61630  4.61630  0.00000 -0.23261

   Total alpha = 25.00000, Total beta = 25.00000, Total charge = -0.00000

*** Psi4 exiting successfully. Buy a developer a beer!
