  ==> Input File <==

--------------------------------------------------------------------------
set {
	reference rhf
	basis 6-31G*
}

set_num_threads( 4 )
memory 2 gb

molecule MOL {
0 1

H	 2.656700	 0.256064	 0.542699
O	 2.064459	 -0.086912	 -0.111827
C	 0.745630	 0.005118	 0.354752
H	 0.739005	 0.037656	 1.444976
C	 -0.064159	 -1.194875	 -0.122754
C	 -0.046302	 1.193543	 -0.190431
H	 0.197384	 -1.376065	 -1.160690
H	 0.162855	 -2.097978	 0.431858
C	 -1.535782	 -0.752177	 0.006642
H	 0.154512	 1.271315	 -1.255561
H	 0.226209	 2.140461	 0.267302
C	 -1.509193	 0.801505	 0.065617
H	 -2.127797	 -1.112194	 -0.826847
H	 -1.986849	 -1.158408	 0.905561
H	 -2.183670	 1.254107	 -0.651985
H	 -1.821727	 1.144320	 1.047089

	symmetry c1
}
set optking {
	frozen_dihedral = ("
		1 2 3 6
	")
}

ee = optimize('scf')
oeprop('DIPOLE', 'QUADRUPOLE', 'MULLIKEN_CHARGES')
f=open( 'psi4out.xyz', 'w' )
f.write( "16  " )
f.write( str(ee) + "\n" )
f.write( MOL.save_string_xyz() )
f.close()
--------------------------------------------------------------------------

    Molecular point group: c1
  Charge       = 0
  Multiplicity = 1
  Basis Set: 6-31G*
  Basis Set:
  @DF-RHF Final Energy:  -270.01321340823597
    Total Energy =                       -270.0132134082359698
    Molecular point group: c1
  Basis Set: 6-31G*
  Basis Set:
  Basis Set: 6-31G*
  Basis Set:
  @DF-RHF Final Energy:  -270.01331020602601
    Total Energy =                       -270.0133102060257784
  Basis Set: 6-31G*
  Basis Set:
  Basis Set: 6-31G*
  Basis Set:
  @DF-RHF Final Energy:  -270.01332190405492
    Total Energy =                       -270.0133219040549193
  Basis Set: 6-31G*
  Basis Set:
  Charge       = 0
  Multiplicity = 1
  Basis Set: 6-31G*
  Basis Set:

    Orbital Energies (a.u.)
    -----------------------

    Doubly Occupied:

       1A    -20.551514     2A    -11.269419     3A    -11.214617
       4A    -11.213680     5A    -11.207626     6A    -11.207129
       7A     -1.360095     8A     -1.111653     9A     -0.963044
      10A     -0.947617    11A     -0.782249    12A     -0.775891
      13A     -0.712482    14A     -0.651770    15A     -0.619338
      16A     -0.578458    17A     -0.554171    18A     -0.524021
      19A     -0.517622    20A     -0.479176    21A     -0.468409
      22A     -0.455764    23A     -0.451887    24A     -0.410629

  @DF-RHF Final Energy:  -270.01332236231571

   => Energetics <=

    Nuclear Repulsion Energy =            254.9394529968364509
    One-Electron Energy =                -871.8490292392643823
    Two-Electron Energy =                 346.8962538801124538
    DFT Exchange-Correlation Energy =       0.0000000000000000
    Empirical Dispersion Energy =           0.0000000000000000
    PCM Polarization Energy =               0.0000000000000000
    EFP Energy =                            0.0000000000000000
    Total Energy =                       -270.0133223623154208
    Molecular point group: c1
  Basis Set: 6-31G*
  Basis Set:

  -Total Gradient:
     Atom            X                  Y                   Z
    ------   -----------------  -----------------  -----------------
       1        0.000151530543    -0.001548654481     0.000647785426
       2       -0.000337800223     0.001645344523    -0.001130349039
       3        0.000595266308     0.000512552655     0.001303775071
       4       -0.000001944108    -0.000003698742    -0.000008675407
       5       -0.000025830226     0.000030140012    -0.000011081974
       6       -0.000331381624    -0.000631357743    -0.000858286858
       7        0.000008864522    -0.000002735053    -0.000004150039
       8        0.000007345274     0.000005172072     0.000003085423
       9        0.000008194803     0.000028635064     0.000003377435
      10        0.000021279120    -0.000013981064     0.000017330149
      11        0.000006857098    -0.000012479026     0.000006384851
      12       -0.000057375412    -0.000003780934     0.000018896614
      13       -0.000003519637     0.000003310539     0.000000913586
      14       -0.000010029654     0.000012494057     0.000001378780
      15       -0.000014507107    -0.000009722697     0.000001370873
      16       -0.000016949682    -0.000011239179     0.000008245109

  **** Optimization is complete! (in 4 steps) ****
    Final optimized geometry and variables:
    Molecular point group: c1

    Geometry (in Angstrom), charge = 0, multiplicity = 1:

    H            2.665054476523     0.277432720101     0.519092065439
    O            2.064586098406    -0.066719774594    -0.124552855411
    C            0.746176724499     0.004218974855     0.356075147407
    H            0.746447368681     0.033713208616     1.445050948055
    C           -0.069424158384    -1.195158196420    -0.120898672736
    C           -0.045005051729     1.192896553311    -0.188096987947
    H            0.197103186954    -1.379370719644    -1.157158367835
    H            0.153510489443    -2.098808975198     0.435312168603
    C           -1.540209612823    -0.749510061671    -0.000288990510
    H            0.163217377564     1.269939040324    -1.251389982038
    H            0.230946520229     2.138099159017     0.269312476436
    C           -1.509408643009     0.804262954512     0.060478036836
    H           -2.128517527279    -1.106736184161    -0.837690461035
    H           -1.998291652166    -1.155580084226     0.895360629795
    H           -2.180352688539     1.258645839031    -0.659411591086
    H           -1.826424468622     1.146318307524     1.041038268633

  Mulliken Charges: (a.u.)
   Center  Symbol    Alpha    Beta     Spin     Total
       1     H     0.28036  0.28036  0.00000  0.43929
       2     O     4.37758  4.37758  0.00000 -0.75516
       3     C     2.91074  2.91074  0.00000  0.17853
       4     H     0.43093  0.43093  0.00000  0.13814
       5     C     3.16686  3.16686  0.00000 -0.33372
       6     C     3.16860  3.16860  0.00000 -0.33719
       7     H     0.41098  0.41098  0.00000  0.17804
       8     H     0.41544  0.41544  0.00000  0.16913
       9     C     3.16896  3.16896  0.00000 -0.33793
      10     H     0.41325  0.41325  0.00000  0.17351
      11     H     0.42026  0.42026  0.00000  0.15948
      12     C     3.16993  3.16993  0.00000 -0.33985
      13     H     0.41476  0.41476  0.00000  0.17048
      14     H     0.41788  0.41788  0.00000  0.16424
      15     H     0.41425  0.41425  0.00000  0.17149
      16     H     0.41924  0.41924  0.00000  0.16153

   Total alpha = 24.00000, Total beta = 24.00000, Total charge = -0.00000
