                              Psi4 1.0.54 Driver

  ==> Input File <==

--------------------------------------------------------------------------
set {
	reference rhf
	basis cc-pvtz
}

set_num_threads( 4 )
memory 2 gb

molecule MOL {
0 1

O	 1.983882	 0.024194	 -0.804685
C	 1.121787	 0.124983	 0.000110
C	 -0.170912	 -0.649867	 -0.000147
O	 1.185553	 0.953082	 1.029946
C	 -1.413045	 0.229353	 0.001137
H	 -0.152877	 -1.303435	 -0.866175
H	 -0.152278	 -1.305116	 0.864586
C	 -2.702562	 -0.586401	 0.000228
H	 -1.390744	 0.882001	 -0.864365
H	 -1.390549	 0.879837	 0.868264
C	 -3.953810	 0.284959	 -0.000782
H	 -2.717793	 -1.238567	 -0.869075
H	 -2.719108	 -1.238472	 0.869576
H	 -3.983727	 0.924403	 -0.876454
H	 -4.852989	 -0.320147	 -0.001515
H	 -3.985140	 0.924399	 0.874841
C	 2.349059	 1.745622	 1.154253
H	 3.225319	 1.122986	 1.257796
H	 2.209502	 2.342108	 2.041156
H	 2.470011	 2.383430	 0.291238

	symmetry c1
}
set optking {
	frozen_dihedral = ("
		1 2 3 6
	")
}

ee,wfn = optimize('scf', return_wfn=True)
oeprop( wfn, 'DIPOLE', 'QUADRUPOLE', 'MULLIKEN_CHARGES')
f=open( 'psi4out.xyz', 'w' )
f.write( "20  " )
f.write( str(ee) + "\n" )
f.write( MOL.save_string_xyz() )
f.close()
--------------------------------------------------------------------------

    Molecular point group: c1
  Charge       = 0
  Multiplicity = 1
  Basis Set: CC-PVTZ
  Basis Set:
  @DF-RHF Final Energy:  -384.08161650166761
    Total Energy =                       -384.0816165016676678
    Molecular point group: c1
  Basis Set: CC-PVTZ
  Basis Set:
  Basis Set: CC-PVTZ
  Basis Set:
  @DF-RHF Final Energy:  -384.08144211576433
    Total Energy =                       -384.0814421157646166
  Basis Set: CC-PVTZ
  Basis Set:
  Basis Set: CC-PVTZ
  Basis Set:
  @DF-RHF Final Energy:  -384.08156628405033
    Total Energy =                       -384.0815662840508367
  Basis Set: CC-PVTZ
  Basis Set:
  Basis Set: CC-PVTZ
  Basis Set:
  @DF-RHF Final Energy:  -384.08195328696530
    Total Energy =                       -384.0819532869653585
  Basis Set: CC-PVTZ
  Basis Set:
  Basis Set: CC-PVTZ
  Basis Set:
  @DF-RHF Final Energy:  -384.08195702804557
    Total Energy =                       -384.0819570280458493
  Basis Set: CC-PVTZ
  Basis Set:
  Charge       = 0
  Multiplicity = 1
  Basis Set: CC-PVTZ
  Basis Set:

    Orbital Energies (a.u.)
    -----------------------

    Doubly Occupied:

       1A    -20.597055     2A    -20.532735     3A    -11.363647
       4A    -11.278718     5A    -11.232860     6A    -11.226044
       7A    -11.221945     8A    -11.212390     9A     -1.472050
      10A     -1.364624    11A     -1.093890    12A     -1.026130
      13A     -0.967488    14A     -0.892042    15A     -0.807545
      16A     -0.776113    17A     -0.695911    18A     -0.683839
      19A     -0.676700    20A     -0.649280    21A     -0.597142
      22A     -0.593411    23A     -0.578442    24A     -0.551401
      25A     -0.533889    26A     -0.522899    27A     -0.510307
      28A     -0.488138    29A     -0.481379    30A     -0.475101
      31A     -0.458742    32A     -0.431928

  @DF-RHF Final Energy:  -384.08195745939690

   => Energetics <=

    Nuclear Repulsion Energy =            384.1544561028712224
    One-Electron Energy =               -1284.4852523204463068
    Two-Electron Energy =                 516.2488387581779534
    DFT Exchange-Correlation Energy =       0.0000000000000000
    Empirical Dispersion Energy =           0.0000000000000000
    PCM Polarization Energy =               0.0000000000000000
    EFP Energy =                            0.0000000000000000
    Total Energy =                       -384.0819574593971311
    Molecular point group: c1
  Basis Set: CC-PVTZ
  Basis Set:

  -Total Gradient:
     Atom            X                  Y                   Z
    ------   -----------------  -----------------  -----------------
       1        0.000216386798    -0.000420280650     0.000409813563
       2       -0.000356291894     0.000648981485    -0.000692433668
       3        0.000436161723    -0.000665737854     0.000605686669
       4       -0.000013100085     0.000042846542     0.000043427817
       5        0.000017529569     0.000000829728     0.000002642187
       6       -0.000258019774     0.000414893701    -0.000339649248
       7       -0.000011589461     0.000011755104    -0.000025339982
       8       -0.000015903110    -0.000011276175     0.000004120177
       9       -0.000008023029    -0.000007152846     0.000018280206
      10        0.000011085383     0.000004021027     0.000000037428
      11        0.000002551876     0.000002918223    -0.000007713177
      12        0.000002406187    -0.000002776835     0.000004707742
      13        0.000000694490     0.000004593250    -0.000001848976
      14       -0.000003656838     0.000001792693     0.000003033882
      15       -0.000001776981     0.000000826152    -0.000002608964
      16        0.000001797378    -0.000005785112    -0.000005893758
      17       -0.000016120639    -0.000022129550    -0.000013853679
      18       -0.000003661751     0.000009910449     0.000001804769
      19       -0.000006600839    -0.000013563212    -0.000011116752
      20        0.000006131008     0.000005333883     0.000006903763

  **** Optimization is complete! (in 6 steps) ****
    Final optimized geometry and variables:
    Molecular point group: c1

    Geometry (in Angstrom), charge = 0, multiplicity = 1:

    O            2.147126927895    -0.302635689229    -0.947978615593
    C            1.290370986333    -0.159932710851    -0.143165630202
    C            0.003727860515    -0.943550011125    -0.111842814573
    O            1.370716012696     0.709538478191     0.850772554673
    C           -1.248497267021    -0.066198819757    -0.180700739138
    H            0.034237247578    -1.630607074160    -0.945048611333
    H           -0.005425339804    -1.522668074536     0.805789139060
    C           -2.532171864245    -0.890978116666    -0.191540506977
    H           -1.207234451725     0.546032995555    -1.077398795365
    H           -1.259092469829     0.615007676305     0.661615648534
    C           -3.788516240889    -0.030389201037    -0.268253375838
    H           -2.512866466974    -1.577279876326    -1.033247665209
    H           -2.570072359904    -1.505999224354     0.703411631491
    H           -3.795683489356     0.571769641233    -1.170515169394
    H           -4.682443377504    -0.642964156155    -0.272652737237
    H           -3.853182885418     0.643905087522     0.579004614915
    C            2.540761661350     1.498175346690     0.929900133753
    H            3.413267137949     0.873861001129     1.052628290036
    H            2.413585557178     2.133984390637     1.791010071648
    H            2.658156999290     2.096358417619     0.038574326075

  Mulliken Charges: (a.u.)
   Center  Symbol    Alpha    Beta     Spin     Total
       1     O     4.19971  4.19971  0.00000 -0.39942
       2     C     2.81039  2.81039  0.00000  0.37921
       3     C     3.07765  3.07765  0.00000 -0.15529
       4     O     4.14911  4.14911  0.00000 -0.29823
       5     C     3.09691  3.09691  0.00000 -0.19382
       6     H     0.43701  0.43701  0.00000  0.12597
       7     H     0.44707  0.44707  0.00000  0.10585
       8     C     3.08876  3.08876  0.00000 -0.17752
       9     H     0.44952  0.44952  0.00000  0.10097
      10     H     0.44323  0.44323  0.00000  0.11354
      11     C     3.14910  3.14910  0.00000 -0.29820
      12     H     0.45224  0.45224  0.00000  0.09553
      13     H     0.45369  0.45369  0.00000  0.09262
      14     H     0.45394  0.45394  0.00000  0.09212
      15     H     0.44739  0.44739  0.00000  0.10522
      16     H     0.45437  0.45437  0.00000  0.09126
      17     C     3.03714  3.03714  0.00000 -0.07428
      18     H     0.45280  0.45280  0.00000  0.09440
      19     H     0.44574  0.44574  0.00000  0.10853
      20     H     0.45422  0.45422  0.00000  0.09156

   Total alpha = 32.00000, Total beta = 32.00000, Total charge = -0.00000

*** Psi4 exiting successfully. Buy a developer a beer!
