  ==> Input File <==

--------------------------------------------------------------------------
set {
	reference rhf
	basis 6-31G*
}

set_num_threads( 4 )
memory 2 gb

molecule MOL {
0 1

O	 -1.487788	 1.240889	 -0.102860
C	 -1.083277	 0.139568	 0.115197
C	 0.323299	 -0.082943	 0.642902
C	 -1.933017	 -1.084621	 -0.143902
C	 1.355627	 -0.005344	 -0.493127
H	 0.396251	 -1.044647	 1.143147
H	 0.528637	 0.693580	 1.371677
C	 1.825612	 -1.386146	 -0.946723
H	 0.929569	 0.527059	 -1.340649
H	 2.202603	 0.579996	 -0.150857
H	 2.557216	 -1.304396	 -1.744071
H	 0.996782	 -1.982719	 -1.316811
H	 2.286530	 -1.930088	 -0.127744
H	 -1.393885	 -1.806447	 -0.750509
H	 -2.850323	 -0.799888	 -0.640100
H	 -2.169004	 -1.571158	 0.798858

	symmetry c1
}
set optking {
	frozen_dihedral = ("
		9 5 3 2
	")
}

ee = optimize('scf')
oeprop('DIPOLE', 'QUADRUPOLE', 'MULLIKEN_CHARGES')
f=open( 'psi4out.xyz', 'w' )
f.write( "16  " )
f.write( str(ee) + "\n" )
f.write( MOL.save_string_xyz() )
f.close()
--------------------------------------------------------------------------

    Molecular point group: c1
  Charge       = 0
  Multiplicity = 1
  Basis Set: 6-31G*
  Basis Set:
  @DF-RHF Final Energy:  -270.02486512528952
    Total Energy =                       -270.0248651252896934
    Molecular point group: c1
  Basis Set: 6-31G*
  Basis Set:
  Basis Set: 6-31G*
  Basis Set:
  @DF-RHF Final Energy:  -270.02519264201277
    Total Energy =                       -270.0251926420128825
  Basis Set: 6-31G*
  Basis Set:
  Basis Set: 6-31G*
  Basis Set:
  @DF-RHF Final Energy:  -270.02532604909186
    Total Energy =                       -270.0253260490919729
  Basis Set: 6-31G*
  Basis Set:
  Basis Set: 6-31G*
  Basis Set:
  @DF-RHF Final Energy:  -270.02546077967725
    Total Energy =                       -270.0254607796770188
  Basis Set: 6-31G*
  Basis Set:
  @DF-RHF Final Energy:  -270.02554976774974
    Total Energy =                       -270.0255497677497942
  @DF-RHF Final Energy:  -270.02584401634783
    Total Energy =                       -270.0258440163477189
  @DF-RHF Final Energy:  -270.02604454105904
    Total Energy =                       -270.0260445410592638
  @DF-RHF Final Energy:  -270.02741080731289
    Total Energy =                       -270.0274108073130037
  @DF-RHF Final Energy:  -270.02805431580248
    Total Energy =                       -270.0280543158023647
  @DF-RHF Final Energy:  -270.02866158198799
    Total Energy =                       -270.0286615819878762
  Basis Set: 6-31G*
  Basis Set:
  @DF-RHF Final Energy:  -270.02890258018897
    Total Energy =                       -270.0289025801889693
  Basis Set: 6-31G*
  Basis Set:
  Basis Set: 6-31G*
  Basis Set:
  @DF-RHF Final Energy:  -270.02894240983102
    Total Energy =                       -270.0289424098310747
  Basis Set: 6-31G*
  Basis Set:
  Basis Set: 6-31G*
  Basis Set:
  @DF-RHF Final Energy:  -270.02894356104753
    Total Energy =                       -270.0289435610473561
  Basis Set: 6-31G*
  Basis Set:
  Charge       = 0
  Multiplicity = 1
  Basis Set: 6-31G*
  Basis Set:

    Orbital Energies (a.u.)
    -----------------------

    Doubly Occupied:

       1A    -20.551827     2A    -11.328117     3A    -11.232573
       4A    -11.229247     5A    -11.217866     6A    -11.210728
       7A     -1.397403     8A     -1.074648     9A     -1.015513
      10A     -0.945235    11A     -0.825499    12A     -0.729523
      13A     -0.664501    14A     -0.637641    15A     -0.622871
      16A     -0.594926    17A     -0.579488    18A     -0.555438
      19A     -0.547691    20A     -0.500908    21A     -0.486138
      22A     -0.480251    23A     -0.472430    24A     -0.402960

  @DF-RHF Final Energy:  -270.02894409549799

   => Energetics <=

    Nuclear Repulsion Energy =            238.8877773628002785
    One-Electron Energy =                -839.2266005935171052
    Two-Electron Energy =                 330.3098791352190915
    DFT Exchange-Correlation Energy =       0.0000000000000000
    Empirical Dispersion Energy =           0.0000000000000000
    PCM Polarization Energy =               0.0000000000000000
    EFP Energy =                            0.0000000000000000
    Total Energy =                       -270.0289440954977067
    Molecular point group: c1
  Basis Set: 6-31G*
  Basis Set:

  -Total Gradient:
     Atom            X                  Y                   Z
    ------   -----------------  -----------------  -----------------
       1       -0.000003262862     0.000027850801    -0.000067554115
       2       -0.000267209329     0.002368868811     0.001256234980
       3        0.000204528508    -0.003934831843    -0.002277554681
       4       -0.000014917252     0.000020105134     0.000041108237
       5        0.000443089677     0.004160719753     0.003561488013
       6        0.000017790981     0.000006387861     0.000020456970
       7        0.000013422016    -0.000013000287    -0.000012815516
       8        0.000038172312    -0.000032522743    -0.000026537888
       9       -0.000434628905    -0.002570556357    -0.002442346548
      10       -0.000022991585     0.000017940863    -0.000001867689
      11        0.000002364344    -0.000014248982    -0.000008963415
      12        0.000006354368    -0.000018613799    -0.000000477583
      13        0.000009243488     0.000006349295    -0.000014233595
      14       -0.000003754782    -0.000008195850    -0.000017780103
      15        0.000013809285    -0.000004027132    -0.000004535866
      16       -0.000002010262    -0.000012225527    -0.000004621202

  **** Optimization is complete! (in 14 steps) ****
    Final optimized geometry and variables:
    Molecular point group: c1

    Geometry (in Angstrom), charge = 0, multiplicity = 1:

    O           -1.054487457201     0.784103193667    -0.922788801293
    C           -0.978731671080     0.147300043884     0.082636886892
    C            0.337936680664    -0.104219519451     0.802120047866
    C           -2.210048934281    -0.461355240979     0.721714767054
    C            1.584250544615     0.398423179191     0.060601895124
    H            0.408355696128    -1.166286881445     1.026812957526
    H            0.243870074140     0.384260668114     1.771022962155
    C            2.320205088971    -0.719245958418    -0.681631582839
    H            1.279784343773     1.143288983492    -0.662782617402
    H            2.261430756377     0.873433903530     0.762609201538
    H            3.178775076900    -0.329854054005    -1.219443761975
    H            1.667830958340    -1.198029826863    -1.406327543740
    H            2.677023224378    -1.483992617670     0.003068598020
    H           -2.171008544587    -1.543533428567     0.631347905956
    H           -3.098000802528    -0.095925567906     0.224964068741
    H           -2.257753731314    -0.227340609118     1.780566917465

  Mulliken Charges: (a.u.)
   Center  Symbol    Alpha    Beta     Spin     Total
       1     O     4.26084  4.26084  0.00000 -0.52168
       2     C     2.73787  2.73787  0.00000  0.52426
       3     C     3.21244  3.21244  0.00000 -0.42488
       4     C     3.28726  3.28726  0.00000 -0.57452
       5     C     3.15724  3.15724  0.00000 -0.31448
       6     H     0.40893  0.40893  0.00000  0.18215
       7     H     0.40611  0.40611  0.00000  0.18779
       8     C     3.24191  3.24191  0.00000 -0.48382
       9     H     0.39542  0.39542  0.00000  0.20917
      10     H     0.41945  0.41945  0.00000  0.16110
      11     H     0.41730  0.41730  0.00000  0.16539
      12     H     0.41796  0.41796  0.00000  0.16408
      13     H     0.42419  0.42419  0.00000  0.15162
      14     H     0.40653  0.40653  0.00000  0.18694
      15     H     0.39635  0.39635  0.00000  0.20730
      16     H     0.41020  0.41020  0.00000  0.17959

   Total alpha = 24.00000, Total beta = 24.00000, Total charge =  0.00000
