                              Psi4 1.0.54 Driver

  ==> Input File <==

--------------------------------------------------------------------------
set {
	reference rhf
	basis cc-pvtz
}

set_num_threads( 4 )
memory 2 gb

molecule MOL {
0 1

H	 -4.235753	 0.507087	 0.090372
O	 -3.518407	 -0.038625	 -0.173841
C	 -2.305858	 0.508074	 0.272549
C	 -1.175688	 -0.398187	 -0.171891
H	 -2.164088	 1.505691	 -0.137860
H	 -2.304676	 0.596960	 1.356952
C	 0.196029	 0.106276	 0.266738
H	 -1.211489	 -0.487216	 -1.253100
H	 -1.353639	 -1.391172	 0.228398
C	 1.330220	 -0.826136	 -0.155230
H	 0.359542	 1.097229	 -0.145561
H	 0.212134	 0.218135	 1.348778
C	 2.719700	 -0.407669	 0.328325
H	 1.339388	 -0.911200	 -1.239363
H	 1.119001	 -1.821953	 0.224128
C	 3.241564	 0.893452	 -0.276737
H	 3.418299	 -1.204729	 0.093035
H	 2.711776	 -0.323368	 1.411960
H	 3.254204	 0.841071	 -1.360784
H	 2.634460	 1.745075	 0.005842
H	 4.254264	 1.092401	 0.054971

	symmetry c1
}
set optking {
	frozen_dihedral = ("
		8 4 7 10
	")
}

ee,wfn = optimize('scf', return_wfn=True)
oeprop( wfn, 'DIPOLE', 'QUADRUPOLE', 'MULLIKEN_CHARGES')
f=open( 'psi4out.xyz', 'w' )
f.write( "21  " )
f.write( str(ee) + "\n" )
f.write( MOL.save_string_xyz() )
f.close()
--------------------------------------------------------------------------

    Molecular point group: c1
  Charge       = 0
  Multiplicity = 1
  Basis Set: CC-PVTZ
  Basis Set:
  @DF-RHF Final Energy:  -310.33305072115036
    Total Energy =                       -310.3330507211501299
    Molecular point group: c1
  Basis Set: CC-PVTZ
  Basis Set:
  Charge       = 0
  Multiplicity = 1
  Basis Set: CC-PVTZ
  Basis Set:

    Orbital Energies (a.u.)
    -----------------------

    Doubly Occupied:

       1A    -20.545371     2A    -11.264953     3A    -11.213180
       4A    -11.213074     5A    -11.211274     6A    -11.208956
       7A    -11.206085     8A     -1.363208     9A     -1.087439
      10A     -1.034476    11A     -0.955556    12A     -0.876409
      13A     -0.807531    14A     -0.779336    15A     -0.696174
      16A     -0.663026    17A     -0.622867    18A     -0.608377
      19A     -0.588841    20A     -0.570644    21A     -0.538042
      22A     -0.520625    23A     -0.511754    24A     -0.487992
      25A     -0.479865    26A     -0.460728    27A     -0.456231
      28A     -0.444261    29A     -0.437374

  @DF-RHF Final Energy:  -310.33305171927884

   => Energetics <=

    Nuclear Repulsion Energy =            312.9090349621418454
    One-Electron Energy =               -1040.7768791221299125
    Two-Electron Energy =                 417.5347924407089977
    DFT Exchange-Correlation Energy =       0.0000000000000000
    Empirical Dispersion Energy =           0.0000000000000000
    PCM Polarization Energy =               0.0000000000000000
    EFP Energy =                            0.0000000000000000
    Total Energy =                       -310.3330517192790694
    Molecular point group: c1
  Basis Set: CC-PVTZ
  Basis Set:

  -Total Gradient:
     Atom            X                  Y                   Z
    ------   -----------------  -----------------  -----------------
       1       -0.000006581635     0.000003127122    -0.000007830687
       2       -0.000022104749     0.000002575849    -0.000008259737
       3        0.000047538680    -0.000040459820    -0.000040285917
       4        0.000088727216    -0.000366492038     0.000209392987
       5       -0.000014011248     0.000023610268    -0.000003318010
       6        0.000028522035    -0.000014993061    -0.000007403151
       7        0.000005783114     0.000240729518    -0.000318168049
       8       -0.000075945054     0.000280062449    -0.000008886125
       9       -0.000037308140    -0.000040218140     0.000006383459
      10       -0.000025556138    -0.000113240495     0.000183891179
      11        0.000018906055     0.000036155299     0.000013196677
      12       -0.000016364250    -0.000025527953    -0.000027772676
      13       -0.000010232527     0.000020317971     0.000010738193
      14       -0.000022034586     0.000016510114     0.000003531543
      15        0.000018663239    -0.000012849219    -0.000004306685
      16        0.000014434840    -0.000005285527     0.000001394596
      17       -0.000001579060     0.000002004724     0.000001669953
      18       -0.000003477907     0.000006235489    -0.000000174059
      19       -0.000004314326     0.000001674701    -0.000004292697
      20        0.000012008607    -0.000011246621     0.000005678386
      21        0.000004925842    -0.000002690629    -0.000005179182

  **** Optimization is complete! (in 2 steps) ****
    Final optimized geometry and variables:
    Molecular point group: c1

    Geometry (in Angstrom), charge = 0, multiplicity = 1:

    H           -4.233990164499     0.517344130714     0.073325206327
    O           -3.516863665864    -0.029231258857    -0.189552927897
    C           -2.304743405920     0.513180159657     0.263229245470
    C           -1.174835040103    -0.394108683669    -0.179755117290
    H           -2.159307486074     1.511892589683    -0.143327986666
    H           -2.307383802361     0.598419878567     1.347890291678
    C            0.196596491617     0.110794419273     0.259033312089
    H           -1.210448169723    -0.481473359925    -1.261060234983
    H           -1.353826707720    -1.386908646480     0.220479511214
    C            1.331409098546    -0.819968292227    -0.164561666933
    H            0.358653041942     1.103214144223    -0.150142669867
    H            0.213175252485     0.219055663678     1.341431775605
    C            2.720813648791    -0.400391613218     0.318224805000
    H            1.339845814578    -0.904339185351    -1.248760554227
    H            1.121397621578    -1.816140608337     0.214386918854
    C            3.242618103300     0.899669045629    -0.288997415012
    H            3.419523085773    -1.197656403224     0.084081884878
    H            2.713006848212    -0.314359370670     1.401709546737
    H            3.253535882121     0.846049962307    -1.372978855424
    H            2.636529256983     1.751966652661    -0.006406592413
    H            4.255951448469     1.098293135967     0.040938915603

  Mulliken Charges: (a.u.)
   Center  Symbol    Alpha    Beta     Spin     Total
       1     H     0.39761  0.39761  0.00000  0.20478
       2     O     4.19428  4.19428  0.00000 -0.38856
       3     C     2.96327  2.96327  0.00000  0.07347
       4     C     3.08381  3.08381  0.00000 -0.16762
       5     H     0.47508  0.47508  0.00000  0.04984
       6     H     0.47488  0.47488  0.00000  0.05024
       7     C     3.10325  3.10325  0.00000 -0.20650
       8     H     0.45086  0.45086  0.00000  0.09828
       9     H     0.45064  0.45064  0.00000  0.09872
      10     C     3.09426  3.09426  0.00000 -0.18853
      11     H     0.45330  0.45330  0.00000  0.09341
      12     H     0.45577  0.45577  0.00000  0.08846
      13     C     3.08987  3.08987  0.00000 -0.17974
      14     H     0.45315  0.45315  0.00000  0.09370
      15     H     0.44879  0.44879  0.00000  0.10243
      16     C     3.15231  3.15231  0.00000 -0.30463
      17     H     0.44844  0.44844  0.00000  0.10312
      18     H     0.45503  0.45503  0.00000  0.08994
      19     H     0.45464  0.45464  0.00000  0.09073
      20     H     0.45427  0.45427  0.00000  0.09145
      21     H     0.44650  0.44650  0.00000  0.10700

   Total alpha = 29.00000, Total beta = 29.00000, Total charge = -0.00000

*** Psi4 exiting successfully. Buy a developer a beer!
