  ==> Input File <==

--------------------------------------------------------------------------
set {
	reference rhf
	basis 6-31G*
}

set_num_threads( 1 )
memory 2 gb

molecule MOL {
0 1

H	 3.172663	 1.216644	 -0.823965
O	 2.241416	 1.094379	 -0.667167
C	 2.077727	 -0.067559	 -0.035091
C	 0.624473	 -0.343591	 0.253101
O	 2.994991	 -0.767760	 0.246622
C	 -0.265902	 0.883932	 0.072916
H	 0.324016	 -1.163849	 -0.390541
H	 0.565024	 -0.726111	 1.268924
C	 -1.728698	 0.646073	 0.462102
H	 -0.209144	 1.219470	 -0.958188
H	 0.135059	 1.692851	 0.673903
C	 -2.482460	 -0.343073	 -0.431425
H	 -2.245265	 1.602650	 0.432430
H	 -1.779332	 0.308348	 1.496285
C	 -3.960546	 -0.461025	 -0.060175
H	 -2.395034	 -0.026811	 -1.468912
H	 -2.024850	 -1.327147	 -0.371646
H	 -4.472726	 -1.168004	 -0.705284
H	 -4.465146	 0.496508	 -0.151489
H	 -4.081218	 -0.800940	 0.964585

	symmetry c1
}
set optking {
	frozen_dihedral = ("
		16 12 9 6,
		7 4 6 10,
		12 9 6 10,
		1 2 3 5
	")
}

ee = energy('scf')
oeprop('DIPOLE', 'QUADRUPOLE', 'MULLIKEN_CHARGES')
f=open( 'psi4out.xyz', 'w' )
f.write( "20  " )
f.write( str(ee) + "\n" )
f.write( MOL.save_string_xyz() )
f.close()
--------------------------------------------------------------------------

    Molecular point group: c1

    Geometry (in Angstrom), charge = 0, multiplicity = 1:

       Center              X                  Y                   Z               Mass
    ------------   -----------------  -----------------  -----------------  -----------------
           H          3.195764359881     1.127610908675    -0.792749526192     1.007825032070
           O          2.264517359881     1.005345908675    -0.635951526192    15.994914619560
           C          2.100828359881    -0.156592091325    -0.003875526192    12.000000000000
           C          0.647574359881    -0.432624091325     0.284316473808    12.000000000000
           O          3.018092359881    -0.856793091325     0.277837473808    15.994914619560
           C         -0.242800640119     0.794898908675     0.104131473808    12.000000000000
           H          0.347117359881    -1.252882091325    -0.359325526192     1.007825032070
           H          0.588125359881    -0.815144091325     1.300139473808     1.007825032070
           C         -1.705596640119     0.557039908675     0.493317473808    12.000000000000
           H         -0.186042640119     1.130436908675    -0.926972526192     1.007825032070
           H          0.158160359881     1.603817908675     0.705118473808     1.007825032070
           C         -2.459358640119    -0.432106091325    -0.400209526192    12.000000000000
           H         -2.222163640119     1.513616908675     0.463645473808     1.007825032070
           H         -1.756230640119     0.219314908675     1.527500473808     1.007825032070
           C         -3.937444640119    -0.550058091325    -0.028959526192    12.000000000000
           H         -2.371932640119    -0.115844091325    -1.437696526192     1.007825032070
           H         -2.001748640119    -1.416180091325    -0.340430526192     1.007825032070
           H         -4.449624640119    -1.257037091325    -0.674068526192     1.007825032070
           H         -4.442044640119     0.407474908675    -0.120273526192     1.007825032070
           H         -4.058116640119    -0.889973091325     0.995800473808     1.007825032070

  Charge       = 0
  Multiplicity = 1
  Basis Set: 6-31G*
  Basis Set:

    Orbital Energies (a.u.)
    -----------------------

    Doubly Occupied:

       1A    -20.613608     2A    -20.548373     3A    -11.381346
       4A    -11.239955     5A    -11.224855     6A    -11.221658
       7A    -11.221061     8A    -11.213138     9A     -1.474815
      10A     -1.364589    11A     -1.098523    12A     -1.042567
      13A     -0.959081    14A     -0.860508    15A     -0.826483
      16A     -0.791459    17A     -0.699373    18A     -0.679251
      19A     -0.665346    20A     -0.632440    21A     -0.601951
      22A     -0.588652    23A     -0.575774    24A     -0.554025
      25A     -0.547625    26A     -0.520282    27A     -0.499358
      28A     -0.482165    29A     -0.475423    30A     -0.468986
      31A     -0.455779    32A     -0.433306

  @DF-RHF Final Energy:  -383.94480780019296

   => Energetics <=

    Nuclear Repulsion Energy =            377.9412252996573898
    One-Electron Energy =               -1271.8485871151897300
    Two-Electron Energy =                 509.9625540153396628
    DFT Exchange-Correlation Energy =       0.0000000000000000
    Empirical Dispersion Energy =           0.0000000000000000
    PCM Polarization Energy =               0.0000000000000000
    EFP Energy =                            0.0000000000000000
    Total Energy =                       -383.9448078001926774

  Mulliken Charges: (a.u.)
   Center  Symbol    Alpha    Beta     Spin     Total
       1     H     0.26751  0.26751  0.00000  0.46498
       2     O     4.34938  4.34938  0.00000 -0.69876
       3     C     2.61940  2.61940  0.00000  0.76120
       4     C     3.21785  3.21785  0.00000 -0.43569
       5     O     4.28213  4.28213  0.00000 -0.56426
       6     C     3.15509  3.15509  0.00000 -0.31017
       7     H     0.39487  0.39487  0.00000  0.21025
       8     H     0.39676  0.39676  0.00000  0.20649
       9     C     3.15514  3.15514  0.00000 -0.31027
      10     H     0.40991  0.40991  0.00000  0.18018
      11     H     0.41203  0.41203  0.00000  0.17595
      12     C     3.15504  3.15504  0.00000 -0.31008
      13     H     0.41852  0.41852  0.00000  0.16296
      14     H     0.42318  0.42318  0.00000  0.15364
      15     C     3.23926  3.23926  0.00000 -0.47852
      16     H     0.42179  0.42179  0.00000  0.15643
      17     H     0.42227  0.42227  0.00000  0.15546
      18     H     0.41810  0.41810  0.00000  0.16380
      19     H     0.42085  0.42085  0.00000  0.15830
      20     H     0.42094  0.42094  0.00000  0.15812

   Total alpha = 32.00000, Total beta = 32.00000, Total charge =  0.00000
