  ==> Input File <==

--------------------------------------------------------------------------
set {
	reference rhf
	basis 6-31G*
}

set_num_threads( 4 )
memory 2 gb

molecule MOL {
0 1

O	 -2.439739	 -0.935931	 -0.423848
C	 -1.921153	 0.064240	 -0.045697
C	 -2.624470	 1.379923	 0.150949
O	 -0.632575	 0.154573	 0.251549
H	 -2.168117	 2.136577	 -0.476876
H	 -3.669540	 1.273223	 -0.098610
H	 -2.519365	 1.700893	 1.180846
C	 0.160891	 -1.019931	 0.106212
C	 1.589627	 -0.672828	 0.480843
H	 0.089836	 -1.367806	 -0.916050
H	 -0.238459	 -1.792301	 0.749618
C	 2.303568	 -1.762255	 1.283238
H	 1.561050	 0.247804	 1.060113
H	 2.147336	 -0.454702	 -0.426152
C	 3.729604	 -1.368805	 1.666146
H	 1.732785	 -1.975476	 2.184817
H	 2.322423	 -2.680019	 0.704695
H	 4.214358	 -2.157311	 2.232983
H	 3.740078	 -0.469285	 2.275270
H	 4.333532	 -1.177035	 0.783778

	symmetry c1
}
set optking {
	frozen_dihedral = ("
		12 9 8 10
	")
}

ee = optimize('scf')
oeprop('DIPOLE', 'QUADRUPOLE', 'MULLIKEN_CHARGES')
f=open( 'psi4out.xyz', 'w' )
f.write( "20  " )
f.write( str(ee) + "\n" )
f.write( MOL.save_string_xyz() )
f.close()
--------------------------------------------------------------------------

    Molecular point group: c1
  Charge       = 0
  Multiplicity = 1
  Basis Set: 6-31G*
  Basis Set:
  @DF-RHF Final Energy:  -383.94106738374302
    Total Energy =                       -383.9410673837429613
    Molecular point group: c1
  Basis Set: 6-31G*
  Basis Set:
  Basis Set: 6-31G*
  Basis Set:
  @DF-RHF Final Energy:  -383.94129009340213
    Total Energy =                       -383.9412900934022446
  Basis Set: 6-31G*
  Basis Set:
  Basis Set: 6-31G*
  Basis Set:
  @DF-RHF Final Energy:  -383.94127712707888
    Total Energy =                       -383.9412771270785925
  Basis Set: 6-31G*
  Basis Set:
  Basis Set: 6-31G*
  Basis Set:
  @DF-RHF Final Energy:  -383.94146655760261
    Total Energy =                       -383.9414665576030075
  Basis Set: 6-31G*
  Basis Set:
  Basis Set: 6-31G*
  Basis Set:
  @DF-RHF Final Energy:  -383.94146564652658
    Total Energy =                       -383.9414656465263533
  Basis Set: 6-31G*
  Basis Set:
  Basis Set: 6-31G*
  Basis Set:
  @DF-RHF Final Energy:  -383.94147015140828
    Total Energy =                       -383.9414701514085664
  Basis Set: 6-31G*
  Basis Set:
  Charge       = 0
  Multiplicity = 1
  Basis Set: 6-31G*
  Basis Set:

    Orbital Energies (a.u.)
    -----------------------

    Doubly Occupied:

       1A    -20.600441     2A    -20.543025     3A    -11.373294
       4A    -11.282170     5A    -11.232573     6A    -11.225932
       7A    -11.224159     8A    -11.215510     9A     -1.466577
      10A     -1.360760    11A     -1.086240    12A     -1.029043
      13A     -0.979663    14A     -0.881680    15A     -0.808257
      16A     -0.776965    17A     -0.690109    18A     -0.683539
      19A     -0.667056    20A     -0.636066    21A     -0.597715
      22A     -0.593332    23A     -0.570039    24A     -0.557508
      25A     -0.544770    26A     -0.519228    27A     -0.511119
      28A     -0.483317    29A     -0.481500    30A     -0.474541
      31A     -0.449967    32A     -0.436253

  @DF-RHF Final Energy:  -383.94147011779546

   => Energetics <=

    Nuclear Repulsion Energy =            379.0589218404359144
    One-Electron Energy =               -1274.0360903424220851
    Two-Electron Energy =                 511.0356983841909368
    DFT Exchange-Correlation Energy =       0.0000000000000000
    Empirical Dispersion Energy =           0.0000000000000000
    PCM Polarization Energy =               0.0000000000000000
    EFP Energy =                            0.0000000000000000
    Total Energy =                       -383.9414701177952338
    Molecular point group: c1
  Basis Set: 6-31G*
  Basis Set:

  -Total Gradient:
     Atom            X                  Y                   Z
    ------   -----------------  -----------------  -----------------
       1        0.000015421814     0.000011258838     0.000004201124
       2       -0.000025718625    -0.000014556372     0.000001228516
       3        0.000002848069     0.000000755917     0.000000773645
       4        0.000009460191     0.000013482372     0.000020039220
       5       -0.000001681870     0.000001485277    -0.000001583230
       6       -0.000000606526     0.000002186050    -0.000000815207
       7        0.000002433111    -0.000001864130    -0.000002155001
       8        0.000494812467    -0.004501737302     0.002463216672
       9        0.001161332372    -0.000589848189    -0.003829514989
      10       -0.000666913294     0.003910474928    -0.001208723004
      11        0.000020928352     0.000011457252     0.000002387966
      12       -0.000970748447     0.001142494366     0.002538950421
      13       -0.000020411844     0.000005555864     0.000012622905
      14       -0.000021879454    -0.000007037619    -0.000002960359
      15        0.000001854917    -0.000002860983    -0.000004901964
      16        0.000008445343     0.000009337201     0.000009785882
      17       -0.000010845122     0.000010111013     0.000001529791
      18       -0.000002265635    -0.000000002420    -0.000001517539
      19        0.000001143264     0.000001388149    -0.000000915825
      20        0.000002390921    -0.000002080219    -0.000001649020

  **** Optimization is complete! (in 7 steps) ****
    Final optimized geometry and variables:
    Molecular point group: c1

    Geometry (in Angstrom), charge = 0, multiplicity = 1:

    O           -2.444525937942    -0.430168047331    -0.869041720426
    C           -1.936448295135     0.575214516526    -0.489101898238
    C           -2.652076098927     1.886346260877    -0.304917791739
    O           -0.654078263468     0.675119065170    -0.172338625165
    H           -2.192228791946     2.644935137875    -0.927766457396
    H           -3.692738796997     1.771493077375    -0.568989446530
    H           -2.563819735574     2.210054526862     0.725735009558
    C            0.150141022855    -0.497482514571    -0.304849700635
    C            1.581737550980    -0.127254456868     0.080077806709
    H            0.078381498106    -0.827025523866    -1.331623695839
    H           -0.256735751363    -1.268971611248     0.334355224660
    C            2.292088051677    -1.236540839067     0.859940672467
    H            1.543669254599     0.765491662258     0.695868912837
    H            2.150230918824     0.132322103664    -0.808124558007
    C            3.736992546616    -0.881582001605     1.205824393495
    H            1.737726054365    -1.436157387209     1.773739417096
    H            2.276711344383    -2.160533810465     0.284931607231
    H            4.211641217217    -1.678037793749     1.769869414470
    H            3.784895459170     0.023250517770     1.804940725160
    H            4.325727194640    -0.714991893788     0.308391755128

  Mulliken Charges: (a.u.)
   Center  Symbol    Alpha    Beta     Spin     Total
       1     O     4.28409  4.28409  0.00000 -0.56819
       2     C     2.62012  2.62012  0.00000  0.75976
       3     C     3.28147  3.28147  0.00000 -0.56294
       4     O     4.31100  4.31100  0.00000 -0.62201
       5     H     0.40070  0.40070  0.00000  0.19859
       6     H     0.39713  0.39713  0.00000  0.20574
       7     H     0.40085  0.40085  0.00000  0.19830
       8     C     2.99906  2.99906  0.00000  0.00188
       9     C     3.16831  3.16831  0.00000 -0.33662
      10     H     0.40847  0.40847  0.00000  0.18306
      11     H     0.40867  0.40867  0.00000  0.18265
      12     C     3.16019  3.16019  0.00000 -0.32038
      13     H     0.40758  0.40758  0.00000  0.18484
      14     H     0.41559  0.41559  0.00000  0.16882
      15     C     3.24023  3.24023  0.00000 -0.48046
      16     H     0.41888  0.41888  0.00000  0.16224
      17     H     0.42046  0.42046  0.00000  0.15909
      18     H     0.41698  0.41698  0.00000  0.16603
      19     H     0.42000  0.42000  0.00000  0.16001
      20     H     0.42021  0.42021  0.00000  0.15959

   Total alpha = 32.00000, Total beta = 32.00000, Total charge = -0.00000
