                              Psi4 1.0.54 Driver

  ==> Input File <==

--------------------------------------------------------------------------
set {
	reference rhf
	basis cc-pvtz
}

set_num_threads( 4 )
memory 2 gb

molecule MOL {
0 1

H	 3.262348	 -1.935101	 -2.318295
C	 2.953222	 -1.651321	 -1.319287
C	 1.685894	 -0.804498	 -1.357005
H	 2.798533	 -2.562447	 -0.750992
H	 3.775229	 -1.112075	 -0.860445
C	 1.215950	 -0.382441	 0.027187
H	 0.885987	 -1.351880	 -1.843099
H	 1.863936	 0.082930	 -1.959790
N	 0.000002	 0.398953	 -0.040851
H	 1.013964	 -1.267901	 0.622445
H	 2.022884	 0.153316	 0.536015
C	 -1.215959	 -0.382435	 0.027143
H	 -0.000012	 1.086078	 0.683841
C	 -2.451944	 0.502410	 -0.038737
H	 -1.221867	 -1.069392	 -0.813828
H	 -1.259993	 -0.999709	 0.929424
C	 -3.752217	 -0.292550	 0.005776
H	 -2.407325	 1.093801	 -0.946480
H	 -2.431979	 1.206234	 0.790023
H	 -3.817783	 -0.982946	 -0.828547
H	 -4.612613	 0.364348	 -0.042306
H	 -3.830160	 -0.871666	 0.919868

	symmetry c1
}
set optking {
	frozen_dihedral = ("
		10 6 9 12
	")
}

ee,wfn = optimize('scf', return_wfn=True)
oeprop( wfn, 'DIPOLE', 'QUADRUPOLE', 'MULLIKEN_CHARGES')
f=open( 'psi4out.xyz', 'w' )
f.write( "22  " )
f.write( str(ee) + "\n" )
f.write( MOL.save_string_xyz() )
f.close()
--------------------------------------------------------------------------

    Molecular point group: c1
  Charge       = 0
  Multiplicity = 1
  Basis Set: CC-PVTZ
  Basis Set:
  @DF-RHF Final Energy:  -290.48644273366091
    Total Energy =                       -290.4864427336609651
    Molecular point group: c1
  Basis Set: CC-PVTZ
  Basis Set:
  Basis Set: CC-PVTZ
  Basis Set:
  @DF-RHF Final Energy:  -290.48744731232892
    Total Energy =                       -290.4874473123289818
  Basis Set: CC-PVTZ
  Basis Set:
  Basis Set: CC-PVTZ
  Basis Set:
  @DF-RHF Final Energy:  -290.48764697389777
    Total Energy =                       -290.4876469738977676
  Basis Set: CC-PVTZ
  Basis Set:
  Basis Set: CC-PVTZ
  Basis Set:
  @DF-RHF Final Energy:  -290.48765137382520
    Total Energy =                       -290.4876513738249173
  Basis Set: CC-PVTZ
  Basis Set:
  Charge       = 0
  Multiplicity = 1
  Basis Set: CC-PVTZ
  Basis Set:

    Orbital Energies (a.u.)
    -----------------------

    Doubly Occupied:

       1A    -15.528118     2A    -11.237013     3A    -11.236635
       4A    -11.211894     5A    -11.207747     6A    -11.206264
       7A    -11.204936     8A     -1.205361     9A     -1.057675
      10A     -1.026838    11A     -0.928756    12A     -0.872849
      13A     -0.806539    14A     -0.790841    15A     -0.665795
      16A     -0.639990    17A     -0.615833    18A     -0.602406
      19A     -0.580235    20A     -0.555264    21A     -0.547219
      22A     -0.523406    23A     -0.500347    24A     -0.490103
      25A     -0.481840    26A     -0.472395    27A     -0.462658
      28A     -0.455127    29A     -0.360244

  @DF-RHF Final Energy:  -290.48765194810926

   => Energetics <=

    Nuclear Repulsion Energy =            316.4913895055693729
    One-Electron Energy =               -1019.0094334551397424
    Two-Electron Energy =                 412.0303920014613936
    DFT Exchange-Correlation Energy =       0.0000000000000000
    Empirical Dispersion Energy =           0.0000000000000000
    PCM Polarization Energy =               0.0000000000000000
    EFP Energy =                            0.0000000000000000
    Total Energy =                       -290.4876519481089758
    Molecular point group: c1
  Basis Set: CC-PVTZ
  Basis Set:

  -Total Gradient:
     Atom            X                  Y                   Z
    ------   -----------------  -----------------  -----------------
       1        0.000011474362    -0.000009642003    -0.000007150079
       2       -0.000001607738    -0.000015670355    -0.000018566580
       3        0.000031379116     0.000022974227     0.000046491385
       4       -0.000003299042     0.000008369903     0.000005222295
       5       -0.000008986724     0.000001527326    -0.000004382828
       6        0.000589533297     0.001209298522     0.002500451422
       7        0.000001774777     0.000003305928     0.000024431545
       8        0.000000092471     0.000004228056    -0.000010577225
       9       -0.000166744777    -0.000452850364    -0.002387149651
      10       -0.000494947689    -0.000903432432    -0.001518122095
      11        0.000020259332    -0.000013969443    -0.000021370118
      12        0.000037306373     0.000136734746     0.001408111606
      13       -0.000017613393     0.000017284778    -0.000008211048
      14        0.000012101961     0.000007472971    -0.000000175819
      15       -0.000004722703    -0.000004203811    -0.000010765938
      16        0.000000539579    -0.000001910087    -0.000001301658
      17       -0.000008009825    -0.000006377621     0.000001963068
      18        0.000001846592    -0.000001824960    -0.000000258664
      19        0.000000530802    -0.000003214682     0.000000572674
      20        0.000001409361     0.000001639193     0.000000640473
      21       -0.000001042806    -0.000000024535     0.000000687622
      22       -0.000001273323     0.000000284646    -0.000000540388

  **** Optimization is complete! (in 5 steps) ****
    Final optimized geometry and variables:
    Molecular point group: c1

    Geometry (in Angstrom), charge = 0, multiplicity = 1:

    H            3.591864674971    -1.411852347629    -1.933391768127
    C            3.241255264101    -1.176686762794    -0.935347741245
    C            1.953669282763    -0.361099379190    -0.982086320758
    H            3.096259994640    -2.114044117841    -0.408071645391
    H            4.032556826377    -0.633678208314    -0.428329174258
    C            1.434403672746    -0.000267556213     0.405861271229
    H            1.191528680467    -0.917872036352    -1.518153184221
    H            2.111903629924     0.555866526185    -1.538923479188
    N            0.196900636095     0.759935591170     0.352075735555
    H            1.313245326468    -0.918048074922     0.984682154216
    H            2.184466738531     0.595610109523     0.914590364449
    C           -1.013612617597    -0.033175214028     0.414668160137
    H            0.182870773746     1.435174407080     1.084727757432
    C           -2.255596276097     0.840865769949     0.324400292090
    H           -1.011167227631    -0.732446620312    -0.415058444368
    H           -1.059312694935    -0.636510034427     1.325733156741
    C           -3.550293671009     0.037467947648     0.379348363117
    H           -2.210786793293     1.414101931179    -0.594824205321
    H           -2.244244669296     1.561711664846     1.138610752527
    H           -3.606637136201    -0.671089835858    -0.440324495374
    H           -4.415120272989     0.686913532189     0.312835417909
    H           -3.628860909685    -0.522463802251     1.305274047603

  Mulliken Charges: (a.u.)
   Center  Symbol    Alpha    Beta     Spin     Total
       1     H     0.44779  0.44779  0.00000  0.10443
       2     C     3.15427  3.15427  0.00000 -0.30854
       3     C     3.07040  3.07040  0.00000 -0.14080
       4     H     0.45589  0.45589  0.00000  0.08821
       5     H     0.45598  0.45598  0.00000  0.08804
       6     C     3.04120  3.04120  0.00000 -0.08240
       7     H     0.45730  0.45730  0.00000  0.08541
       8     H     0.45288  0.45288  0.00000  0.09423
       9     N     3.63876  3.63876  0.00000 -0.27752
      10     H     0.47023  0.47023  0.00000  0.05955
      11     H     0.45321  0.45321  0.00000  0.09357
      12     C     3.02449  3.02449  0.00000 -0.04897
      13     H     0.44468  0.44468  0.00000  0.11064
      14     C     3.08200  3.08200  0.00000 -0.16400
      15     H     0.45822  0.45822  0.00000  0.08356
      16     H     0.47224  0.47224  0.00000  0.05551
      17     C     3.15333  3.15333  0.00000 -0.30666
      18     H     0.44898  0.44898  0.00000  0.10204
      19     H     0.45939  0.45939  0.00000  0.08122
      20     H     0.45481  0.45481  0.00000  0.09038
      21     H     0.44769  0.44769  0.00000  0.10462
      22     H     0.45626  0.45626  0.00000  0.08749

   Total alpha = 29.00000, Total beta = 29.00000, Total charge =  0.00000

*** Psi4 exiting successfully. Buy a developer a beer!
