  ==> Input File <==

--------------------------------------------------------------------------
set {
	reference rhf
	basis 6-31G*
}

set_num_threads( 4 )
memory 2 gb

molecule MOL {
0 1

O	 -1.761691	 1.653541	 -1.281179
C	 -1.891638	 0.670339	 -0.617205
C	 -0.889235	 -0.467034	 -0.705952
C	 -3.033316	 0.519614	 0.363218
C	 0.379448	 -0.143569	 0.099626
H	 -0.630827	 -0.596831	 -1.751266
H	 -1.329745	 -1.393535	 -0.348776
C	 1.631333	 -0.777471	 -0.511575
H	 0.482768	 0.934507	 0.149241
H	 0.263088	 -0.495696	 1.123449
C	 2.915987	 -0.544314	 0.291766
H	 1.766672	 -0.399098	 -1.523130
H	 1.471257	 -1.849544	 -0.605828
C	 3.373361	 0.914346	 0.347591
H	 3.708709	 -1.142521	 -0.150311
H	 2.780642	 -0.921148	 1.303579
H	 3.506512	 1.320010	 -0.651625
H	 4.322697	 0.999599	 0.867103
H	 2.660624	 1.545032	 0.868198
H	 -3.692863	 -0.279785	 0.035768
H	 -3.592062	 1.443022	 0.425697
H	 -2.662015	 0.245604	 1.346508

	symmetry c1
}
set optking {
	frozen_dihedral = ("
		6 3 5 8
	")
}

ee = optimize('scf')
oeprop('DIPOLE', 'QUADRUPOLE', 'MULLIKEN_CHARGES')
f=open( 'psi4out.xyz', 'w' )
f.write( "22  " )
f.write( str(ee) + "\n" )
f.write( MOL.save_string_xyz() )
f.close()
--------------------------------------------------------------------------

    Molecular point group: c1
  Charge       = 0
  Multiplicity = 1
  Basis Set: 6-31G*
  Basis Set:
  @DF-RHF Final Energy:  -348.09528912250062
    Total Energy =                       -348.0952891225005033
    Molecular point group: c1
  Basis Set: 6-31G*
  Basis Set:
  Basis Set: 6-31G*
  Basis Set:
  @DF-RHF Final Energy:  -348.09555739296178
    Total Energy =                       -348.0955573929620073
  Basis Set: 6-31G*
  Basis Set:
  Basis Set: 6-31G*
  Basis Set:
  @DF-RHF Final Energy:  -348.09422578369885
    Total Energy =                       -348.0942257836989597
  Basis Set: 6-31G*
  Basis Set:
  Basis Set: 6-31G*
  Basis Set:
  @DF-RHF Final Energy:  -348.09564557029597
    Total Energy =                       -348.0956455702959147
  Basis Set: 6-31G*
  Basis Set:
  @DF-RHF Final Energy:  -348.09560281222764
    Total Energy =                       -348.0956028122271846
  @DF-RHF Final Energy:  -348.09568835812013
    Total Energy =                       -348.0956883581197872
  @DF-RHF Final Energy:  -348.09574606478628
    Total Energy =                       -348.0957460647861126
  @DF-RHF Final Energy:  -348.09575558571333
    Total Energy =                       -348.0957555857133912
  @DF-RHF Final Energy:  -348.09583774223358
    Total Energy =                       -348.0958377422338117
  @DF-RHF Final Energy:  -348.09586786488461
    Total Energy =                       -348.0958678648848945
  Basis Set: 6-31G*
  Basis Set:
  @DF-RHF Final Energy:  -348.09587054170368
    Total Energy =                       -348.0958705417035048
  Basis Set: 6-31G*
  Basis Set:
  Basis Set: 6-31G*
  Basis Set:
  @DF-RHF Final Energy:  -348.09587202355090
    Total Energy =                       -348.0958720235510668
  Basis Set: 6-31G*
  Basis Set:
  Basis Set: 6-31G*
  Basis Set:
  @DF-RHF Final Energy:  -348.09587322838661
    Total Energy =                       -348.0958732283867221
  Basis Set: 6-31G*
  Basis Set:
  Charge       = 0
  Multiplicity = 1
  Basis Set: 6-31G*
  Basis Set:

    Orbital Energies (a.u.)
    -----------------------

    Doubly Occupied:

       1A    -20.547769     2A    -11.324054     3A    -11.232740
       4A    -11.229073     5A    -11.227347     6A    -11.223764
       7A    -11.221870     8A    -11.213051     9A     -1.392886
      10A     -1.097206    11A     -1.045361    12A     -0.997165
      13A     -0.938816    14A     -0.861530    15A     -0.788294
      16A     -0.734322    17A     -0.661294    18A     -0.640226
      19A     -0.631537    20A     -0.616438    21A     -0.602351
      22A     -0.588138    23A     -0.555557    24A     -0.537936
      25A     -0.536854    26A     -0.524845    27A     -0.496573
      28A     -0.489894    29A     -0.470659    30A     -0.466590
      31A     -0.461791    32A     -0.396626

  @DF-RHF Final Energy:  -348.09587418898059

   => Energetics <=

    Nuclear Repulsion Energy =            373.4398266219419611
    One-Electron Energy =               -1211.5662842367196390
    Two-Electron Energy =                 490.0305834257974311
    DFT Exchange-Correlation Energy =       0.0000000000000000
    Empirical Dispersion Energy =           0.0000000000000000
    PCM Polarization Energy =               0.0000000000000000
    EFP Energy =                            0.0000000000000000
    Total Energy =                       -348.0958741889802468
    Molecular point group: c1
  Basis Set: 6-31G*
  Basis Set:

  -Total Gradient:
     Atom            X                  Y                   Z
    ------   -----------------  -----------------  -----------------
       1        0.000000935500    -0.000022847331    -0.000019591427
       2       -0.000013475203     0.000005817882     0.000021773391
       3       -0.000480236046     0.005421051995    -0.001104565096
       4        0.000010777724     0.000024875837    -0.000011706543
       5       -0.000467342762    -0.004035435268     0.001984603348
       6        0.000622130866    -0.003628285126     0.000481869699
       7       -0.000052076397     0.000001681989     0.000050159809
       8        0.000399476472     0.002260776406    -0.001424330987
       9       -0.000016325966     0.000004455689     0.000011597896
      10        0.000007317821    -0.000003274870     0.000010754700
      11        0.000002004253    -0.000003007410     0.000006475640
      12       -0.000000289450    -0.000003226925    -0.000007855031
      13        0.000001376857     0.000005014111     0.000004722661
      14       -0.000000638869     0.000000452012    -0.000000444316
      15       -0.000000753716     0.000000703657     0.000000949088
      16       -0.000000189747    -0.000000539963     0.000000542668
      17        0.000000019785    -0.000000230501    -0.000001177531
      18       -0.000000405498    -0.000000336152    -0.000001781907
      19        0.000001652122    -0.000001701910     0.000001524424
      20       -0.000004964256    -0.000007285750    -0.000005083979
      21       -0.000003699708    -0.000005963761    -0.000000312752
      22       -0.000005293773    -0.000012694609     0.000001876243

  **** Optimization is complete! (in 14 steps) ****
    Final optimized geometry and variables:
    Molecular point group: c1

    Geometry (in Angstrom), charge = 0, multiplicity = 1:

    O           -2.251176407907     1.098534992270    -1.378965690412
    C           -2.019144296953     0.361766849582    -0.469447208613
    C           -0.926106240725    -0.684543015110    -0.559114600863
    C           -2.799779316901     0.438151507050     0.826047354785
    C            0.299607296864    -0.350834333647     0.318541739446
    H           -0.632733230254    -0.780045084369    -1.597300385312
    H           -1.329715509775    -1.648505357295    -0.256212187008
    C            1.591797306798    -0.937418302625    -0.256956857779
    H            0.404055105564     0.728240796794     0.391633394716
    H            0.145049345444    -0.715878035695     1.330350084484
    C            2.825800253199    -0.753308573183     0.632975433384
    H            1.777420627776    -0.489838242324    -1.230834785096
    H            1.447070781923    -2.001706487808    -0.432666286652
    C            3.252885971915     0.701855158008     0.834301801350
    H            3.652181964492    -1.301431651417     0.187741944440
    H            2.643463176438    -1.214795543777     1.601408471731
    H            3.425550461097     1.193584513562    -0.119074705323
    H            4.174589794896     0.756111623247     1.405090391131
    H            2.504836283153     1.275504639000     1.371562556044
    H           -3.348142466544    -0.486902459185     0.981743532321
    H           -3.495051921082     1.264981046681     0.784790287047
    H           -2.134191011714     0.564028743325     1.674359502054

  Mulliken Charges: (a.u.)
   Center  Symbol    Alpha    Beta     Spin     Total
       1     O     4.26070  4.26070  0.00000 -0.52139
       2     C     2.73676  2.73676  0.00000  0.52649
       3     C     3.20319  3.20319  0.00000 -0.40637
       4     C     3.29024  3.29024  0.00000 -0.58048
       5     C     3.16542  3.16542  0.00000 -0.33084
       6     H     0.39879  0.39879  0.00000  0.20242
       7     H     0.41406  0.41406  0.00000  0.17189
       8     C     3.15418  3.15418  0.00000 -0.30835
       9     H     0.41168  0.41168  0.00000  0.17663
      10     H     0.41861  0.41861  0.00000  0.16278
      11     C     3.15385  3.15385  0.00000 -0.30770
      12     H     0.41769  0.41769  0.00000  0.16462
      13     H     0.42040  0.42040  0.00000  0.15921
      14     C     3.24212  3.24212  0.00000 -0.48424
      15     H     0.41879  0.41879  0.00000  0.16243
      16     H     0.42304  0.42304  0.00000  0.15392
      17     H     0.41983  0.41983  0.00000  0.16034
      18     H     0.41781  0.41781  0.00000  0.16438
      19     H     0.42034  0.42034  0.00000  0.15931
      20     H     0.40828  0.40828  0.00000  0.18344
      21     H     0.39665  0.39665  0.00000  0.20670
      22     H     0.40759  0.40759  0.00000  0.18481

   Total alpha = 32.00000, Total beta = 32.00000, Total charge =  0.00000
