  ==> Input File <==

--------------------------------------------------------------------------
set {
	reference rhf
	basis cc-pvtz
}

set_num_threads( 4 )
memory 2 gb

molecule MOL {
0 1

H	 -0.366580	 2.045936	 -0.305741
C	 0.351829	 1.335402	 0.083179
N	 -0.000018	 0.000080	 -0.334836
H	 1.327156	 1.599860	 -0.305475
H	 0.380566	 1.445403	 1.171445
C	 -0.679811	 -0.730309	 0.707657
C	 -0.747205	 -0.000040	 -1.569320
H	 -0.865891	 -1.747058	 0.385652
H	 -0.061503	 -0.769037	 1.595567
H	 -1.639116	 -0.282089	 0.983161
H	 -0.178196	 0.494942	 -2.346111
H	 -0.933441	 -1.017575	 -1.888794
H	 -1.711925	 0.508555	 -1.481247

	symmetry c1
}
set optking {
	frozen_dihedral = ("
		6 3 2 1
	")
}

ee = optimize('scf')
oeprop('DIPOLE', 'QUADRUPOLE', 'MULLIKEN_CHARGES')
f=open( 'psi4out.xyz', 'w' )
f.write( "13  " )
f.write( str(ee) + "\n" )
f.write( MOL.save_string_xyz() )
f.close()
--------------------------------------------------------------------------

    Molecular point group: c1
  Charge       = 0
  Multiplicity = 1
  Basis Set: CC-PVTZ
  Basis Set:
  @DF-RHF Final Energy:  -173.32896255987967
    Total Energy =                       -173.3289625598796988
    Molecular point group: c1
  Basis Set: CC-PVTZ
  Basis Set:
  Basis Set: CC-PVTZ
  Basis Set:
  @DF-RHF Final Energy:  -173.32989360851693
    Total Energy =                       -173.3298936085168975
  Basis Set: CC-PVTZ
  Basis Set:
  Basis Set: CC-PVTZ
  Basis Set:
  @DF-RHF Final Energy:  -173.33003260944366
    Total Energy =                       -173.3300326094437764
  Basis Set: CC-PVTZ
  Basis Set:
  Basis Set: CC-PVTZ
  Basis Set:
  @DF-RHF Final Energy:  -173.33004403336562
    Total Energy =                       -173.3300440333655956
  Basis Set: CC-PVTZ
  Basis Set:
  Charge       = 0
  Multiplicity = 1
  Basis Set: CC-PVTZ
  Basis Set:

    Orbital Energies (a.u.)
    -----------------------

    Doubly Occupied:

       1A    -15.535305     2A    -11.234317     3A    -11.234208
       4A    -11.233980     5A     -1.222982     6A     -0.953326
       7A     -0.952112     8A     -0.805666     9A     -0.639083
      10A     -0.631815    11A     -0.629662    12A     -0.548205
      13A     -0.542731    14A     -0.516740    15A     -0.504400
      16A     -0.502433    17A     -0.340496

  @DF-RHF Final Energy:  -173.33004493481883

   => Energetics <=

    Nuclear Repulsion Energy =            139.0325323090034431
    One-Electron Energy =                -508.6702322871332740
    Two-Electron Energy =                 196.3076550433109730
    DFT Exchange-Correlation Energy =       0.0000000000000000
    Empirical Dispersion Energy =           0.0000000000000000
    PCM Polarization Energy =               0.0000000000000000
    EFP Energy =                            0.0000000000000000
    Total Energy =                       -173.3300449348188579
    Molecular point group: c1
  Basis Set: CC-PVTZ
  Basis Set:

  -Total Gradient:
     Atom            X                  Y                   Z
    ------   -----------------  -----------------  -----------------
       1        0.002525386922     0.000472123640    -0.004112466378
       2       -0.001916244310    -0.001089455123     0.005805255905
       3       -0.003905527152     0.001912900248    -0.002772781356
       4       -0.000013323207    -0.000001632560    -0.000020224119
       5        0.000004829528    -0.000015986420    -0.000000499446
       6        0.003288641764    -0.001267023279     0.001137690552
       7        0.000013505990     0.000004519814    -0.000027509966
       8        0.000000476067     0.000007686575    -0.000003229801
       9       -0.000001284737    -0.000013223513     0.000018305584
      10        0.000008982771    -0.000004099125    -0.000011065645
      11       -0.000011266322    -0.000000859851    -0.000010686564
      12       -0.000005552490    -0.000001751434    -0.000014749582
      13        0.000011375175    -0.000003198970     0.000011960815

  **** Optimization is complete! (in 5 steps) ****
    Final optimized geometry and variables:
    Molecular point group: c1

    Geometry (in Angstrom), charge = 0, multiplicity = 1:

    H           -0.048554360869     1.951913042366     0.009237234911
    C            0.651050767993     1.187370355677     0.349957452337
    N            0.252781694965    -0.146591896479    -0.046684742763
    H            1.614389116146     1.437389273115    -0.083894084339
    H            0.745308354809     1.257589878058     1.424522899222
    C           -0.397791671286    -0.903518963530     0.992344737402
    C           -0.442930091634    -0.174527292987    -1.305656214683
    H           -0.570653963097    -1.917136595409     0.652088170098
    H            0.236945375332    -0.952789807040     1.867484036822
    H           -1.362990656430    -0.486121360194     1.297476436133
    H            0.147391415135     0.324633395928    -2.064662415452
    H           -0.595742463437    -1.197827894757    -1.625398832074
    H           -1.419950185998     0.317445904416    -1.264536624130

  Mulliken Charges: (a.u.)
   Center  Symbol    Alpha    Beta     Spin     Total
       1     H     0.46964  0.46964  0.00000  0.06071
       2     C     3.08711  3.08711  0.00000 -0.17423
       3     N     3.59740  3.59740  0.00000 -0.19480
       4     H     0.45174  0.45174  0.00000  0.09652
       5     H     0.45582  0.45582  0.00000  0.08836
       6     C     3.08840  3.08840  0.00000 -0.17680
       7     C     3.08978  3.08978  0.00000 -0.17957
       8     H     0.45359  0.45359  0.00000  0.09281
       9     H     0.45271  0.45271  0.00000  0.09459
      10     H     0.47429  0.47429  0.00000  0.05143
      11     H     0.45265  0.45265  0.00000  0.09470
      12     H     0.45353  0.45353  0.00000  0.09294
      13     H     0.47333  0.47333  0.00000  0.05334

   Total alpha = 17.00000, Total beta = 17.00000, Total charge =  0.00000
