  ==> Input File <==

--------------------------------------------------------------------------
set {
	reference rhf
	basis cc-pvtz
}

set_num_threads( 4 )
memory 2 gb

molecule MOL {
0 1

H	 2.746456	 0.092353	 0.886453
N	 2.326826	 -0.066186	 0.000000
C	 0.934676	 -0.005420	 0.000000
H	 2.763278	 0.477763	 -0.707567
C	 0.226436	 -0.001077	 -1.195129
C	 0.226436	 -0.001077	 1.195129
H	 0.759091	 -0.011439	 -2.128123
C	 -1.153391	 0.009141	 -1.189028
H	 0.759091	 -0.011439	 2.128123
C	 -1.153391	 0.009141	 1.189028
H	 -1.680905	 0.012964	 -2.124348
C	 -1.857876	 0.014675	 0.000000
H	 -1.680905	 0.012964	 2.124348
H	 -2.930222	 0.022904	 0.000000

	symmetry c1
}
set optking {
	frozen_dihedral = ("
		1 2 3 5
	")
}

ee = optimize('scf')
oeprop('DIPOLE', 'QUADRUPOLE', 'MULLIKEN_CHARGES')
f=open( 'psi4out.xyz', 'w' )
f.write( "14  " )
f.write( str(ee) + "\n" )
f.write( MOL.save_string_xyz() )
f.close()
--------------------------------------------------------------------------

    Molecular point group: c1
  Charge       = 0
  Multiplicity = 1
  Basis Set: CC-PVTZ
  Basis Set:
  @DF-RHF Final Energy:  -285.83326414207738
    Total Energy =                       -285.8332641420774394
    Molecular point group: c1
  Basis Set: CC-PVTZ
  Basis Set:
  Basis Set: CC-PVTZ
  Basis Set:
  @DF-RHF Final Energy:  -285.83332586883586
    Total Energy =                       -285.8333258688359138
  Basis Set: CC-PVTZ
  Basis Set:
  Basis Set: CC-PVTZ
  Basis Set:
  @DF-RHF Final Energy:  -285.83334184117524
    Total Energy =                       -285.8333418411752405
  Basis Set: CC-PVTZ
  Basis Set:
  Basis Set: CC-PVTZ
  Basis Set:
  @DF-RHF Final Energy:  -285.83334582478170
    Total Energy =                       -285.8333458247819294
  Basis Set: CC-PVTZ
  Basis Set:
  Charge       = 0
  Multiplicity = 1
  Basis Set: CC-PVTZ
  Basis Set:

    Orbital Energies (a.u.)
    -----------------------

    Doubly Occupied:

       1A    -15.555171     2A    -11.270687     3A    -11.226924
       4A    -11.226778     5A    -11.215643     6A    -11.215009
       7A    -11.210958     8A     -1.226263     9A     -1.130278
      10A     -1.013185    11A     -0.987763    12A     -0.832567
      13A     -0.813547    14A     -0.708246    15A     -0.688806
      16A     -0.654787    17A     -0.600092    18A     -0.595338
      19A     -0.581687    20A     -0.532704    21A     -0.506357
      22A     -0.487343    23A     -0.447153    24A     -0.335978
      25A     -0.294391

  @DF-RHF Final Energy:  -285.83334654031995

   => Energetics <=

    Nuclear Repulsion Energy =            273.7306565065003383
    One-Electron Energy =                -928.4126954467549240
    Two-Electron Energy =                 368.8486923999346345
    DFT Exchange-Correlation Energy =       0.0000000000000000
    Empirical Dispersion Energy =           0.0000000000000000
    PCM Polarization Energy =               0.0000000000000000
    EFP Energy =                            0.0000000000000000
    Total Energy =                       -285.8333465403200080
    Molecular point group: c1
  Basis Set: CC-PVTZ
  Basis Set:

  -Total Gradient:
     Atom            X                  Y                   Z
    ------   -----------------  -----------------  -----------------
       1       -0.000101533947    -0.001881061433     0.000371598579
       2        0.000186864894     0.001711833472    -0.000502302391
       3       -0.000039677559     0.001611713996     0.000167822132
       4       -0.000021714983     0.000001624526     0.000006777698
       5       -0.000092081366    -0.001442022557    -0.000013187821
       6        0.000110209339    -0.000013538073    -0.000050950896
       7        0.000013065512    -0.000005046188     0.000008552340
       8        0.000047421142     0.000020402332    -0.000041367975
       9       -0.000013335639    -0.000003123491    -0.000003425738
      10       -0.000092318815     0.000031583921    -0.000034357440
      11       -0.000002067827    -0.000001855849     0.000008641033
      12        0.000018637312    -0.000024349474     0.000076763743
      13       -0.000008848806    -0.000003128444    -0.000003478408
      14       -0.000004619260    -0.000003032740     0.000008915145

  **** Optimization is complete! (in 5 steps) ****
    Final optimized geometry and variables:
    Molecular point group: c1

    Geometry (in Angstrom), charge = 0, multiplicity = 1:

    H            2.757501537246     0.100050143358     0.875504854919
    N            2.326171217922    -0.060902439329    -0.003936786602
    C            0.934741173163     0.002166302944     0.003126380498
    H            2.769682862961     0.441502534369    -0.736658499306
    C            0.228868017726     0.001409915271    -1.194799748448
    C            0.223764957497    -0.001373209730     1.195376110974
    H            0.765713212349    -0.015207741750    -2.125028098613
    C           -1.149743064681     0.013308718271    -1.192161837802
    H            0.752881772007    -0.006244012836     2.130519534397
    C           -1.157428891513    -0.000775434388     1.186041277784
    H           -1.675357850031     0.016915185640    -2.128541265081
    C           -1.857901024357     0.010342930062    -0.003821191969
    H           -1.687191921248    -0.004184276900     2.120090436583
    H           -2.930283169736     0.014753987365    -0.006901060031

  Mulliken Charges: (a.u.)
   Center  Symbol    Alpha    Beta     Spin     Total
       1     H     0.42310  0.42310  0.00000  0.15381
       2     N     3.67208  3.67208  0.00000 -0.34415
       3     C     2.88641  2.88641  0.00000  0.22719
       4     H     0.41897  0.41897  0.00000  0.16206
       5     C     3.11636  3.11636  0.00000 -0.23273
       6     C     3.11960  3.11960  0.00000 -0.23920
       7     H     0.43221  0.43221  0.00000  0.13558
       8     C     3.05808  3.05808  0.00000 -0.11617
       9     H     0.43532  0.43532  0.00000  0.12936
      10     C     3.05834  3.05834  0.00000 -0.11668
      11     H     0.42473  0.42473  0.00000  0.15053
      12     C     3.10459  3.10459  0.00000 -0.20917
      13     H     0.42482  0.42482  0.00000  0.15036
      14     H     0.42540  0.42540  0.00000  0.14921

   Total alpha = 25.00000, Total beta = 25.00000, Total charge = -0.00000
