  ==> Input File <==

--------------------------------------------------------------------------
set {
	reference rhf
	basis 6-31G*
}

set_num_threads( 4 )
memory 2 gb

molecule MOL {
0 1

H	 -2.009307	 1.502754	 3.880611
O	 -1.310095	 0.933302	 3.592981
C	 -1.173363	 1.020826	 2.197906
C	 -0.045548	 0.097161	 1.772908
H	 -2.099391	 0.730802	 1.703269
H	 -0.950268	 2.043943	 1.898239
C	 0.198102	 0.111031	 0.262842
H	 -0.284910	 -0.909611	 2.104336
H	 0.856475	 0.393454	 2.301151
C	 1.331804	 -0.827780	 -0.158768
H	 -0.720372	 -0.164095	 -0.249880
H	 0.436822	 1.124355	 -0.057635
C	 2.723619	 -0.410569	 0.329459
H	 1.342964	 -0.912588	 -1.244120
H	 1.116806	 -1.824343	 0.220779
C	 3.243875	 0.895854	 -0.272975
H	 3.424222	 -1.207124	 0.091250
H	 2.714788	 -0.329854	 1.414619
H	 3.251977	 0.848779	 -1.358681
H	 2.637085	 1.747371	 0.016682
H	 4.259473	 1.094070	 0.055697

	symmetry c1
}
set optking {
	frozen_dihedral = ("
		4 7 10 14
	")
}

ee = optimize('scf')
oeprop('DIPOLE', 'QUADRUPOLE', 'MULLIKEN_CHARGES')
f=open( 'psi4out.xyz', 'w' )
f.write( "21  " )
f.write( str(ee) + "\n" )
f.write( MOL.save_string_xyz() )
f.close()
--------------------------------------------------------------------------

    Molecular point group: c1
  Charge       = 0
  Multiplicity = 1
  Basis Set: 6-31G*
  Basis Set:
  @DF-RHF Final Energy:  -310.21073760873520
    Total Energy =                       -310.2107376087348030
    Molecular point group: c1
  Basis Set: 6-31G*
  Basis Set:
  Basis Set: 6-31G*
  Basis Set:
  @DF-RHF Final Energy:  -310.21118216921002
    Total Energy =                       -310.2111821692098488
  Basis Set: 6-31G*
  Basis Set:
  Basis Set: 6-31G*
  Basis Set:
  @DF-RHF Final Energy:  -310.21132025144084
    Total Energy =                       -310.2113202514406112
  Basis Set: 6-31G*
  Basis Set:
  Basis Set: 6-31G*
  Basis Set:
  @DF-RHF Final Energy:  -310.21131194369696
    Total Energy =                       -310.2113119436970692
  Basis Set: 6-31G*
  Basis Set:
  Basis Set: 6-31G*
  Basis Set:
  @DF-RHF Final Energy:  -310.21132534729315
    Total Energy =                       -310.2113253472930978
  Basis Set: 6-31G*
  Basis Set:
  Basis Set: 6-31G*
  Basis Set:
  @DF-RHF Final Energy:  -310.21132652934870
    Total Energy =                       -310.2113265293490372
  Basis Set: 6-31G*
  Basis Set:
  Charge       = 0
  Multiplicity = 1
  Basis Set: 6-31G*
  Basis Set:

    Orbital Energies (a.u.)
    -----------------------

    Doubly Occupied:

       1A    -20.551965     2A    -11.267223     3A    -11.215747
       4A    -11.214121     5A    -11.213503     6A    -11.210434
       7A    -11.207546     8A     -1.358802     9A     -1.085866
      10A     -1.030397    11A     -0.955537    12A     -0.875309
      13A     -0.818141    14A     -0.766448    15A     -0.690287
      16A     -0.659569    17A     -0.626735    18A     -0.614790
      19A     -0.573450    20A     -0.558870    21A     -0.555247
      22A     -0.526117    23A     -0.500171    24A     -0.490893
      25A     -0.479825    26A     -0.457085    27A     -0.449085
      28A     -0.446635    29A     -0.434012

  @DF-RHF Final Energy:  -310.21132655358861

   => Energetics <=

    Nuclear Repulsion Energy =            317.6505675441235326
    One-Electron Energy =               -1050.0561678886617756
    Two-Electron Energy =                 422.1942737909499215
    DFT Exchange-Correlation Energy =       0.0000000000000000
    Empirical Dispersion Energy =           0.0000000000000000
    PCM Polarization Energy =               0.0000000000000000
    EFP Energy =                            0.0000000000000000
    Total Energy =                       -310.2113265535883215
    Molecular point group: c1
  Basis Set: 6-31G*
  Basis Set:

  -Total Gradient:
     Atom            X                  Y                   Z
    ------   -----------------  -----------------  -----------------
       1        0.000001391258     0.000000203823    -0.000010316224
       2        0.000016469793    -0.000011048119    -0.000013146627
       3       -0.000019661687     0.000001303325    -0.000012202971
       4       -0.000512964292    -0.000582441445    -0.000053488791
       5       -0.000007873224     0.000003508547     0.000001263366
       6       -0.000000369082     0.000002123165     0.000006058284
       7        0.000592452051     0.000634952591     0.000133491013
       8        0.000005856124    -0.000004694471     0.000002115463
       9       -0.000001834306    -0.000000775379    -0.000002752853
      10        0.000588043459     0.000764870211    -0.000135502189
      11        0.000010729011    -0.000005383381     0.000003118476
      12        0.000013052913    -0.000002384088    -0.000012068128
      13        0.000008025309     0.000005282973     0.000028960499
      14       -0.000681683860    -0.000816178049     0.000059858690
      15        0.000001459765     0.000015438256     0.000005562171
      16       -0.000019479263     0.000003969913     0.000004115383
      17       -0.000010649769    -0.000009125010    -0.000003780119
      18        0.000020287828     0.000003197303    -0.000001234818
      19        0.000000339978    -0.000002872088     0.000000152786
      20        0.000000538164     0.000008972481    -0.000003296779
      21       -0.000004130163    -0.000008920561     0.000003093364

  **** Optimization is complete! (in 7 steps) ****
    Final optimized geometry and variables:
    Molecular point group: c1

    Geometry (in Angstrom), charge = 0, multiplicity = 1:

    H           -2.756053910134     1.202003379871     2.698461465483
    O           -2.021587957510     0.667460535668     2.432464115972
    C           -1.884768440687     0.714428496567     1.035458727776
    C           -0.701836582501    -0.154453563315     0.645294248735
    H           -2.789834040060     0.352686609168     0.549461532005
    H           -1.721904329595     1.738115998597     0.700764939388
    C           -0.454372488550    -0.165721628009    -0.865050560634
    H           -0.887220876357    -1.164797342117     1.000078558669
    H            0.170825596974     0.208827610696     1.178825540128
    C            0.665491194367    -1.115106381570    -1.311023909710
    H           -1.370575695973    -0.471508209900    -1.366887597880
    H           -0.248154734522     0.844015593238    -1.211561996918
    C            2.085506123841    -0.744602502796    -0.864414397766
    H            0.646115084533    -1.187711250244    -2.396659419411
    H            0.436717302951    -2.113150854652    -0.942663765706
    C            2.599339716341     0.583092588511    -1.424006532426
    H            2.755148580002    -1.539603591596    -1.183367749400
    H            2.141791064309    -0.725472565355     0.220498192444
    H            2.544508224162     0.597689517865    -2.509316270453
    H            2.029587528162     1.428869482989    -1.053088406321
    H            3.635969914306     0.743097522252    -1.143971595823

  Mulliken Charges: (a.u.)
   Center  Symbol    Alpha    Beta     Spin     Total
       1     H     0.28117  0.28117  0.00000  0.43766
       2     O     4.37186  4.37186  0.00000 -0.74373
       3     C     2.98935  2.98935  0.00000  0.02130
       4     C     3.16103  3.16103  0.00000 -0.32206
       5     H     0.43276  0.43276  0.00000  0.13449
       6     H     0.43303  0.43303  0.00000  0.13394
       7     C     3.16360  3.16360  0.00000 -0.32720
       8     H     0.41519  0.41519  0.00000  0.16963
       9     H     0.41316  0.41316  0.00000  0.17368
      10     C     3.15314  3.15314  0.00000 -0.30628
      11     H     0.42215  0.42215  0.00000  0.15571
      12     H     0.42136  0.42136  0.00000  0.15729
      13     C     3.15454  3.15454  0.00000 -0.30909
      14     H     0.42241  0.42241  0.00000  0.15517
      15     H     0.42143  0.42143  0.00000  0.15714
      16     C     3.24108  3.24108  0.00000 -0.48217
      17     H     0.42079  0.42079  0.00000  0.15842
      18     H     0.41962  0.41962  0.00000  0.16077
      19     H     0.42247  0.42247  0.00000  0.15505
      20     H     0.42096  0.42096  0.00000  0.15809
      21     H     0.41890  0.41890  0.00000  0.16220

   Total alpha = 29.00000, Total beta = 29.00000, Total charge = -0.00000
