                              Psi4 1.0.54 Driver

  ==> Input File <==

--------------------------------------------------------------------------
set {
	reference rhf
	basis cc-pvtz
}

set_num_threads( 4 )
memory 2 gb

molecule MOL {
0 1

H	 -3.144994	 -1.202467	 -0.018751
O	 -2.321472	 -0.864941	 -0.318626
C	 -2.021813	 0.336996	 0.342658
C	 -0.669613	 0.837286	 -0.127252
H	 -2.780861	 1.084746	 0.127159
H	 -2.006390	 0.184138	 1.420053
C	 0.490865	 -0.082543	 0.241244
H	 -0.708709	 0.967192	 -1.204587
H	 -0.507562	 1.822272	 0.303070
C	 1.839800	 0.429565	 -0.255472
H	 0.305636	 -1.070211	 -0.165276
H	 0.527397	 -0.195943	 1.322876
C	 2.711587	 0.996313	 0.860132
H	 2.369988	 -0.380119	 -0.749450
H	 1.680741	 1.194486	 -1.011307
H	 2.917791	 0.244368	 1.614436
H	 3.662005	 1.349317	 0.476209
H	 2.223544	 1.830994	 1.352642

	symmetry c1
}
set optking {
	frozen_dihedral = ("
		14 10 7 11
	")
}

ee,wfn = optimize('scf', return_wfn=True)
oeprop( wfn, 'DIPOLE', 'QUADRUPOLE', 'MULLIKEN_CHARGES')
f=open( 'psi4out.xyz', 'w' )
f.write( "18  " )
f.write( str(ee) + "\n" )
f.write( MOL.save_string_xyz() )
f.close()
--------------------------------------------------------------------------

    Molecular point group: c1
  Charge       = 0
  Multiplicity = 1
  Basis Set: CC-PVTZ
  Basis Set:
  @DF-RHF Final Energy:  -271.28151878647230
    Total Energy =                       -271.2815187864721338
    Molecular point group: c1
  Basis Set: CC-PVTZ
  Basis Set:
  Basis Set: CC-PVTZ
  Basis Set:
  @DF-RHF Final Energy:  -271.28182252482196
    Total Energy =                       -271.2818225248219051
  Basis Set: CC-PVTZ
  Basis Set:
  Basis Set: CC-PVTZ
  Basis Set:
  @DF-RHF Final Energy:  -271.28190975934302
    Total Energy =                       -271.2819097593429092
  Basis Set: CC-PVTZ
  Basis Set:
  Basis Set: CC-PVTZ
  Basis Set:
  @DF-RHF Final Energy:  -271.28191082026217
    Total Energy =                       -271.2819108202623397
  Basis Set: CC-PVTZ
  Basis Set:
  Charge       = 0
  Multiplicity = 1
  Basis Set: CC-PVTZ
  Basis Set:

    Orbital Energies (a.u.)
    -----------------------

    Doubly Occupied:

       1A    -20.546200     2A    -11.265839     3A    -11.211081
       4A    -11.209008     5A    -11.204789     6A    -11.204545
       7A     -1.364099     8A     -1.075026     9A     -1.009203
      10A     -0.914796    11A     -0.823493    12A     -0.782364
      13A     -0.708265    14A     -0.638777    15A     -0.616652
      16A     -0.602840    17A     -0.572808    18A     -0.550688
      19A     -0.520854    20A     -0.508739    21A     -0.495250
      22A     -0.464444    23A     -0.453551    24A     -0.449350
      25A     -0.431045

  @DF-RHF Final Energy:  -271.28191105311191

   => Energetics <=

    Nuclear Repulsion Energy =            250.0421236001433272
    One-Electron Energy =                -863.4006551260183642
    Two-Electron Energy =                 342.0766204727627269
    DFT Exchange-Correlation Energy =       0.0000000000000000
    Empirical Dispersion Energy =           0.0000000000000000
    PCM Polarization Energy =               0.0000000000000000
    EFP Energy =                            0.0000000000000000
    Total Energy =                       -271.2819110531123101
    Molecular point group: c1
  Basis Set: CC-PVTZ
  Basis Set:

  -Total Gradient:
     Atom            X                  Y                   Z
    ------   -----------------  -----------------  -----------------
       1        0.000003937232     0.000001135922     0.000001001600
       2       -0.000013371496    -0.000002300242    -0.000008427835
       3        0.000001258072     0.000006044324     0.000022370755
       4        0.000011862406    -0.000006594371    -0.000013157237
       5       -0.000010343680    -0.000004885113     0.000001098768
       6       -0.000002562440     0.000001262287    -0.000005867144
       7       -0.001670057146     0.001695790146    -0.003362725072
       8        0.000005220145    -0.000001939918     0.000001383938
       9        0.000007202722    -0.000015986441    -0.000003929409
      10        0.001576437002    -0.001252795390     0.003594717262
      11        0.001156485511    -0.001189496997     0.002221160016
      12        0.000002141177     0.000004779690     0.000005446605
      13        0.000001904396     0.000005505618    -0.000000174088
      14       -0.001061235536     0.000762766354    -0.002432556380
      15       -0.000000948719     0.000008584287     0.000002091068
      16       -0.000006089843     0.000001358396    -0.000012244979
      17        0.000000300281     0.000000910109    -0.000001407989
      18       -0.000002140079    -0.000014138664    -0.000008779879

  **** Optimization is complete! (in 5 steps) ****
    Final optimized geometry and variables:
    Molecular point group: c1

    Geometry (in Angstrom), charge = 0, multiplicity = 1:

    H           -3.122927091210    -1.408407500896    -0.152148323394
    O           -2.293020660063    -1.089815694266    -0.454855824412
    C           -1.968380421602     0.110062654518     0.198222690083
    C           -0.608747188321     0.581535730615    -0.279133121881
    H           -2.713773957253     0.870976754081    -0.019163732219
    H           -1.951894590744    -0.036647072193     1.276405718627
    C            0.535329987443    -0.362661099965     0.080891097926
    H           -0.649508548424     0.713197108451    -1.355964562435
    H           -0.423319843612     1.562655059535     0.151183333053
    C            1.918789301037     0.156969980547    -0.353608782931
    H            0.348128651095    -1.338723896273    -0.346601957083
    H            0.535368242882    -0.514910626360     1.157902758060
    C            2.746288669852     0.733273032974     0.790832536680
    H            2.473239001127    -0.635484273900    -0.844247486655
    H            1.789760587536     0.923325175059    -1.112858855718
    H            2.960763176974    -0.024466919560     1.536850398156
    H            3.692247227355     1.126006348194     0.435142250250
    H            2.218869325770     1.542074820598     1.286674346288

  Mulliken Charges: (a.u.)
   Center  Symbol    Alpha    Beta     Spin     Total
       1     H     0.39581  0.39581  0.00000  0.20838
       2     O     4.19857  4.19857  0.00000 -0.39715
       3     C     2.97429  2.97429  0.00000  0.05141
       4     C     3.09001  3.09001  0.00000 -0.18002
       5     H     0.46564  0.46564  0.00000  0.06873
       6     H     0.47348  0.47348  0.00000  0.05305
       7     C     3.09560  3.09560  0.00000 -0.19120
       8     H     0.45152  0.45152  0.00000  0.09696
       9     H     0.45396  0.45396  0.00000  0.09207
      10     C     3.08988  3.08988  0.00000 -0.17976
      11     H     0.43839  0.43839  0.00000  0.12321
      12     H     0.46028  0.46028  0.00000  0.07944
      13     C     3.14711  3.14711  0.00000 -0.29422
      14     H     0.44806  0.44806  0.00000  0.10388
      15     H     0.45651  0.45651  0.00000  0.08697
      16     H     0.45489  0.45489  0.00000  0.09023
      17     H     0.44961  0.44961  0.00000  0.10078
      18     H     0.45638  0.45638  0.00000  0.08724

   Total alpha = 25.00000, Total beta = 25.00000, Total charge = -0.00000

*** Psi4 exiting successfully. Buy a developer a beer!
