  ==> Input File <==

--------------------------------------------------------------------------
set {
	reference rhf
	basis 6-31G*
}

set_num_threads( 4 )
memory 2 gb

molecule MOL {
0 1

H	 1.019903	 2.498665	 0.369703
O	 1.299894	 1.661738	 0.714682
C	 0.709265	 0.639550	 -0.033818
C	 -0.793441	 0.596080	 0.058728
H	 1.124230	 -0.288825	 0.341850
H	 1.000684	 0.708997	 -1.081328
C	 -1.530462	 -0.493172	 -0.025500
H	 -1.268471	 1.554324	 0.202247
H	 -1.092586	 -1.461565	 -0.186463
H	 -2.602122	 -0.450675	 0.050101

	symmetry c1
}
set optking {
	frozen_dihedral = ("
		5 3 4 7
	")
}

ee = optimize('scf')
oeprop('DIPOLE', 'QUADRUPOLE', 'MULLIKEN_CHARGES')
f=open( 'psi4out.xyz', 'w' )
f.write( "10  " )
f.write( str(ee) + "\n" )
f.write( MOL.save_string_xyz() )
f.close()
--------------------------------------------------------------------------

    Molecular point group: c1
  Charge       = 0
  Multiplicity = 1
  Basis Set: 6-31G*
  Basis Set:
  @DF-RHF Final Energy:  -191.91346289946216
    Total Energy =                       -191.9134628994623313
    Molecular point group: c1
  Basis Set: 6-31G*
  Basis Set:
  Basis Set: 6-31G*
  Basis Set:
  @DF-RHF Final Energy:  -191.91392015662896
    Total Energy =                       -191.9139201566289330
  Basis Set: 6-31G*
  Basis Set:
  Basis Set: 6-31G*
  Basis Set:
  @DF-RHF Final Energy:  -191.91398031056065
    Total Energy =                       -191.9139803105606745
  Basis Set: 6-31G*
  Basis Set:
  Basis Set: 6-31G*
  Basis Set:
  @DF-RHF Final Energy:  -191.91398574036367
    Total Energy =                       -191.9139857403636142
  Basis Set: 6-31G*
  Basis Set:
  Charge       = 0
  Multiplicity = 1
  Basis Set: 6-31G*
  Basis Set:

    Orbital Energies (a.u.)
    -----------------------

    Doubly Occupied:

       1A    -20.558483     2A    -11.277510     3A    -11.231701
       4A    -11.222172     5A     -1.365795     6A     -1.061934
       7A     -0.919860     8A     -0.778093     9A     -0.692763
      10A     -0.648442    11A     -0.621110    12A     -0.570351
      13A     -0.531715    14A     -0.501157    15A     -0.443064
      16A     -0.366516

  @DF-RHF Final Energy:  -191.91398658529752

   => Energetics <=

    Nuclear Repulsion Energy =            116.9967947387587799
    One-Electron Energy =                -492.2402326782284945
    Two-Electron Energy =                 183.3294513541722495
    DFT Exchange-Correlation Energy =       0.0000000000000000
    Empirical Dispersion Energy =           0.0000000000000000
    PCM Polarization Energy =               0.0000000000000000
    EFP Energy =                            0.0000000000000000
    Total Energy =                       -191.9139865852974367
    Molecular point group: c1
  Basis Set: 6-31G*
  Basis Set:

  -Total Gradient:
     Atom            X                  Y                   Z
    ------   -----------------  -----------------  -----------------
       1       -0.000019994500     0.000000981365    -0.000015346166
       2        0.000072144193     0.000034929760     0.000061361049
       3       -0.000258908284    -0.000859677643    -0.003026179588
       4        0.000234126589    -0.000161504169     0.002920728766
       5        0.000093698279     0.000729980305     0.001693188362
       6        0.000001271709     0.000023287370     0.000028956584
       7       -0.000099522682     0.000261765402    -0.001711008012
       8       -0.000008818133    -0.000011204905     0.000021515612
       9       -0.000013008304    -0.000004208523     0.000027027347
      10       -0.000000988868    -0.000014348964    -0.000000243953

  **** Optimization is complete! (in 5 steps) ****
    Final optimized geometry and variables:
    Molecular point group: c1

    Geometry (in Angstrom), charge = 0, multiplicity = 1:

    H            1.090632876474     1.842968161901     0.168167360725
    O            1.291697816001     0.997041287213     0.543065787715
    C            0.719599660375    -0.015845985792    -0.244178747951
    C           -0.783736026543    -0.055098848529    -0.132382447750
    H            1.145522546438    -0.943124100049     0.113824946972
    H            1.012939094659     0.104814890112    -1.285579857446
    C           -1.516327848080    -1.146624850313    -0.219115620494
    H           -1.267584852380     0.902833851825    -0.016980265143
    H           -1.073391912374    -2.122298876751    -0.330473395525
    H           -2.589982814999    -1.111569044757    -0.175185132462

  Mulliken Charges: (a.u.)
   Center  Symbol    Alpha    Beta     Spin     Total
       1     H     0.28220  0.28220  0.00000  0.43560
       2     O     4.36798  4.36798  0.00000 -0.73597
       3     C     3.00969  3.00969  0.00000 -0.01938
       4     C     3.07693  3.07693  0.00000 -0.15386
       5     H     0.40789  0.40789  0.00000  0.18423
       6     H     0.42201  0.42201  0.00000  0.15598
       7     C     3.19910  3.19910  0.00000 -0.39821
       8     H     0.41160  0.41160  0.00000  0.17681
       9     H     0.41305  0.41305  0.00000  0.17390
      10     H     0.40955  0.40955  0.00000  0.18089

   Total alpha = 16.00000, Total beta = 16.00000, Total charge = -0.00000
