                              Psi4 1.0.54 Driver

  ==> Input File <==

--------------------------------------------------------------------------
set {
	reference rhf
	basis cc-pvtz
}

set_num_threads( 4 )
memory 2 gb

molecule MOL {
0 1

H	 1.663011	 -4.661835	 -3.267553
C	 1.701250	 -3.821945	 -2.601792
C	 0.704122	 -3.626013	 -1.656711
C	 2.738682	 -2.921428	 -2.670197
H	 -0.113467	 -4.318419	 -1.588485
C	 0.749178	 -2.551283	 -0.801756
H	 3.519349	 -3.056338	 -3.394799
C	 2.799679	 -1.830481	 -1.814321
H	 -0.016089	 -2.390821	 -0.068074
C	 1.801065	 -1.644288	 -0.876141
H	 3.620238	 -1.147872	 -1.892994
O	 1.760432	 -0.625184	 0.000000
C	 2.773565	 0.334879	 0.000000
H	 2.728295	 0.960928	 -0.884150
H	 3.706387	 -0.206610	 0.000000
H	 2.728295	 0.960928	 0.884150

	symmetry c1
}
set optking {
	frozen_dihedral = ("
		10 12 13 14
	")
}

ee,wfn = optimize('scf', return_wfn=True)
oeprop( wfn, 'DIPOLE', 'QUADRUPOLE', 'MULLIKEN_CHARGES')
f=open( 'psi4out.xyz', 'w' )
f.write( "16  " )
f.write( str(ee) + "\n" )
f.write( MOL.save_string_xyz() )
f.close()
--------------------------------------------------------------------------

    Molecular point group: c1
  Charge       = 0
  Multiplicity = 1
  Basis Set: CC-PVTZ
  Basis Set:
  @DF-RHF Final Energy:  -344.70110883715046
    Total Energy =                       -344.7011088371501728
    Molecular point group: c1
  Basis Set: CC-PVTZ
  Basis Set:
  Basis Set: CC-PVTZ
  Basis Set:
  @DF-RHF Final Energy:  -344.70287415523848
    Total Energy =                       -344.7028741552383053
  Basis Set: CC-PVTZ
  Basis Set:
  Basis Set: CC-PVTZ
  Basis Set:
  @DF-RHF Final Energy:  -344.70356758068203
    Total Energy =                       -344.7035675806822042
  Basis Set: CC-PVTZ
  Basis Set:
  Basis Set: CC-PVTZ
  Basis Set:
  @DF-RHF Final Energy:  -344.70357602565065
    Total Energy =                       -344.7035760256508183
  Basis Set: CC-PVTZ
  Basis Set:
  Basis Set: CC-PVTZ
  Basis Set:
  @DF-RHF Final Energy:  -344.70357708264061
    Total Energy =                       -344.7035770826407770
  Basis Set: CC-PVTZ
  Basis Set:
  Charge       = 0
  Multiplicity = 1
  Basis Set: CC-PVTZ
  Basis Set:

    Orbital Energies (a.u.)
    -----------------------

    Doubly Occupied:

       1A    -20.580418     2A    -11.293685     3A    -11.278505
       4A    -11.231232     5A    -11.229987     6A    -11.221805
       7A    -11.217977     8A    -11.216887     9A     -1.419831
      10A     -1.150937    11A     -1.025730    12A     -1.016642
      13A     -0.944308    14A     -0.834579    15A     -0.808268
      16A     -0.726167    17A     -0.667689    18A     -0.666407
      19A     -0.661168    20A     -0.619288    21A     -0.590138
      22A     -0.579435    23A     -0.528586    24A     -0.523396
      25A     -0.512338    26A     -0.479132    27A     -0.467327
      28A     -0.339750    29A     -0.310045

  @DF-RHF Final Energy:  -344.70357717273095

   => Energetics <=

    Nuclear Repulsion Energy =            348.8854919361343150
    One-Electron Energy =               -1158.8948231504386968
    Two-Electron Energy =                 465.3057540415734934
    DFT Exchange-Correlation Energy =       0.0000000000000000
    Empirical Dispersion Energy =           0.0000000000000000
    PCM Polarization Energy =               0.0000000000000000
    EFP Energy =                            0.0000000000000000
    Total Energy =                       -344.7035771727309452
    Molecular point group: c1
  Basis Set: CC-PVTZ
  Basis Set:

  -Total Gradient:
     Atom            X                  Y                   Z
    ------   -----------------  -----------------  -----------------
       1       -0.000004027116    -0.000004327129    -0.000000383072
       2        0.000025750021     0.000008965695    -0.000024097198
       3       -0.000005291566     0.000009830776     0.000022559307
       4       -0.000020567542    -0.000041227910    -0.000007353976
       5        0.000004036223    -0.000004338657    -0.000008442923
       6       -0.000011569977    -0.000028827703    -0.000004897877
       7       -0.000004562119    -0.000003407045     0.000001499243
       8       -0.000010416792     0.000024720730     0.000036018896
       9        0.000005916637     0.000005541840    -0.000001279228
      10        0.000576168912    -0.000537302315     0.000673134290
      11       -0.000001809007     0.000002267215     0.000007970886
      12       -0.001044562944     0.001033862582    -0.000867831840
      13        0.001233156777    -0.001213982910    -0.000412929762
      14       -0.000752633607     0.000752658199     0.000589971029
      15        0.000001678234    -0.000004144820    -0.000002897908
      16        0.000008733868    -0.000000288548    -0.000001039866

  **** Optimization is complete! (in 6 steps) ****
    Final optimized geometry and variables:
    Molecular point group: c1

    Geometry (in Angstrom), charge = 0, multiplicity = 1:

    H           -0.146541422801    -2.667047572987    -2.011267991426
    C           -0.137285723761    -1.824719800734    -1.347523671476
    C           -1.064277849766    -1.727837549736    -0.319457931912
    C            0.792182508502    -0.822546018700    -1.501473543089
    H           -1.797513220511    -2.500260422498    -0.184277994536
    C           -1.055440551133    -0.651011060349     0.534144016988
    H            1.515770857049    -0.878757436313    -2.292639538026
    C            0.814173066260     0.272609305594    -0.649216099214
    H           -1.766669899632    -0.566886009290     1.332108445459
    C           -0.111755900597     0.358031688710     0.374152872306
    H            1.546161138447     1.039085656668    -0.798786702132
    O           -0.184691046493     1.375399513596     1.250600394827
    C            0.799234004513     2.365982081824     1.253708919930
    H            0.736535934386     2.990613687357     0.369267604551
    H            1.793471170438     1.941687158650     1.329076248083
    H            0.611443187289     2.977782414660     2.122308833297

  Mulliken Charges: (a.u.)
   Center  Symbol    Alpha    Beta     Spin     Total
       1     H     0.42442  0.42442  0.00000  0.15116
       2     C     3.10089  3.10089  0.00000 -0.20179
       3     C     3.05800  3.05800  0.00000 -0.11600
       4     C     3.06158  3.06158  0.00000 -0.12317
       5     H     0.42299  0.42299  0.00000  0.15401
       6     C     3.11147  3.11147  0.00000 -0.22294
       7     H     0.42359  0.42359  0.00000  0.15281
       8     C     3.14353  3.14353  0.00000 -0.28706
       9     H     0.42092  0.42092  0.00000  0.15816
      10     C     2.85057  2.85057  0.00000  0.29886
      11     H     0.42255  0.42255  0.00000  0.15490
      12     O     4.15117  4.15117  0.00000 -0.30233
      13     C     3.04476  3.04476  0.00000 -0.08953
      14     H     0.46148  0.46148  0.00000  0.07703
      15     H     0.46291  0.46291  0.00000  0.07418
      16     H     0.43914  0.43914  0.00000  0.12172

   Total alpha = 29.00000, Total beta = 29.00000, Total charge =  0.00000

*** Psi4 exiting successfully. Buy a developer a beer!
