  ==> Input File <==

--------------------------------------------------------------------------
set {
	reference rhf
	basis 6-31G*
}

set_num_threads( 4 )
memory 2 gb

molecule MOL {
0 1

H	 -2.961023	 1.264943	 1.910291
O	 -2.264260	 0.687505	 1.632820
C	 -2.306886	 0.532354	 0.237577
C	 -1.177863	 -0.397191	 -0.171080
H	 -3.264080	 0.115244	 -0.072432
H	 -2.194899	 1.495470	 -0.258617
C	 0.198102	 0.111031	 0.262842
H	 -1.208843	 -0.518759	 -1.250427
H	 -1.368741	 -1.376554	 0.258909
C	 1.331804	 -0.827780	 -0.158768
H	 0.361943	 1.100838	 -0.156218
H	 0.217265	 0.229072	 1.345532
C	 2.723619	 -0.410569	 0.329459
H	 1.342964	 -0.912588	 -1.244120
H	 1.116806	 -1.824343	 0.220779
C	 3.243875	 0.895854	 -0.272975
H	 3.424222	 -1.207124	 0.091250
H	 2.714788	 -0.329854	 1.414619
H	 3.251977	 0.848779	 -1.358681
H	 2.637085	 1.747371	 0.016682
H	 4.259473	 1.094070	 0.055697

	symmetry c1
}
set optking {
	frozen_dihedral = ("
		2 3 4 8
	")
}

ee = optimize('scf')
oeprop('DIPOLE', 'QUADRUPOLE', 'MULLIKEN_CHARGES')
f=open( 'psi4out.xyz', 'w' )
f.write( "21  " )
f.write( str(ee) + "\n" )
f.write( MOL.save_string_xyz() )
f.close()
--------------------------------------------------------------------------

    Molecular point group: c1
  Charge       = 0
  Multiplicity = 1
  Basis Set: 6-31G*
  Basis Set:
  @DF-RHF Final Energy:  -310.21277541777397
    Total Energy =                       -310.2127754177739689
    Molecular point group: c1
  Basis Set: 6-31G*
  Basis Set:
  Basis Set: 6-31G*
  Basis Set:
  @DF-RHF Final Energy:  -310.21288535929176
    Total Energy =                       -310.2128853592915334
  Basis Set: 6-31G*
  Basis Set:
  Basis Set: 6-31G*
  Basis Set:
  @DF-RHF Final Energy:  -310.21291737516918
    Total Energy =                       -310.2129173751693543
  Basis Set: 6-31G*
  Basis Set:
  Basis Set: 6-31G*
  Basis Set:
  @DF-RHF Final Energy:  -310.21291934175275
    Total Energy =                       -310.2129193417528654
  Basis Set: 6-31G*
  Basis Set:
  Basis Set: 6-31G*
  Basis Set:
  @DF-RHF Final Energy:  -310.21292094001348
    Total Energy =                       -310.2129209400136460
  Basis Set: 6-31G*
  Basis Set:
  Charge       = 0
  Multiplicity = 1
  Basis Set: 6-31G*
  Basis Set:

    Orbital Energies (a.u.)
    -----------------------

    Doubly Occupied:

       1A    -20.553065     2A    -11.268057     3A    -11.212096
       4A    -11.210605     5A    -11.208429     6A    -11.205201
       7A    -11.204308     8A     -1.359869     9A     -1.080397
      10A     -1.029646    11A     -0.952885    12A     -0.874798
      13A     -0.801204    14A     -0.772453    15A     -0.703950
      16A     -0.645698    17A     -0.620668    18A     -0.603170
      19A     -0.583788    20A     -0.567193    21A     -0.531871
      22A     -0.525586    23A     -0.501791    24A     -0.488571
      25A     -0.478472    26A     -0.455684    27A     -0.452497
      28A     -0.440403    29A     -0.427454

  @DF-RHF Final Energy:  -310.21292013571832

   => Energetics <=

    Nuclear Repulsion Energy =            317.1904449318527099
    One-Electron Energy =               -1049.2871190716564342
    Two-Electron Energy =                 421.8837540040852332
    DFT Exchange-Correlation Energy =       0.0000000000000000
    Empirical Dispersion Energy =           0.0000000000000000
    PCM Polarization Energy =               0.0000000000000000
    EFP Energy =                            0.0000000000000000
    Total Energy =                       -310.2129201357185480
    Molecular point group: c1
  Basis Set: 6-31G*
  Basis Set:

  -Total Gradient:
     Atom            X                  Y                   Z
    ------   -----------------  -----------------  -----------------
       1       -0.000013204015     0.000018206157     0.000055888198
       2        0.000636146950     0.000893008648    -0.000190083774
       3       -0.000576220344    -0.000894548686     0.000127766131
       4       -0.000805300192    -0.001175732469     0.000081841256
       5       -0.000034363064     0.000032948290     0.000033052929
       6       -0.000056282404     0.000011988528     0.000032355518
       7       -0.000115008855     0.000018788971    -0.000201162009
       8        0.000900815190     0.001061326567    -0.000054061146
       9       -0.000030837622    -0.000013261518    -0.000047813723
      10        0.000026071344     0.000024468857    -0.000035842502
      11       -0.000003028356    -0.000040261456     0.000012426974
      12        0.000027137888     0.000010739935     0.000146903546
      13        0.000001043830    -0.000002820311     0.000035121661
      14       -0.000000630079     0.000030798430     0.000015670660
      15       -0.000004961063     0.000025663117    -0.000026364282
      16        0.000018707889     0.000004396492    -0.000014703758
      17       -0.000014733260    -0.000007061753     0.000021807459
      18        0.000003987428     0.000014888907     0.000014656158
      19       -0.000003791765     0.000004354870     0.000000107280
      20        0.000048118319    -0.000007047752    -0.000002272795
      21       -0.000003667816    -0.000010843824    -0.000005293782

  **** Optimization is complete! (in 6 steps) ****
    Final optimized geometry and variables:
    Molecular point group: c1

    Geometry (in Angstrom), charge = 0, multiplicity = 1:

    H           -3.193716380593     1.172616004782     1.595871871746
    O           -2.497083198917     0.584505441122     1.341598298019
    C           -2.507312745949     0.414677175999    -0.053215270873
    C           -1.370164653056    -0.513973393488    -0.445320915144
    H           -3.456121779133    -0.007620625015    -0.379378399170
    H           -2.387276561547     1.375512475401    -0.552447773639
    C            0.008759845441    -0.002871341002    -0.021959089149
    H           -1.393194197852    -0.633998733917    -1.526909932452
    H           -1.551630821039    -1.492620767481    -0.009157606046
    C            1.138193573606    -0.938831725108    -0.460688659501
    H            0.160830838421     0.987937814725    -0.444047194578
    H            0.029701724967     0.113483720238     1.056758876126
    C            2.532875243838    -0.529308586410     0.026433215096
    H            1.146976341385    -1.014506240060    -1.547386123000
    H            0.924797619294    -1.939255432394    -0.089533506132
    C            3.054203980585     0.780579025331    -0.567490784523
    H            3.231491240577    -1.325518932720    -0.219413582134
    H            2.526150072246    -0.456105312438     1.111931596204
    H            3.058573690462     0.742093312705    -1.653715495631
    H            2.449936608123     1.630593181422    -0.268751883259
    H            4.071490138788     0.974030079152    -0.240890607034

  Mulliken Charges: (a.u.)
   Center  Symbol    Alpha    Beta     Spin     Total
       1     H     0.28052  0.28052  0.00000  0.43895
       2     O     4.36957  4.36957  0.00000 -0.73915
       3     C     2.99691  2.99691  0.00000  0.00618
       4     C     3.16044  3.16044  0.00000 -0.32087
       5     H     0.42928  0.42928  0.00000  0.14144
       6     H     0.43273  0.43273  0.00000  0.13454
       7     C     3.15519  3.15519  0.00000 -0.31039
       8     H     0.42416  0.42416  0.00000  0.15168
       9     H     0.41607  0.41607  0.00000  0.16786
      10     C     3.15292  3.15292  0.00000 -0.30584
      11     H     0.42523  0.42523  0.00000  0.14954
      12     H     0.40751  0.40751  0.00000  0.18499
      13     C     3.15185  3.15185  0.00000 -0.30369
      14     H     0.42668  0.42668  0.00000  0.14665
      15     H     0.42234  0.42234  0.00000  0.15533
      16     C     3.24099  3.24099  0.00000 -0.48199
      17     H     0.42219  0.42219  0.00000  0.15562
      18     H     0.42238  0.42238  0.00000  0.15524
      19     H     0.42339  0.42339  0.00000  0.15323
      20     H     0.41960  0.41960  0.00000  0.16080
      21     H     0.42005  0.42005  0.00000  0.15990

   Total alpha = 29.00000, Total beta = 29.00000, Total charge =  0.00000
