  ==> Input File <==

--------------------------------------------------------------------------
set {
	reference rhf
	basis 6-31G*
}

set_num_threads( 4 )
memory 2 gb

molecule MOL {
0 1

H	 -0.034002	 2.590920	 0.149850
C	 0.846609	 1.947801	 0.184658
N	 0.538815	 0.649616	 0.000000
O	 1.943334	 2.386697	 0.368433
C	 1.521968	 -0.411503	 0.000000
H	 -0.416902	 0.416438	 -0.143238
H	 2.150599	 -0.357004	 -0.881901
H	 0.999455	 -1.354525	 0.000000
H	 2.150599	 -0.357004	 0.881901

	symmetry c1
}
set optking {
	frozen_dihedral = ("
		6 3 5 7
	")
}

ee = optimize('scf')
oeprop('DIPOLE', 'QUADRUPOLE', 'MULLIKEN_CHARGES')
f=open( 'psi4out.xyz', 'w' )
f.write( "9  " )
f.write( str(ee) + "\n" )
f.write( MOL.save_string_xyz() )
f.close()
--------------------------------------------------------------------------

    Molecular point group: c1
  Charge       = 0
  Multiplicity = 1
  Basis Set: 6-31G*
  Basis Set:
  @DF-RHF Final Energy:  -207.96081742077746
    Total Energy =                       -207.9608174207774027
    Molecular point group: c1
  Basis Set: 6-31G*
  Basis Set:
  Basis Set: 6-31G*
  Basis Set:
  @DF-RHF Final Energy:  -207.96101345940869
    Total Energy =                       -207.9610134594087754
  Basis Set: 6-31G*
  Basis Set:
  Basis Set: 6-31G*
  Basis Set:
  @DF-RHF Final Energy:  -207.96101490998973
    Total Energy =                       -207.9610149099897853
  Basis Set: 6-31G*
  Basis Set:
  Basis Set: 6-31G*
  Basis Set:
  @DF-RHF Final Energy:  -207.96101141830695
    Total Energy =                       -207.9610114183068390
  Basis Set: 6-31G*
  Basis Set:
  Basis Set: 6-31G*
  Basis Set:
  @DF-RHF Final Energy:  -207.96104105614870
    Total Energy =                       -207.9610410561486731
  Basis Set: 6-31G*
  Basis Set:
  Basis Set: 6-31G*
  Basis Set:
  @DF-RHF Final Energy:  -207.96104337170962
    Total Energy =                       -207.9610433717096498
  Basis Set: 6-31G*
  Basis Set:
  Charge       = 0
  Multiplicity = 1
  Basis Set: 6-31G*
  Basis Set:

    Orbital Energies (a.u.)
    -----------------------

    Doubly Occupied:

       1A    -20.525827     2A    -15.590317     3A    -11.342539
       4A    -11.261356     5A     -1.389168     6A     -1.235829
       7A     -0.967790     8A     -0.808152     9A     -0.746688
      10A     -0.640846    11A     -0.626708    12A     -0.592434
      13A     -0.558378    14A     -0.532091    15A     -0.423536
      16A     -0.391114

  @DF-RHF Final Energy:  -207.96104473139025

   => Energetics <=

    Nuclear Repulsion Energy =            122.7189751642916491
    One-Electron Energy =                -526.0944930147542209
    Two-Electron Energy =                 195.4144731190723405
    DFT Exchange-Correlation Energy =       0.0000000000000000
    Empirical Dispersion Energy =           0.0000000000000000
    PCM Polarization Energy =               0.0000000000000000
    EFP Energy =                            0.0000000000000000
    Total Energy =                       -207.9610447313902455
    Molecular point group: c1
  Basis Set: 6-31G*
  Basis Set:

  -Total Gradient:
     Atom            X                  Y                   Z
    ------   -----------------  -----------------  -----------------
       1        0.000001372007    -0.000000445672     0.000020236070
       2       -0.000064490554    -0.000023616904    -0.000073713517
       3        0.000031201099     0.000090479371    -0.000056597058
       4        0.000024846974    -0.000007629736     0.000029936722
       5       -0.000008694854    -0.000096143650    -0.000010859163
       6       -0.000005928411    -0.000003004604     0.000068326879
       7        0.000022320983     0.000029369901     0.000025962863
       8        0.000007066909     0.000009013630    -0.000002504809
       9       -0.000007694154     0.000001977664    -0.000000787988

  **** Optimization is complete! (in 7 steps) ****
    Final optimized geometry and variables:
    Molecular point group: c1

    Geometry (in Angstrom), charge = 0, multiplicity = 1:

    H           -1.235772811995     1.486085210140     0.017524695590
    C           -0.371222851977     0.820893175488     0.044291323816
    N           -0.700235572312    -0.473988025331    -0.110024607712
    O            0.741927978873     1.227972123477     0.201922224214
    C            0.301981919386    -1.518565533867    -0.130201089462
    H           -1.651875601700    -0.706542793906    -0.273472048365
    H            0.945518369438    -1.430698268109    -0.997453500724
    H           -0.196371406452    -2.478002121907    -0.157401156555
    H            0.917324256446    -1.466829847704     0.757783079923

  Mulliken Charges: (a.u.)
   Center  Symbol    Alpha    Beta     Spin     Total
       1     H     0.42692  0.42692  0.00000  0.14615
       2     C     2.74734  2.74734  0.00000  0.50531
       3     N     3.87519  3.87519  0.00000 -0.75038
       4     O     4.28314  4.28314  0.00000 -0.56628
       5     C     3.13612  3.13612  0.00000 -0.27225
       6     H     0.30750  0.30750  0.00000  0.38500
       7     H     0.40674  0.40674  0.00000  0.18653
       8     H     0.41595  0.41595  0.00000  0.16810
       9     H     0.40109  0.40109  0.00000  0.19782

   Total alpha = 16.00000, Total beta = 16.00000, Total charge = -0.00000
