  ==> Input File <==

--------------------------------------------------------------------------
set {
	reference rhf
	basis cc-pvtz
}

set_num_threads( 4 )
memory 2 gb

molecule MOL {
0 1

H	 -1.274539	 -1.873685	 1.362135
N	 -0.498138	 -1.252677	 1.277727
C	 -0.561396	 -0.500007	 0.035200
H	 0.330048	 -1.809472	 1.315452
C	 0.575129	 0.507849	 -0.048832
H	 -1.508749	 0.028506	 0.014840
H	 -0.539959	 -1.137606	 -0.849911
C	 1.951750	 -0.141983	 0.035101
H	 0.478254	 1.061643	 -0.975981
H	 0.467676	 1.231891	 0.755499
H	 2.101550	 -0.848142	 -0.774949
H	 2.738260	 0.600794	 -0.026526
H	 2.078939	 -0.679792	 0.968824

	symmetry c1
}
set optking {
	frozen_dihedral = ("
		6 3 5 9
	")
}

ee = optimize('scf')
oeprop('DIPOLE', 'QUADRUPOLE', 'MULLIKEN_CHARGES')
f=open( 'psi4out.xyz', 'w' )
f.write( "13  " )
f.write( str(ee) + "\n" )
f.write( MOL.save_string_xyz() )
f.close()
--------------------------------------------------------------------------

    Molecular point group: c1
  Charge       = 0
  Multiplicity = 1
  Basis Set: CC-PVTZ
  Basis Set:
  @DF-RHF Final Energy:  -173.35088776551737
    Total Energy =                       -173.3508877655174274
    Molecular point group: c1
  Basis Set: CC-PVTZ
  Basis Set:
  Basis Set: CC-PVTZ
  Basis Set:
  @DF-RHF Final Energy:  -173.35130315858308
    Total Energy =                       -173.3513031585831641
  Basis Set: CC-PVTZ
  Basis Set:
  Basis Set: CC-PVTZ
  Basis Set:
  @DF-RHF Final Energy:  -173.35152112755293
    Total Energy =                       -173.3515211275528713
  Basis Set: CC-PVTZ
  Basis Set:
  Basis Set: CC-PVTZ
  Basis Set:
  @DF-RHF Final Energy:  -173.35153555146891
    Total Energy =                       -173.3515355514690555
  Basis Set: CC-PVTZ
  Basis Set:
  Basis Set: CC-PVTZ
  Basis Set:
  @DF-RHF Final Energy:  -173.35153703046663
    Total Energy =                       -173.3515370304667726
  Basis Set: CC-PVTZ
  Basis Set:
  Charge       = 0
  Multiplicity = 1
  Basis Set: CC-PVTZ
  Basis Set:

    Orbital Energies (a.u.)
    -----------------------

    Doubly Occupied:

       1A    -15.526762     2A    -11.238798     3A    -11.209946
       4A    -11.206044     5A     -1.178638     6A     -1.032355
       7A     -0.908642     8A     -0.788263     9A     -0.669999
      10A     -0.642304    11A     -0.572842    12A     -0.563430
      13A     -0.559036    14A     -0.482378    15A     -0.479125
      16A     -0.469457    17A     -0.384056

  @DF-RHF Final Energy:  -173.35153711187661

   => Energetics <=

    Nuclear Repulsion Energy =            134.0066278235218533
    One-Electron Energy =                -498.8921846622371277
    Two-Electron Energy =                 191.5340197268386078
    DFT Exchange-Correlation Energy =       0.0000000000000000
    Empirical Dispersion Energy =           0.0000000000000000
    PCM Polarization Energy =               0.0000000000000000
    EFP Energy =                            0.0000000000000000
    Total Energy =                       -173.3515371118766666
    Molecular point group: c1
  Basis Set: CC-PVTZ
  Basis Set:

  -Total Gradient:
     Atom            X                  Y                   Z
    ------   -----------------  -----------------  -----------------
       1        0.000003290523    -0.000001155430    -0.000002618642
       2        0.000003606067     0.000006681925     0.000003584800
       3        0.000125552976    -0.000248361867    -0.001467528894
       4        0.000001175300     0.000000892913    -0.000000002944
       5       -0.000781109351     0.000925342271     0.000868902248
       6        0.000006701382     0.000069101121     0.001104499415
       7       -0.000000507907     0.000004008565    -0.000001627728
       8        0.000006188086    -0.000004549320    -0.000001964212
       9        0.000634951341    -0.000745064861    -0.000507449036
      10       -0.000003973833    -0.000004332525    -0.000000617017
      11        0.000001424586     0.000000939778     0.000001148851
      12        0.000000182080    -0.000001398286     0.000001925306
      13        0.000002518752    -0.000002104283     0.000001747853

  **** Optimization is complete! (in 6 steps) ****
    Final optimized geometry and variables:
    Molecular point group: c1

    Geometry (in Angstrom), charge = 0, multiplicity = 1:

    H           -1.723463045607    -1.424118045522     1.047378288923
    N           -0.888038414465    -0.889530334645     0.940259945486
    C           -0.917365921126    -0.128605085680    -0.300587199705
    H           -0.126897455943    -1.534211628979     0.954442623306
    C            0.214967615633     0.888739037147    -0.371789422368
    H           -1.861229540108     0.403535232423    -0.327598848077
    H           -0.884532937490    -0.764095687646    -1.186934472560
    C            1.610161884884     0.271697882821    -0.316757934376
    H            0.114089161789     1.441058320546    -1.301702422945
    H            0.099827060341     1.598034173989     0.440440601573
    H            1.746849542629    -0.462463131277    -1.105324247367
    H            2.372459743556     1.031886639099    -0.440927596639
    H            1.793028828054    -0.216024710007     0.633380756692

  Mulliken Charges: (a.u.)
   Center  Symbol    Alpha    Beta     Spin     Total
       1     H     0.42882  0.42882  0.00000  0.14235
       2     N     3.69179  3.69179  0.00000 -0.38359
       3     C     3.03351  3.03351  0.00000 -0.06701
       4     H     0.42892  0.42892  0.00000  0.14216
       5     C     3.07592  3.07592  0.00000 -0.15184
       6     H     0.45288  0.45288  0.00000  0.09425
       7     H     0.46550  0.46550  0.00000  0.06899
       8     C     3.15854  3.15854  0.00000 -0.31708
       9     H     0.45572  0.45572  0.00000  0.08856
      10     H     0.45309  0.45309  0.00000  0.09382
      11     H     0.45588  0.45588  0.00000  0.08823
      12     H     0.44647  0.44647  0.00000  0.10707
      13     H     0.45296  0.45296  0.00000  0.09409

   Total alpha = 17.00000, Total beta = 17.00000, Total charge =  0.00000
