                              Psi4 1.0.54 Driver

  ==> Input File <==

--------------------------------------------------------------------------
set {
	reference rhf
	basis cc-pvtz
}

set_num_threads( 4 )
memory 2 gb

molecule MOL {
0 1

H	 -2.362939	 -1.309000	 -0.383250
C	 -1.359344	 -1.272457	 0.020748
C	 -0.684082	 0.000127	 -0.464918
H	 -0.825835	 -2.151141	 -0.318537
H	 -1.416276	 -1.292399	 1.099455
C	 -1.359089	 1.272668	 0.021259
N	 0.742439	 -0.000109	 0.007333
H	 -0.596914	 0.000345	 -1.538146
H	 -2.362696	 1.309620	 -0.382686
H	 -0.825392	 2.151374	 -0.317674
H	 -1.415983	 1.292181	 1.099973
O	 1.093875	 0.911059	 0.678087
O	 1.426666	 -0.911539	 -0.320414

	symmetry c1
}
set optking {
	frozen_dihedral = ("
		12 7 3 8
	")
}

ee,wfn = optimize('scf', return_wfn=True)
oeprop( wfn, 'DIPOLE', 'QUADRUPOLE', 'MULLIKEN_CHARGES')
f=open( 'psi4out.xyz', 'w' )
f.write( "13  " )
f.write( str(ee) + "\n" )
f.write( MOL.save_string_xyz() )
f.close()
--------------------------------------------------------------------------

    Molecular point group: c1
  Charge       = 0
  Multiplicity = 1
  Basis Set: CC-PVTZ
  Basis Set:
  @DF-RHF Final Energy:  -321.86214105467616
    Total Energy =                       -321.8621410546761012
    Molecular point group: c1
  Basis Set: CC-PVTZ
  Basis Set:
  Basis Set: CC-PVTZ
  Basis Set:
  @DF-RHF Final Energy:  -321.86117073938038
    Total Energy =                       -321.8611707393804409
  Basis Set: CC-PVTZ
  Basis Set:
  Basis Set: CC-PVTZ
  Basis Set:
  @DF-RHF Final Energy:  -321.85476626177569
    Total Energy =                       -321.8547662617756941
  Basis Set: CC-PVTZ
  Basis Set:
  Basis Set: CC-PVTZ
  Basis Set:
  @DF-RHF Final Energy:  -321.85767199639696
    Total Energy =                       -321.8576719963971300
  Basis Set: CC-PVTZ
  Basis Set:
  Basis Set: CC-PVTZ
  Basis Set:
  @DF-RHF Final Energy:  -321.86290049622181
    Total Energy =                       -321.8629004962219824
  Basis Set: CC-PVTZ
  Basis Set:
  Basis Set: CC-PVTZ
  Basis Set:
  @DF-RHF Final Energy:  -321.86304217004556
    Total Energy =                       -321.8630421700454463
  Basis Set: CC-PVTZ
  Basis Set:
  Basis Set: CC-PVTZ
  Basis Set:
  @DF-RHF Final Energy:  -321.86305057152492
    Total Energy =                       -321.8630505715248091
  Basis Set: CC-PVTZ
  Basis Set:
  Charge       = 0
  Multiplicity = 1
  Basis Set: CC-PVTZ
  Basis Set:

    Orbital Energies (a.u.)
    -----------------------

    Doubly Occupied:

       1A    -20.591621     2A    -20.585571     3A    -15.833583
       4A    -11.306140     5A    -11.242284     6A    -11.237334
       7A     -1.634422     8A     -1.418307     9A     -1.140634
      10A     -0.969495    11A     -0.957938    12A     -0.815412
      13A     -0.762229    14A     -0.730312    15A     -0.724146
      16A     -0.643138    17A     -0.593523    18A     -0.587913
      19A     -0.570483    20A     -0.525119    21A     -0.521472
      22A     -0.484332    23A     -0.472341    24A     -0.451502

  @DF-RHF Final Energy:  -321.86305120774512

   => Energetics <=

    Nuclear Repulsion Energy =            257.3045410537814632
    One-Electron Energy =                -948.7366816675885275
    Two-Electron Energy =                 369.5690894060618348
    DFT Exchange-Correlation Energy =       0.0000000000000000
    Empirical Dispersion Energy =           0.0000000000000000
    PCM Polarization Energy =               0.0000000000000000
    EFP Energy =                            0.0000000000000000
    Total Energy =                       -321.8630512077452295
    Molecular point group: c1
  Basis Set: CC-PVTZ
  Basis Set:

  -Total Gradient:
     Atom            X                  Y                   Z
    ------   -----------------  -----------------  -----------------
       1       -0.000036570410    -0.000003357777    -0.000000295497
       2       -0.000045302857     0.000004416875     0.000013678729
       3       -0.000082227267    -0.001265377772    -0.000447606094
       4        0.000006598074     0.000001124678    -0.000012138131
       5        0.000009781747     0.000012484127    -0.000001346715
       6       -0.000000758436    -0.000027599476     0.000001412508
       7       -0.000578809239    -0.000686057735     0.001329011310
       8        0.000253139768     0.001288266955     0.000058570596
       9       -0.000006469029    -0.000005098657     0.000000279136
      10        0.000009192953    -0.000004365245    -0.000002046587
      11       -0.000000955623     0.000005841920     0.000002295325
      12        0.000475223776     0.000557820742    -0.001056691744
      13       -0.000002843457     0.000121901365     0.000114877164

  **** Optimization is complete! (in 8 steps) ****
    Final optimized geometry and variables:
    Molecular point group: c1

    Geometry (in Angstrom), charge = 0, multiplicity = 1:

    H           -2.574133215800    -0.800143357960    -0.372329820603
    C           -1.570480185783    -0.990159296926    -0.015211866485
    C           -0.674274162355     0.167103645175    -0.433193181380
    H           -1.223609286558    -1.923425261215    -0.429733219115
    H           -1.605914104926    -1.075373126248     1.064328093768
    C           -1.133863416981     1.511415101913     0.095028134766
    N            0.737529785033    -0.139839651679     0.004886539700
    H           -0.586959249279     0.198548101513    -1.509946910644
    H           -2.119516765150     1.711766101148    -0.306785004604
    H           -0.470268657958     2.306816287289    -0.208895405858
    H           -1.194865662529     1.511512902584     1.174240118806
    O            1.297027283526     0.631855410717     0.706087109533
    O            1.207986884628    -1.147452413341    -0.408128130603

  Mulliken Charges: (a.u.)
   Center  Symbol    Alpha    Beta     Spin     Total
       1     H     0.44957  0.44957  0.00000  0.10086
       2     C     3.14432  3.14432  0.00000 -0.28864
       3     C     3.00677  3.00677  0.00000 -0.01355
       4     H     0.43125  0.43125  0.00000  0.13750
       5     H     0.44628  0.44628  0.00000  0.10745
       6     C     3.14239  3.14239  0.00000 -0.28479
       7     N     3.27516  3.27516  0.00000  0.44968
       8     H     0.42935  0.42935  0.00000  0.14130
       9     H     0.45031  0.45031  0.00000  0.09938
      10     H     0.43680  0.43680  0.00000  0.12639
      11     H     0.44280  0.44280  0.00000  0.11440
      12     O     4.16912  4.16912  0.00000 -0.33825
      13     O     4.17586  4.17586  0.00000 -0.35173

   Total alpha = 24.00000, Total beta = 24.00000, Total charge =  0.00000

*** Psi4 exiting successfully. Buy a developer a beer!
