  ==> Input File <==

--------------------------------------------------------------------------
set {
	reference rhf
	basis 6-31G*
}

set_num_threads( 1 )
memory 2 gb

molecule MOL {
0 1

O	 3.225979	 0.970355	 -0.599647
C	 2.701189	 0.057885	 -0.047330
C	 1.245376	 -0.013843	 0.345420
O	 3.347903	 -1.046386	 0.304773
C	 0.455112	 1.231400	 -0.050772
H	 0.838542	 -0.913825	 -0.103701
H	 1.208210	 -0.175333	 1.419774
C	 -0.998893	 1.219485	 0.433193
H	 0.482531	 1.345121	 -1.130325
H	 0.957290	 2.103070	 0.354729
C	 -1.883438	 0.145884	 -0.207175
H	 -1.431207	 2.195402	 0.224832
H	 -1.019646	 1.105716	 1.516076
C	 -2.215259	 0.443651	 -1.670811
H	 -1.380621	 -0.817792	 -0.141437
H	 -2.812184	 0.044480	 0.349709
C	 -3.103040	 -0.619898	 -2.319532
H	 -1.290504	 0.533489	 -2.238255
H	 -2.708485	 1.412081	 -1.738404
C	 -3.426579	 -0.317010	 -3.782161
H	 -2.612117	 -1.588439	 -2.251968
H	 -4.029730	 -0.708068	 -1.756281
H	 -4.056919	 -1.088295	 -4.213899
H	 -2.521239	 -0.257072	 -4.379624
H	 -3.949216	 0.630376	 -3.880065
C	 4.728119	 -1.109107	 -0.004993
H	 4.882018	 -1.033965	 -1.071845
H	 5.068212	 -2.067527	 0.355250
H	 5.265056	 -0.311663	 0.488280

	symmetry c1
}
set optking {
	frozen_dihedral = ("
		21 17 14 11,
		17 14 11 15,
		6 3 5 9,
		11 8 5 9,
		2 4 26 27,
		1 2 4 26,
		6 3 2 1
	")
}

ee = energy('scf')
oeprop('DIPOLE', 'QUADRUPOLE', 'MULLIKEN_CHARGES')
f=open( 'psi4out.xyz', 'w' )
f.write( "29  " )
f.write( str(ee) + "\n" )
f.write( MOL.save_string_xyz() )
f.close()
--------------------------------------------------------------------------

    Molecular point group: c1

    Geometry (in Angstrom), charge = 0, multiplicity = 1:

       Center              X                  Y                   Z               Mass
    ------------   -----------------  -----------------  -----------------  -----------------
           O          2.808612614975     0.896642540382     0.100444619765    15.994914619560
           C          2.283822614975    -0.015827459618     0.652761619765    12.000000000000
           C          0.828009614975    -0.087555459618     1.045511619765    12.000000000000
           O          2.930536614975    -1.120098459618     1.004864619765    15.994914619560
           C          0.037745614975     1.157687540382     0.649319619765    12.000000000000
           H          0.421175614975    -0.987537459618     0.596390619765     1.007825032070
           H          0.790843614975    -0.249045459618     2.119865619765     1.007825032070
           C         -1.416259385025     1.145772540382     1.133284619765    12.000000000000
           H          0.065164614975     1.271408540382    -0.430233380235     1.007825032070
           H          0.539923614975     2.029357540382     1.054820619765     1.007825032070
           C         -2.300804385025     0.072171540382     0.492916619765    12.000000000000
           H         -1.848573385025     2.121689540382     0.924923619765     1.007825032070
           H         -1.437012385025     1.032003540382     2.216167619765     1.007825032070
           C         -2.632625385025     0.369938540382    -0.970719380235    12.000000000000
           H         -1.797987385025    -0.891504459618     0.558654619765     1.007825032070
           H         -3.229550385025    -0.029232459618     1.049800619765     1.007825032070
           C         -3.520406385025    -0.693610459618    -1.619440380235    12.000000000000
           H         -1.707870385025     0.459776540382    -1.538163380235     1.007825032070
           H         -3.125851385025     1.338368540382    -1.038312380235     1.007825032070
           C         -3.843945385025    -0.390722459618    -3.082069380235    12.000000000000
           H         -3.029483385025    -1.662151459618    -1.551876380235     1.007825032070
           H         -4.447096385025    -0.781780459618    -1.056189380235     1.007825032070
           H         -4.474285385025    -1.162007459618    -3.513807380235     1.007825032070
           H         -2.938605385025    -0.330784459618    -3.679532380235     1.007825032070
           H         -4.366582385025     0.556663540382    -3.179973380235     1.007825032070
           C          4.310752614975    -1.182819459618     0.695098619765    12.000000000000
           H          4.464651614975    -1.107677459618    -0.371753380235     1.007825032070
           H          4.650845614975    -2.141239459618     1.055341619765     1.007825032070
           H          4.847689614975    -0.385375459618     1.188371619765     1.007825032070

  Charge       = 0
  Multiplicity = 1
  Basis Set: 6-31G*
  Basis Set:

    Orbital Energies (a.u.)
    -----------------------

    Doubly Occupied:

       1A    -20.603632     2A    -20.545461     3A    -11.372347
       4A    -11.280854     5A    -11.235058     6A    -11.218822
       7A    -11.217333     8A    -11.215549     9A    -11.215467
      10A    -11.213470    11A    -11.208483    12A     -1.469335
      13A     -1.362775    14A     -1.099582    15A     -1.065210
      16A     -1.019352    17A     -0.976080    18A     -0.928141
      19A     -0.865950    20A     -0.805410    21A     -0.783448
      22A     -0.759798    23A     -0.701762    24A     -0.683065
      25A     -0.671608    26A     -0.649559    27A     -0.631076
      28A     -0.605110    29A     -0.594738    30A     -0.576681
      31A     -0.562132    32A     -0.561665    33A     -0.532239
      34A     -0.527678    35A     -0.524053    36A     -0.510167
      37A     -0.491063    38A     -0.480741    39A     -0.472009
      40A     -0.458544    41A     -0.456673    42A     -0.453386
      43A     -0.439783    44A     -0.437440

  @DF-RHF Final Energy:  -501.04176364502041

   => Energetics <=

    Nuclear Repulsion Energy =            622.6999879471916302
    One-Electron Energy =               -1916.5181322658474983
    Two-Electron Energy =                 792.7763806736332981
    DFT Exchange-Correlation Energy =       0.0000000000000000
    Empirical Dispersion Energy =           0.0000000000000000
    PCM Polarization Energy =               0.0000000000000000
    EFP Energy =                            0.0000000000000000
    Total Energy =                       -501.0417636450225700

  Mulliken Charges: (a.u.)
   Center  Symbol    Alpha    Beta     Spin     Total
       1     O     4.28580  4.28580  0.00000 -0.57160
       2     C     2.60497  2.60497  0.00000  0.79006
       3     C     3.20936  3.20936  0.00000 -0.41872
       4     O     4.30733  4.30733  0.00000 -0.61466
       5     C     3.15635  3.15635  0.00000 -0.31269
       6     H     0.39963  0.39963  0.00000  0.20075
       7     H     0.40087  0.40087  0.00000  0.19827
       8     C     3.15891  3.15891  0.00000 -0.31782
       9     H     0.41111  0.41111  0.00000  0.17778
      10     H     0.40816  0.40816  0.00000  0.18367
      11     C     3.15647  3.15647  0.00000 -0.31293
      12     H     0.41830  0.41830  0.00000  0.16341
      13     H     0.42183  0.42183  0.00000  0.15635
      14     C     3.15302  3.15302  0.00000 -0.30603
      15     H     0.42434  0.42434  0.00000  0.15133
      16     H     0.41977  0.41977  0.00000  0.16046
      17     C     3.15074  3.15074  0.00000 -0.30147
      18     H     0.42225  0.42225  0.00000  0.15550
      19     H     0.42309  0.42309  0.00000  0.15382
      20     C     3.23928  3.23928  0.00000 -0.47856
      21     H     0.42383  0.42383  0.00000  0.15234
      22     H     0.42315  0.42315  0.00000  0.15369
      23     H     0.41943  0.41943  0.00000  0.16113
      24     H     0.42144  0.42144  0.00000  0.15713
      25     H     0.42154  0.42154  0.00000  0.15693
      26     C     3.09242  3.09242  0.00000 -0.18483
      27     H     0.40911  0.40911  0.00000  0.18177
      28     H     0.40846  0.40846  0.00000  0.18308
      29     H     0.40907  0.40907  0.00000  0.18187

   Total alpha = 44.00000, Total beta = 44.00000, Total charge = -0.00000
