  ==> Input File <==

--------------------------------------------------------------------------
set {
	reference rhf
	basis cc-pvtz
}

set_num_threads( 4 )
memory 2 gb

molecule MOL {
0 1

H	 -2.498963	 -0.741158	 -0.729149
O	 -2.346257	 -0.289210	 0.080372
C	 -1.183935	 0.486039	 -0.009831
C	 0.062853	 -0.375310	 0.027457
H	 -1.178881	 1.094526	 -0.908634
H	 -1.184406	 1.155156	 0.838676
O	 -0.310728	 -1.694655	 -0.198856
H	 0.553764	 -0.277695	 0.997185
H	 0.764686	 -0.031866	 -0.729544
C	 0.743811	 -2.599417	 -0.222811
H	 1.277230	 -2.613222	 0.725107
H	 0.333225	 -3.581662	 -0.405294
H	 1.452378	 -2.362827	 -1.013051

	symmetry c1
}
set optking {
	frozen_dihedral = ("
		8 4 3 5
	")
}

ee = optimize('scf')
oeprop('DIPOLE', 'QUADRUPOLE', 'MULLIKEN_CHARGES')
f=open( 'psi4out.xyz', 'w' )
f.write( "13  " )
f.write( str(ee) + "\n" )
f.write( MOL.save_string_xyz() )
f.close()
--------------------------------------------------------------------------

    Molecular point group: c1
  Charge       = 0
  Multiplicity = 1
  Basis Set: CC-PVTZ
  Basis Set:
  @DF-RHF Final Energy:  -268.05143104978686
    Total Energy =                       -268.0514310497867996
    Molecular point group: c1
  Basis Set: CC-PVTZ
  Basis Set:
  Basis Set: CC-PVTZ
  Basis Set:
  @DF-RHF Final Energy:  -268.05363087825413
    Total Energy =                       -268.0536308782542392
  Basis Set: CC-PVTZ
  Basis Set:
  Basis Set: CC-PVTZ
  Basis Set:
  @DF-RHF Final Energy:  -268.05513480605157
    Total Energy =                       -268.0551348060516261
  Basis Set: CC-PVTZ
  Basis Set:
  Basis Set: CC-PVTZ
  Basis Set:
  @DF-RHF Final Energy:  -268.05558185091917
    Total Energy =                       -268.0555818509189976
  Basis Set: CC-PVTZ
  Basis Set:
  Basis Set: CC-PVTZ
  Basis Set:
  @DF-RHF Final Energy:  -268.05637549256045
    Total Energy =                       -268.0563754925606190
  Basis Set: CC-PVTZ
  Basis Set:
  Basis Set: CC-PVTZ
  Basis Set:
  @DF-RHF Final Energy:  -268.05671274138081
    Total Energy =                       -268.0567127413808066
  Basis Set: CC-PVTZ
  Basis Set:
  Basis Set: CC-PVTZ
  Basis Set:
  @DF-RHF Final Energy:  -268.05674126924674
    Total Energy =                       -268.0567412692465723
  Basis Set: CC-PVTZ
  Basis Set:
  Charge       = 0
  Multiplicity = 1
  Basis Set: CC-PVTZ
  Basis Set:

    Orbital Energies (a.u.)
    -----------------------

    Doubly Occupied:

       1A    -20.566900     2A    -20.536938     3A    -11.276757
       4A    -11.275178     5A    -11.266988     6A     -1.404301
       7A     -1.355202     8A     -1.017729     9A     -0.927955
      10A     -0.837040    11A     -0.702538    12A     -0.687507
      13A     -0.672896    14A     -0.631975    15A     -0.599748
      16A     -0.573958    17A     -0.547618    18A     -0.498831
      19A     -0.477146    20A     -0.447941    21A     -0.415999

  @DF-RHF Final Energy:  -268.05674390426611

   => Energetics <=

    Nuclear Repulsion Energy =            195.0912342741517023
    One-Electron Energy =                -752.8536628519228771
    Two-Electron Energy =                 289.7056846735050613
    DFT Exchange-Correlation Energy =       0.0000000000000000
    Empirical Dispersion Energy =           0.0000000000000000
    PCM Polarization Energy =               0.0000000000000000
    EFP Energy =                            0.0000000000000000
    Total Energy =                       -268.0567439042661135
    Molecular point group: c1
  Basis Set: CC-PVTZ
  Basis Set:

  -Total Gradient:
     Atom            X                  Y                   Z
    ------   -----------------  -----------------  -----------------
       1        0.000029809732     0.000022146175     0.000007529782
       2        0.000025507554     0.000050841605     0.000051096952
       3       -0.002931500787    -0.004612120966    -0.004969518760
       4       -0.004191649939    -0.005319996308     0.003436484684
       5        0.003189670853     0.004705350474     0.003499098807
       6       -0.000028501321    -0.000028285948     0.000035961291
       7        0.000011327941     0.000047016579     0.000012880653
       8        0.003907109709     0.005080285059    -0.002053832651
       9        0.000002583969     0.000033991033    -0.000011443168
      10        0.000003437760    -0.000005510193    -0.000018937010
      11       -0.000009595181     0.000013963046     0.000004272298
      12       -0.000007654736     0.000008418666     0.000003167271
      13       -0.000000545556     0.000003900778     0.000003239852

  **** Optimization is complete! (in 8 steps) ****
    Final optimized geometry and variables:
    Molecular point group: c1

    Geometry (in Angstrom), charge = 0, multiplicity = 1:

    H           -1.643862701301    -0.140089650320    -0.245945155541
    O           -1.763389979943     0.721792175839     0.112363843144
    C           -0.554511365070     1.405300044904     0.053340586716
    C            0.680549266392     0.491265391893     0.154568778073
    H           -0.480815824491     2.021426003429    -0.838506291377
    H           -0.537694065217     2.096924419362     0.887059464529
    O            0.328004463331    -0.814620495122    -0.168386602498
    H            1.130923112063     0.552610279628     1.142540919572
    H            1.439474793445     0.848905894456    -0.539623091525
    C            1.378536802464    -1.726065658068    -0.134881780916
    H            1.820913223230    -1.779938786524     0.856257918267
    H            0.982068840729    -2.696412455228    -0.394516850917
    H            2.154889163973    -1.460284569878    -0.847671997704

  Mulliken Charges: (a.u.)
   Center  Symbol    Alpha    Beta     Spin     Total
       1     H     0.38240  0.38240  0.00000  0.23520
       2     O     4.20528  4.20528  0.00000 -0.41057
       3     C     2.95764  2.95764  0.00000  0.08472
       4     C     2.96990  2.96990  0.00000  0.06020
       5     H     0.47676  0.47676  0.00000  0.04649
       6     H     0.46803  0.46803  0.00000  0.06394
       7     O     4.18055  4.18055  0.00000 -0.36109
       8     H     0.47266  0.47266  0.00000  0.05468
       9     H     0.47406  0.47406  0.00000  0.05187
      10     C     3.03083  3.03083  0.00000 -0.06166
      11     H     0.46769  0.46769  0.00000  0.06462
      12     H     0.44587  0.44587  0.00000  0.10826
      13     H     0.46832  0.46832  0.00000  0.06335

   Total alpha = 21.00000, Total beta = 21.00000, Total charge = -0.00000
