                              Psi4 1.0.54 Driver

  ==> Input File <==

--------------------------------------------------------------------------
set {
	reference rhf
	basis cc-pvtz
}

set_num_threads( 4 )
memory 2 gb

molecule MOL {
0 1

H	 -4.230259	 0.539112	 0.036360
O	 -3.515113	 -0.019339	 -0.206321
C	 -2.302264	 0.528872	 0.237390
C	 -1.175688	 -0.398187	 -0.171891
H	 -2.148018	 1.514076	 -0.197759
H	 -2.310727	 0.646384	 1.319032
C	 0.196029	 0.106276	 0.266738
H	 -1.201873	 -0.515469	 -1.250677
H	 -1.365975	 -1.378728	 0.252664
C	 1.330220	 -0.826136	 -0.155230
H	 0.359542	 1.097229	 -0.145561
H	 0.212134	 0.218135	 1.348778
C	 2.719700	 -0.407669	 0.328325
H	 1.339388	 -0.911200	 -1.239363
H	 1.119001	 -1.821953	 0.224128
C	 3.751095	 -0.215644	 -0.781049
H	 3.085389	 -1.164833	 1.015116
H	 2.637058	 0.509278	 0.906089
H	 3.850166	 -1.115108	 -1.380392
H	 3.485566	 0.597110	 -1.446340
H	 4.725822	 0.011208	 -0.364376

	symmetry c1
}
set optking {
	frozen_dihedral = ("
		16 13 10 14
	")
}

ee,wfn = optimize('scf', return_wfn=True)
oeprop( wfn, 'DIPOLE', 'QUADRUPOLE', 'MULLIKEN_CHARGES')
f=open( 'psi4out.xyz', 'w' )
f.write( "21  " )
f.write( str(ee) + "\n" )
f.write( MOL.save_string_xyz() )
f.close()
--------------------------------------------------------------------------

    Molecular point group: c1
  Charge       = 0
  Multiplicity = 1
  Basis Set: CC-PVTZ
  Basis Set:
  @DF-RHF Final Energy:  -310.32867579108392
    Total Energy =                       -310.3286757910840947
    Molecular point group: c1
  Basis Set: CC-PVTZ
  Basis Set:
  Basis Set: CC-PVTZ
  Basis Set:
  @DF-RHF Final Energy:  -310.32902621536516
    Total Energy =                       -310.3290262153652748
  Basis Set: CC-PVTZ
  Basis Set:
  Basis Set: CC-PVTZ
  Basis Set:
  @DF-RHF Final Energy:  -310.32920907068689
    Total Energy =                       -310.3292090706867157
  Basis Set: CC-PVTZ
  Basis Set:
  Basis Set: CC-PVTZ
  Basis Set:
  @DF-RHF Final Energy:  -310.32921068490003
    Total Energy =                       -310.3292106848999765
  Basis Set: CC-PVTZ
  Basis Set:
  Basis Set: CC-PVTZ
  Basis Set:
  @DF-RHF Final Energy:  -310.32921297284560
    Total Energy =                       -310.3292129728458804
  Basis Set: CC-PVTZ
  Basis Set:
  Charge       = 0
  Multiplicity = 1
  Basis Set: CC-PVTZ
  Basis Set:

    Orbital Energies (a.u.)
    -----------------------

    Doubly Occupied:

       1A    -20.545447     2A    -11.265113     3A    -11.214186
       4A    -11.212427     5A    -11.210723     6A    -11.208849
       7A    -11.206523     8A     -1.363311     9A     -1.086024
      10A     -1.034567    11A     -0.957531    12A     -0.868713
      13A     -0.804042    14A     -0.790028    15A     -0.696252
      16A     -0.663040    17A     -0.625200    18A     -0.603053
      19A     -0.587344    20A     -0.565988    21A     -0.543335
      22A     -0.523059    23A     -0.508194    24A     -0.487093
      25A     -0.478463    26A     -0.462952    27A     -0.454516
      28A     -0.443115    29A     -0.437436

  @DF-RHF Final Energy:  -310.32921303826885

   => Energetics <=

    Nuclear Repulsion Energy =            310.1009392454691920
    One-Electron Energy =               -1035.1672663049246239
    Two-Electron Energy =                 414.7371140211869260
    DFT Exchange-Correlation Energy =       0.0000000000000000
    Empirical Dispersion Energy =           0.0000000000000000
    PCM Polarization Energy =               0.0000000000000000
    EFP Energy =                            0.0000000000000000
    Total Energy =                       -310.3292130382685627
    Molecular point group: c1
  Basis Set: CC-PVTZ
  Basis Set:

  -Total Gradient:
     Atom            X                  Y                   Z
    ------   -----------------  -----------------  -----------------
       1        0.000003490686     0.000000855876     0.000001062661
       2        0.000002627487    -0.000003776514    -0.000002188103
       3        0.000008095896     0.000004056569     0.000011433706
       4       -0.000006186805    -0.000003133002    -0.000000500631
       5       -0.000003036267    -0.000001270291    -0.000002759132
       6       -0.000004671674     0.000002319239     0.000004101521
       7       -0.000011995170     0.000006119978    -0.000010285683
       8        0.000003577837     0.000001145779    -0.000001627881
       9        0.000001005964    -0.000005325531    -0.000000870249
      10       -0.000286204133     0.000947677220    -0.000090909209
      11        0.000001502498     0.000003090768    -0.000006789962
      12        0.000004544507     0.000000332687    -0.000001256102
      13        0.000236285674    -0.000783999368     0.000079146603
      14        0.000182357820    -0.000619571719     0.000058521160
      15        0.000000540088    -0.000003558067    -0.000002836744
      16       -0.000135186891     0.000458190064    -0.000031459999
      17        0.000000948964    -0.000001590944     0.000000384743
      18        0.000004709429     0.000000071661     0.000001439112
      19        0.000000306107    -0.000011015610    -0.000000752517
      20       -0.000009983235     0.000007678860    -0.000006499560
      21        0.000007271210     0.000001702344     0.000002646267

  **** Optimization is complete! (in 6 steps) ****
    Final optimized geometry and variables:
    Molecular point group: c1

    Geometry (in Angstrom), charge = 0, multiplicity = 1:

    H           -4.289027855307     0.749777063319     0.078421604137
    O           -3.579472258054     0.187238886781    -0.170974528152
    C           -2.365331395203     0.698314076414     0.311694500098
    C           -1.247782088493    -0.234198726048    -0.109889671847
    H           -2.186457306766     1.694747245066    -0.086924361894
    H           -2.390739055961     0.779309061017     1.396386878121
    C            0.123994851854     0.231263127809     0.366603721802
    H           -1.258232435898    -0.316325850790    -1.192143306637
    H           -1.461089328585    -1.224606623844     0.279619111585
    C            1.255512935035    -0.703821321739    -0.053991977081
    H            0.325116347126     1.227957616475    -0.020072185374
    H            0.121645367502     0.320826299252     1.450460333608
    C            2.649259609985    -0.242710186048     0.419896301476
    H            1.251130385984    -0.797971857217    -1.135835598094
    H            1.047100055878    -1.698368206528     0.327514554204
    C            3.644491498310    -0.040201930881    -0.719111326297
    H            3.056676897999    -0.961288209673     1.122683898745
    H            2.555064114363     0.688720612783     0.969413149643
    H            3.800485233931    -0.961401507181    -1.270670971393
    H            3.285921077365     0.705896045687    -1.420848889268
    H            4.607772951241     0.290224903249    -0.346882348757

  Mulliken Charges: (a.u.)
   Center  Symbol    Alpha    Beta     Spin     Total
       1     H     0.39760  0.39760  0.00000  0.20480
       2     O     4.19431  4.19431  0.00000 -0.38863
       3     C     2.96313  2.96313  0.00000  0.07373
       4     C     3.08564  3.08564  0.00000 -0.17128
       5     H     0.47495  0.47495  0.00000  0.05010
       6     H     0.47494  0.47494  0.00000  0.05013
       7     C     3.10108  3.10108  0.00000 -0.20216
       8     H     0.45071  0.45071  0.00000  0.09858
       9     H     0.45106  0.45106  0.00000  0.09789
      10     C     3.09348  3.09348  0.00000 -0.18696
      11     H     0.45497  0.45497  0.00000  0.09006
      12     H     0.45418  0.45418  0.00000  0.09164
      13     C     3.08886  3.08886  0.00000 -0.17772
      14     H     0.45354  0.45354  0.00000  0.09292
      15     H     0.44940  0.44940  0.00000  0.10120
      16     C     3.14716  3.14716  0.00000 -0.29431
      17     H     0.45003  0.45003  0.00000  0.09993
      18     H     0.45503  0.45503  0.00000  0.08993
      19     H     0.45434  0.45434  0.00000  0.09132
      20     H     0.45565  0.45565  0.00000  0.08870
      21     H     0.44994  0.44994  0.00000  0.10011

   Total alpha = 29.00000, Total beta = 29.00000, Total charge =  0.00000

*** Psi4 exiting successfully. Buy a developer a beer!
