                              Psi4 1.0.54 Driver

  ==> Input File <==

--------------------------------------------------------------------------
set {
	reference rhf
	basis cc-pvtz
}

set_num_threads( 4 )
memory 2 gb

molecule MOL {
0 1

H	 2.265338	 4.191622	 2.499020
C	 2.241975	 3.444828	 3.304401
C	 0.977364	 2.633010	 3.379240
O	 3.163638	 3.335442	 4.036439
C	 0.601438	 1.996310	 2.037984
H	 1.091519	 1.888456	 4.156377
H	 0.187729	 3.316212	 3.684225
C	 1.575333	 0.913000	 1.579562
H	 -0.393158	 1.572847	 2.126287
H	 0.532990	 2.771256	 1.278399
C	 1.181757	 0.280428	 0.247371
H	 1.633069	 0.141778	 2.343099
H	 2.576184	 1.328813	 1.496959
C	 2.151032	 -0.811012	 -0.202643
H	 0.178634	 -0.125356	 0.333561
H	 1.134423	 1.053320	 -0.516628
C	 3.580021	 -0.656538	 0.320835
H	 2.170545	 -0.847575	 -1.289412
H	 1.766632	 -1.772905	 0.124928
C	 4.327657	 0.562694	 -0.213579
H	 4.138806	 -1.549270	 0.057813
H	 3.561991	 -0.620783	 1.406976
H	 4.355973	 0.557257	 -1.298551
H	 3.867136	 1.491650	 0.100501
H	 5.351524	 0.571613	 0.142204

	symmetry c1
}
set optking {
	frozen_dihedral = ("
		8 11 14 18
	")
}

ee,wfn = optimize('scf', return_wfn=True)
oeprop( wfn, 'DIPOLE', 'QUADRUPOLE', 'MULLIKEN_CHARGES')
f=open( 'psi4out.xyz', 'w' )
f.write( "25  " )
f.write( str(ee) + "\n" )
f.write( MOL.save_string_xyz() )
f.close()
--------------------------------------------------------------------------

    Molecular point group: c1
  Charge       = 0
  Multiplicity = 1
  Basis Set: CC-PVTZ
  Basis Set:
  @DF-RHF Final Energy:  -387.24952290712508
    Total Energy =                       -387.2495229071248559
    Molecular point group: c1
  Basis Set: CC-PVTZ
  Basis Set:
  Basis Set: CC-PVTZ
  Basis Set:
  @DF-RHF Final Energy:  -387.21769520394736
    Total Energy =                       -387.2176952039476419
  Basis Set: CC-PVTZ
  Basis Set:
  Basis Set: CC-PVTZ
  Basis Set:
  @DF-RHF Final Energy:  -387.25199421798595
    Total Energy =                       -387.2519942179862937
  Basis Set: CC-PVTZ
  Basis Set:
  Basis Set: CC-PVTZ
  Basis Set:
  @DF-RHF Final Energy:  -387.25338232966277
    Total Energy =                       -387.2533823296625997
  Basis Set: CC-PVTZ
  Basis Set:
  @DF-RHF Final Energy:  -387.25371988136322
    Total Energy =                       -387.2537198813631676
  @DF-RHF Final Energy:  -387.25317137338823
    Total Energy =                       -387.2531713733877723
  Basis Set: CC-PVTZ
  Basis Set:
  @DF-RHF Final Energy:  -387.25373478163317
    Total Energy =                       -387.2537347816329429
  Basis Set: CC-PVTZ
  Basis Set:
  Basis Set: CC-PVTZ
  Basis Set:
  @DF-RHF Final Energy:  -387.25373438464101
    Total Energy =                       -387.2537343846405520
  Basis Set: CC-PVTZ
  Basis Set:
  Basis Set: CC-PVTZ
  Basis Set:
  @DF-RHF Final Energy:  -387.25373704156999
    Total Energy =                       -387.2537370415697069
  Basis Set: CC-PVTZ
  Basis Set:
  Charge       = 0
  Multiplicity = 1
  Basis Set: CC-PVTZ
  Basis Set:

    Orbital Energies (a.u.)
    -----------------------

    Doubly Occupied:

       1A    -20.551695     2A    -11.321189     3A    -11.233836
       4A    -11.232866     5A    -11.221272     6A    -11.218559
       7A    -11.215575     8A    -11.213988     9A    -11.207645
      10A     -1.406756    11A     -1.104699    12A     -1.068498
      13A     -1.010674    14A     -0.945882    15A     -0.874914
      16A     -0.831717    17A     -0.789614    18A     -0.766505
      19A     -0.669452    20A     -0.663370    21A     -0.633647
      22A     -0.627808    23A     -0.611596    24A     -0.591788
      25A     -0.562995    26A     -0.559859    27A     -0.538906
      28A     -0.521304    29A     -0.516838    30A     -0.500475
      31A     -0.488801    32A     -0.483334    33A     -0.454579
      34A     -0.450741    35A     -0.446957    36A     -0.412100

  @DF-RHF Final Energy:  -387.25373789153434

   => Energetics <=

    Nuclear Repulsion Energy =            452.8744200158413378
    One-Electron Energy =               -1422.3554600746733740
    Two-Electron Energy =                 582.2273021672979212
    DFT Exchange-Correlation Energy =       0.0000000000000000
    Empirical Dispersion Energy =           0.0000000000000000
    PCM Polarization Energy =               0.0000000000000000
    EFP Energy =                            0.0000000000000000
    Total Energy =                       -387.2537378915341151
    Molecular point group: c1
  Basis Set: CC-PVTZ
  Basis Set:

  -Total Gradient:
     Atom            X                  Y                   Z
    ------   -----------------  -----------------  -----------------
       1       -0.000004627591    -0.000066961830     0.000091810142
       2        0.000161305835     0.000113126588     0.000007586620
       3        0.000027152900     0.000043158312     0.000043524556
       4       -0.000177988421    -0.000079354065    -0.000118593022
       5        0.000009981792     0.000019379417    -0.000040988647
       6        0.000002656254     0.000002668594    -0.000006015184
       7       -0.000017068428     0.000001100842    -0.000005405761
       8        0.001796031289     0.004463817157    -0.002948107027
       9        0.000004922227    -0.000000615816     0.000004050563
      10        0.000000455980    -0.000007198338     0.000010644606
      11       -0.001760798712    -0.005132359656     0.004233766744
      12       -0.000010436328     0.000012129183    -0.000004736970
      13        0.000008231139    -0.000008165928    -0.000012440252
      14       -0.003931031140    -0.005815730058    -0.000899333275
      15        0.000005644246     0.000004298127     0.000002638761
      16       -0.000002096690    -0.000012537153     0.000001760230
      17        0.000030217625     0.000012388172     0.000040078465
      18        0.003904196380     0.006448246467    -0.000367423762
      19       -0.000012579111     0.000007840307     0.000002678319
      20       -0.000013381454    -0.000010353257    -0.000042733975
      21       -0.000010325119     0.000008001702     0.000002241973
      22       -0.000010693718    -0.000001489110    -0.000043332931
      23        0.000001841932     0.000005302530     0.000046270701
      24        0.000012046191    -0.000007444336     0.000004925785
      25       -0.000013657085     0.000000752151    -0.000002866650

  **** Optimization is complete! (in 10 steps) ****
    Final optimized geometry and variables:
    Molecular point group: c1

    Geometry (in Angstrom), charge = 0, multiplicity = 1:

    H           -1.075900932957     2.815540603262     0.755274726294
    C           -0.838451223219     2.162953905444     1.606355649649
    C           -1.713155671775     0.945626409234     1.734419188898
    O            0.042414856162     2.446782325306     2.341671008440
    C           -1.780341688024     0.126595194055     0.441753703216
    H           -1.356507312887     0.350787165723     2.565242063011
    H           -2.709923443019     1.303667158534     1.982480463262
    C           -0.458141715143    -0.544540012498     0.073088606711
    H           -2.550150195228    -0.628869379758     0.554263004743
    H           -2.104565764699     0.768108961003    -0.374168124064
    C           -0.565112832066    -1.352602920838    -1.219634838944
    H           -0.153297994749    -1.189565086303     0.893426695541
    H            0.315495479209     0.207870852824    -0.020573238734
    C            0.690115997150    -2.137326550534    -1.657188025687
    H           -1.393559314538    -2.048922148829    -1.136714977017
    H           -0.841895323048    -0.663323800546    -2.013020703251
    C            2.051250138251    -1.538123577310    -1.280307071846
    H            0.686278851198    -2.197905683129    -2.741269891970
    H            0.637732129221    -3.147745807429    -1.267709949493
    C            2.401167970488    -0.262341061815    -2.043510048486
    H            2.811325488381    -2.282968330477    -1.495002814845
    H            2.107910786355    -1.356333838620    -0.213108065027
    H            2.430726749809    -0.449316312640    -3.112028925419
    H            1.681232341409     0.529133551467    -1.871579986594
    H            3.374157547658     0.112511445092    -1.747743315717

  Mulliken Charges: (a.u.)
   Center  Symbol    Alpha    Beta     Spin     Total
       1     H     0.46388  0.46388  0.00000  0.07225
       2     C     2.90619  2.90619  0.00000  0.18762
       3     C     3.08691  3.08691  0.00000 -0.17382
       4     O     4.16617  4.16617  0.00000 -0.33235
       5     C     3.11863  3.11863  0.00000 -0.23725
       6     H     0.44322  0.44322  0.00000  0.11356
       7     H     0.44053  0.44053  0.00000  0.11894
       8     C     3.09607  3.09607  0.00000 -0.19215
       9     H     0.44210  0.44210  0.00000  0.11581
      10     H     0.44971  0.44971  0.00000  0.10058
      11     C     3.10659  3.10659  0.00000 -0.21317
      12     H     0.44842  0.44842  0.00000  0.10316
      13     H     0.44187  0.44187  0.00000  0.11626
      14     C     3.09702  3.09702  0.00000 -0.19405
      15     H     0.44472  0.44472  0.00000  0.11055
      16     H     0.45070  0.45070  0.00000  0.09860
      17     C     3.10147  3.10147  0.00000 -0.20294
      18     H     0.45151  0.45151  0.00000  0.09699
      19     H     0.44577  0.44577  0.00000  0.10846
      20     C     3.14937  3.14937  0.00000 -0.29873
      21     H     0.44343  0.44343  0.00000  0.11314
      22     H     0.44920  0.44920  0.00000  0.10161
      23     H     0.45380  0.45380  0.00000  0.09240
      24     H     0.45722  0.45722  0.00000  0.08556
      25     H     0.44551  0.44551  0.00000  0.10898

   Total alpha = 36.00000, Total beta = 36.00000, Total charge = -0.00000

*** Psi4 exiting successfully. Buy a developer a beer!
