  ==> Input File <==

--------------------------------------------------------------------------
set {
	reference rhf
	basis 6-31G*
}

set_num_threads( 4 )
memory 2 gb

molecule MOL {
0 1

H	 -3.161837	 0.500524	 -0.000234
C	 -2.367097	 -0.232926	 -0.000000
O	 -1.158440	 0.455814	 -0.000122
H	 -2.468853	 -0.861886	 -0.882833
H	 -2.468942	 -0.861421	 0.883154
C	 -0.029776	 -0.365156	 0.000148
C	 -0.357833	 -1.649757	 -0.740690
H	 0.273752	 -0.585704	 1.024418
H	 0.806122	 0.145714	 -0.479637
C	 0.826155	 -2.614426	 -0.790341
H	 -1.205510	 -2.121396	 -0.253183
H	 -0.676816	 -1.395165	 -1.746738
H	 1.145890	 -2.901318	 0.207600
H	 0.564394	 -3.521521	 -1.324670
H	 1.678723	 -2.169643	 -1.296009

	symmetry c1
}
set optking {
	frozen_dihedral = ("
		8 6 3 2
	")
}

ee = optimize('scf')
oeprop('DIPOLE', 'QUADRUPOLE', 'MULLIKEN_CHARGES')
f=open( 'psi4out.xyz', 'w' )
f.write( "15  " )
f.write( str(ee) + "\n" )
f.write( MOL.save_string_xyz() )
f.close()
--------------------------------------------------------------------------

    Molecular point group: c1
  Charge       = 0
  Multiplicity = 1
  Basis Set: 6-31G*
  Basis Set:
  @DF-RHF Final Energy:  -232.11967816911402
    Total Energy =                       -232.1196781691139108
    Molecular point group: c1
  Basis Set: 6-31G*
  Basis Set:
  Basis Set: 6-31G*
  Basis Set:
  @DF-RHF Final Energy:  -232.12051350356504
    Total Energy =                       -232.1205135035648937
  Basis Set: 6-31G*
  Basis Set:
  Basis Set: 6-31G*
  Basis Set:
  @DF-RHF Final Energy:  -232.12807666637016
    Total Energy =                       -232.1280766663701343
  Basis Set: 6-31G*
  Basis Set:
  Basis Set: 6-31G*
  Basis Set:
  @DF-RHF Final Energy:  -232.13136347450728
    Total Energy =                       -232.1313634745073955
  Basis Set: 6-31G*
  Basis Set:
  @DF-RHF Final Energy:  -232.13194104909124
    Total Energy =                       -232.1319410490912674
  Basis Set: 6-31G*
  Basis Set:
  @DF-RHF Final Energy:  -232.13225265380402
    Total Energy =                       -232.1322526538041870
  Basis Set: 6-31G*
  Basis Set:
  Basis Set: 6-31G*
  Basis Set:
  @DF-RHF Final Energy:  -232.13229809979998
    Total Energy =                       -232.1322980998002095
  Basis Set: 6-31G*
  Basis Set:
  Basis Set: 6-31G*
  Basis Set:
  @DF-RHF Final Energy:  -232.13230168038777
    Total Energy =                       -232.1323016803876840
  Basis Set: 6-31G*
  Basis Set:
  Charge       = 0
  Multiplicity = 1
  Basis Set: 6-31G*
  Basis Set:

    Orbital Energies (a.u.)
    -----------------------

    Doubly Occupied:

       1A    -20.549097     2A    -11.265940     3A    -11.262359
       4A    -11.222066     5A    -11.217770     6A     -1.370101
       7A     -1.059328     8A     -0.961669     9A     -0.886466
      10A     -0.799829    11A     -0.670115    12A     -0.659326
      13A     -0.628146    14A     -0.606283    15A     -0.562103
      16A     -0.536030    17A     -0.525551    18A     -0.500277
      19A     -0.490749    20A     -0.445378    21A     -0.404881

  @DF-RHF Final Energy:  -232.13230218206030

   => Energetics <=

    Nuclear Repulsion Energy =            192.0880234805183591
    One-Electron Energy =                -695.1937196732428674
    Two-Electron Energy =                 270.9733940106642649
    DFT Exchange-Correlation Energy =       0.0000000000000000
    Empirical Dispersion Energy =           0.0000000000000000
    PCM Polarization Energy =               0.0000000000000000
    EFP Energy =                            0.0000000000000000
    Total Energy =                       -232.1323021820602435
    Molecular point group: c1
  Basis Set: 6-31G*
  Basis Set:

  -Total Gradient:
     Atom            X                  Y                   Z
    ------   -----------------  -----------------  -----------------
       1       -0.000009337338    -0.000004985127     0.000000196502
       2       -0.000152223775    -0.000184154708    -0.004437394277
       3        0.001111714153     0.001312858238     0.006486009163
       4        0.000004483294     0.000000388082     0.000002508214
       5       -0.000006148047     0.000000416951    -0.000005005795
       6       -0.004363204812    -0.005170001726    -0.001742421481
       7        0.000010995200    -0.000005416708    -0.000026903625
       8        0.003426592567     0.004056167856    -0.000269847463
       9       -0.000014456030    -0.000000920599     0.000002331423
      10       -0.000013598749     0.000000069019     0.000001859886
      11       -0.000001701436     0.000005757062    -0.000001172661
      12        0.000004549065    -0.000010933607    -0.000007999011
      13        0.000000928530     0.000005132331    -0.000000615575
      14       -0.000001384674    -0.000001062559     0.000004500091
      15        0.000002792054    -0.000003314505    -0.000006045391

  **** Optimization is complete! (in 9 steps) ****
    Final optimized geometry and variables:
    Molecular point group: c1

    Geometry (in Angstrom), charge = 0, multiplicity = 1:

    H           -2.493170361470     1.675671472770     0.432957338063
    C           -1.833573175750     0.822573353487     0.348289697044
    O           -0.535777499482     1.324542828193     0.286027057077
    H           -2.104395739390     0.265309855065    -0.542864482127
    H           -1.984967432321     0.183594426424     1.216896945053
    C            0.532753175173     0.415280322801     0.291981208250
    C            0.323558763435    -0.893354507955    -0.462794481649
    H            0.839684971415     0.225851095166     1.320779500597
    H            1.356376671033     0.950955711771    -0.167416015049
    C            1.610035295389    -1.719491503809    -0.496861512473
    H           -0.464360278183    -1.481201682967    -0.002087681744
    H            0.002848180262    -0.672010048029    -1.477123461683
    H            1.949552164356    -1.961182467510     0.506254151860
    H            1.456611897173    -2.653570909321    -1.026582411147
    H            2.410665341014    -1.183075153937    -0.997407307553

  Mulliken Charges: (a.u.)
   Center  Symbol    Alpha    Beta     Spin     Total
       1     H     0.41224  0.41224  0.00000  0.17552
       2     C     3.08022  3.08022  0.00000 -0.16044
       3     O     4.31256  4.31256  0.00000 -0.62513
       4     H     0.42790  0.42790  0.00000  0.14420
       5     H     0.43199  0.43199  0.00000  0.13601
       6     C     2.97392  2.97392  0.00000  0.05216
       7     C     3.17936  3.17936  0.00000 -0.35872
       8     H     0.43100  0.43100  0.00000  0.13800
       9     H     0.41918  0.41918  0.00000  0.16164
      10     C     3.24543  3.24543  0.00000 -0.49085
      11     H     0.41844  0.41844  0.00000  0.16313
      12     H     0.41500  0.41500  0.00000  0.17000
      13     H     0.41916  0.41916  0.00000  0.16168
      14     H     0.41517  0.41517  0.00000  0.16965
      15     H     0.41843  0.41843  0.00000  0.16314

   Total alpha = 21.00000, Total beta = 21.00000, Total charge = -0.00000
