  ==> Input File <==

--------------------------------------------------------------------------
set {
	reference rhf
	basis 6-31G*
}

set_num_threads( 4 )
memory 2 gb

molecule MOL {
0 1

O	 0.749854	 1.307668	 -0.000040
C	 0.576249	 0.131685	 -0.000108
C	 -0.766779	 -0.556801	 -0.000461
O	 1.568443	 -0.749345	 -0.000005
C	 -1.945214	 0.412366	 0.000161
H	 -0.796911	 -1.211249	 -0.867467
H	 -0.796854	 -1.212390	 0.865687
C	 -1.771007	 1.526580	 1.031057
H	 -2.859704	 -0.136109	 0.198870
H	 -2.058093	 0.839256	 -0.990595
H	 -1.687120	 1.125282	 2.037226
H	 -2.618690	 2.203785	 1.015935
H	 -0.877286	 2.112138	 0.833934
C	 2.886820	 -0.232538	 0.000322
H	 3.059106	 0.369571	 -0.880203
H	 3.540187	 -1.091012	 0.000050
H	 3.059019	 0.368956	 0.881266

	symmetry c1
}
set optking {
	frozen_dihedral = ("
		9 5 3 6
	")
}

ee = optimize('scf')
oeprop('DIPOLE', 'QUADRUPOLE', 'MULLIKEN_CHARGES')
f=open( 'psi4out.xyz', 'w' )
f.write( "17  " )
f.write( str(ee) + "\n" )
f.write( MOL.save_string_xyz() )
f.close()
--------------------------------------------------------------------------

    Molecular point group: c1
  Charge       = 0
  Multiplicity = 1
  Basis Set: 6-31G*
  Basis Set:
  @DF-RHF Final Energy:  -344.89695090126378
    Total Energy =                       -344.8969509012640060
    Molecular point group: c1
  Basis Set: 6-31G*
  Basis Set:
  Basis Set: 6-31G*
  Basis Set:
  @DF-RHF Final Energy:  -344.90268865966635
    Total Energy =                       -344.9026886596664099
  Basis Set: 6-31G*
  Basis Set:
  Basis Set: 6-31G*
  Basis Set:
  @DF-RHF Final Energy:  -344.90363966363549
    Total Energy =                       -344.9036396636354311
  Basis Set: 6-31G*
  Basis Set:
  Basis Set: 6-31G*
  Basis Set:
  @DF-RHF Final Energy:  -344.90348938639090
    Total Energy =                       -344.9034893863907314
  Basis Set: 6-31G*
  Basis Set:
  @DF-RHF Final Energy:  -344.90425573708217
    Total Energy =                       -344.9042557370821669
  @DF-RHF Final Energy:  -344.90448691453128
    Total Energy =                       -344.9044869145312191
  Basis Set: 6-31G*
  Basis Set:
  @DF-RHF Final Energy:  -344.90461064884607
    Total Energy =                       -344.9046106488462442
  Basis Set: 6-31G*
  Basis Set:
  Basis Set: 6-31G*
  Basis Set:
  @DF-RHF Final Energy:  -344.90464310497345
    Total Energy =                       -344.9046431049733314
  Basis Set: 6-31G*
  Basis Set:
  Basis Set: 6-31G*
  Basis Set:
  @DF-RHF Final Energy:  -344.90464700637705
    Total Energy =                       -344.9046470063769334
  Basis Set: 6-31G*
  Basis Set:
  Charge       = 0
  Multiplicity = 1
  Basis Set: 6-31G*
  Basis Set:

    Orbital Energies (a.u.)
    -----------------------

    Doubly Occupied:

       1A    -20.605636     2A    -20.544258     3A    -11.372814
       4A    -11.281418     5A    -11.236233     6A    -11.225018
       7A    -11.207847     8A     -1.470386     9A     -1.362753
      10A     -1.078874    11A     -0.999048    12A     -0.939615
      13A     -0.830360    14A     -0.766189    15A     -0.697147
      16A     -0.681938    17A     -0.670930    18A     -0.627865
      19A     -0.611836    20A     -0.569974    21A     -0.561192
      22A     -0.533778    23A     -0.524067    24A     -0.491769
      25A     -0.483894    26A     -0.481515    27A     -0.456039
      28A     -0.434093

  @DF-RHF Final Energy:  -344.90464749760690

   => Energetics <=

    Nuclear Repulsion Energy =            319.2070398583347242
    One-Electron Energy =               -1102.7304028024482250
    Two-Electron Energy =                 438.6187154465067692
    DFT Exchange-Correlation Energy =       0.0000000000000000
    Empirical Dispersion Energy =           0.0000000000000000
    PCM Polarization Energy =               0.0000000000000000
    EFP Energy =                            0.0000000000000000
    Total Energy =                       -344.9046474976067316
    Molecular point group: c1
  Basis Set: 6-31G*
  Basis Set:

  -Total Gradient:
     Atom            X                  Y                   Z
    ------   -----------------  -----------------  -----------------
       1        0.000005938272     0.000053087680     0.000002498386
       2        0.000018105136    -0.000071127814     0.000000849091
       3       -0.003148464630    -0.004125983281     0.003870140587
       4       -0.000031148330     0.000030175139    -0.000016928029
       5       -0.000275525391     0.000515981891    -0.006291351135
       6        0.002673549289     0.003367713574    -0.002310060607
       7       -0.000015060116     0.000000341195     0.000005497042
       8       -0.000024077033    -0.000015915928    -0.000022397489
       9        0.000775309080     0.000258960716     0.004767308244
      10        0.000002751959     0.000002025279    -0.000006487175
      11       -0.000002495389     0.000002957409     0.000012369500
      12       -0.000000431165    -0.000002456485    -0.000004085859
      13        0.000021724172    -0.000021584059    -0.000014437537
      14        0.000004786663     0.000008226044     0.000010747699
      15       -0.000005105295    -0.000001150235    -0.000000988582
      16       -0.000002470756    -0.000000486922    -0.000001058737
      17        0.000002613527    -0.000000764200    -0.000001615398

  **** Optimization is complete! (in 10 steps) ****
    Final optimized geometry and variables:
    Molecular point group: c1

    Geometry (in Angstrom), charge = 0, multiplicity = 1:

    O            0.578335232063     0.911856892372    -0.786467066681
    C            0.358874942881    -0.152239129615    -0.301440284173
    C           -1.007055751762    -0.790948678083    -0.191474041935
    O            1.312714166547    -0.947150132794     0.162467756758
    C           -2.155741633251     0.214430437373    -0.063733486774
    H           -1.110619260813    -1.348045784033    -1.120725948699
    H           -1.001831598902    -1.504270027495     0.622782829333
    C           -1.994495230606     1.198048786000     1.098454702803
    H           -3.064045002677    -0.354693240666     0.113976118388
    H           -2.275027764367     0.757068410040    -0.993732009599
    H           -1.865064187167     0.670381516843     2.040352999625
    H           -2.878602384886     1.820674629547     1.191813487936
    H           -1.142742632480     1.850366906425     0.954024200781
    C            2.646658536494    -0.484845572223     0.047662445006
    H            2.904758769154    -0.323400014304    -0.989045747306
    H            3.265037501695    -1.260831874958     0.471073337441
    H            2.776437707597     0.438079493102     0.594092220477

  Mulliken Charges: (a.u.)
   Center  Symbol    Alpha    Beta     Spin     Total
       1     O     4.28819  4.28819  0.00000 -0.57639
       2     C     2.60700  2.60700  0.00000  0.78599
       3     C     3.20764  3.20764  0.00000 -0.41529
       4     O     4.30515  4.30515  0.00000 -0.61031
       5     C     3.15088  3.15088  0.00000 -0.30175
       6     H     0.39865  0.39865  0.00000  0.20270
       7     H     0.40050  0.40050  0.00000  0.19900
       8     C     3.25049  3.25049  0.00000 -0.50099
       9     H     0.41811  0.41811  0.00000  0.16378
      10     H     0.40865  0.40865  0.00000  0.18271
      11     H     0.42423  0.42423  0.00000  0.15155
      12     H     0.41784  0.41784  0.00000  0.16432
      13     H     0.40400  0.40400  0.00000  0.19201
      14     C     3.09292  3.09292  0.00000 -0.18584
      15     H     0.40896  0.40896  0.00000  0.18208
      16     H     0.40828  0.40828  0.00000  0.18344
      17     H     0.40850  0.40850  0.00000  0.18299

   Total alpha = 28.00000, Total beta = 28.00000, Total charge = -0.00000
