  ==> Input File <==

--------------------------------------------------------------------------
set {
	reference rhf
	basis 6-31G*
}

set_num_threads( 4 )
memory 2 gb

molecule MOL {
0 1

H	 1.832130	 -1.487400	 1.036103
C	 0.988814	 -0.850649	 1.249228
O	 0.464886	 -0.454746	 -0.000158
H	 1.323163	 0.007003	 1.820777
H	 0.255324	 -1.407139	 1.820520
C	 -0.590998	 0.343045	 0.000118
O	 -1.699443	 -0.054298	 0.000227
H	 -0.340329	 1.404368	 0.000207

	symmetry c1
}
set optking {
	frozen_dihedral = ("
		2 3 6 7
	")
}

ee = optimize('scf')
oeprop('DIPOLE', 'QUADRUPOLE', 'MULLIKEN_CHARGES')
f=open( 'psi4out.xyz', 'w' )
f.write( "8  " )
f.write( str(ee) + "\n" )
f.write( MOL.save_string_xyz() )
f.close()
--------------------------------------------------------------------------

    Molecular point group: c1
  Charge       = 0
  Multiplicity = 1
  Basis Set: 6-31G*
  Basis Set:
  @DF-RHF Final Energy:  -227.76816933295379
    Total Energy =                       -227.7681693329536756
    Molecular point group: c1
  Basis Set: 6-31G*
  Basis Set:
  Basis Set: 6-31G*
  Basis Set:
  @DF-RHF Final Energy:  -227.76719953331985
    Total Energy =                       -227.7671995333200528
  Basis Set: 6-31G*
  Basis Set:
  Basis Set: 6-31G*
  Basis Set:
  @DF-RHF Final Energy:  -227.76834978158243
    Total Energy =                       -227.7683497815824012
  Basis Set: 6-31G*
  Basis Set:
  Basis Set: 6-31G*
  Basis Set:
  @DF-RHF Final Energy:  -227.76867282390722
    Total Energy =                       -227.7686728239071954
  Basis Set: 6-31G*
  Basis Set:
  Basis Set: 6-31G*
  Basis Set:
  @DF-RHF Final Energy:  -227.76867939025936
    Total Energy =                       -227.7686793902594218
  Basis Set: 6-31G*
  Basis Set:
  Charge       = 0
  Multiplicity = 1
  Basis Set: 6-31G*
  Basis Set:

    Orbital Energies (a.u.)
    -----------------------

    Doubly Occupied:

       1A    -20.596720     2A    -20.574505     3A    -11.383809
       4A    -11.299244     5A     -1.469690     6A     -1.381681
       7A     -0.986361     8A     -0.834148     9A     -0.737691
      10A     -0.686388    11A     -0.665880    12A     -0.626971
      13A     -0.562998    14A     -0.509978    15A     -0.473049
      16A     -0.457289

  @DF-RHF Final Energy:  -227.76867987102014

   => Energetics <=

    Nuclear Repulsion Energy =            121.7666898446038743
    One-Electron Energy =                -552.5779320180810146
    Two-Electron Energy =                 203.0425623024568438
    DFT Exchange-Correlation Energy =       0.0000000000000000
    Empirical Dispersion Energy =           0.0000000000000000
    PCM Polarization Energy =               0.0000000000000000
    EFP Energy =                            0.0000000000000000
    Total Energy =                       -227.7686798710202822
    Molecular point group: c1
  Basis Set: 6-31G*
  Basis Set:

  -Total Gradient:
     Atom            X                  Y                   Z
    ------   -----------------  -----------------  -----------------
       1       -0.000011472508     0.000013818516    -0.000017845682
       2        0.000419070806     0.000610058800     0.000015160535
       3       -0.000621925126    -0.000892864062    -0.000511572186
       4        0.000008578121     0.000000710363    -0.000002648172
       5        0.000015030247    -0.000013959382     0.000023558378
       6        0.000191550279     0.000261611579     0.001502427034
       7        0.000002586409     0.000037610166    -0.001005714977
       8       -0.000003418227    -0.000016985979    -0.000003364928

  **** Optimization is complete! (in 6 steps) ****
    Final optimized geometry and variables:
    Molecular point group: c1

    Geometry (in Angstrom), charge = 0, multiplicity = 1:

    H            2.041050126532    -1.221228752794     0.716359344773
    C            1.188850039877    -0.591771769092     0.916178429576
    O            0.676180044301    -0.199832190916    -0.343247540226
    H            1.507281342591     0.271847070105     1.491250460721
    H            0.444602536191    -1.147320985686     1.472155766478
    C           -0.399117486338     0.602439603943    -0.320080276139
    O           -1.511536107644     0.219418946662    -0.314430367967
    H           -0.138437298023     1.658826558937    -0.339578495489

  Mulliken Charges: (a.u.)
   Center  Symbol    Alpha    Beta     Spin     Total
       1     H     0.40029  0.40029  0.00000  0.19941
       2     C     3.09384  3.09384  0.00000 -0.18769
       3     O     4.29667  4.29667  0.00000 -0.59335
       4     H     0.41960  0.41960  0.00000  0.16081
       5     H     0.40758  0.40758  0.00000  0.18483
       6     C     2.73416  2.73416  0.00000  0.53168
       7     O     4.22490  4.22490  0.00000 -0.44980
       8     H     0.42295  0.42295  0.00000  0.15410

   Total alpha = 16.00000, Total beta = 16.00000, Total charge = -0.00000
