  ==> Input File <==

--------------------------------------------------------------------------
set {
	reference rhf
	basis cc-pvtz
}

set_num_threads( 4 )
memory 2 gb

molecule MOL {
0 1

H	 0.078996	 -2.551763	 0.299844
C	 -0.800025	 -1.908713	 0.372347
N	 -0.537714	 -0.645117	 0.000000
O	 -1.851563	 -2.324024	 0.744508
C	 -1.522613	 0.412524	 0.000000
H	 0.386299	 -0.438420	 -0.288896
H	 -2.150256	 0.356137	 -0.880771
H	 -1.005621	 1.357208	 0.000000
H	 -2.150256	 0.356137	 0.880771

	symmetry c1
}
set optking {
	frozen_dihedral = ("
		6 3 5 7
	")
}

ee = optimize('scf')
oeprop('DIPOLE', 'QUADRUPOLE', 'MULLIKEN_CHARGES')
f=open( 'psi4out.xyz', 'w' )
f.write( "9  " )
f.write( str(ee) + "\n" )
f.write( MOL.save_string_xyz() )
f.close()
--------------------------------------------------------------------------

    Molecular point group: c1
  Charge       = 0
  Multiplicity = 1
  Basis Set: CC-PVTZ
  Basis Set:
  @DF-RHF Final Energy:  -208.04343150199418
    Total Energy =                       -208.0434315019942062
    Molecular point group: c1
  Basis Set: CC-PVTZ
  Basis Set:
  Basis Set: CC-PVTZ
  Basis Set:
  @DF-RHF Final Energy:  -208.04362157919735
    Total Energy =                       -208.0436215791974064
  Basis Set: CC-PVTZ
  Basis Set:
  Basis Set: CC-PVTZ
  Basis Set:
  @DF-RHF Final Energy:  -208.04362303231557
    Total Energy =                       -208.0436230323155655
  Basis Set: CC-PVTZ
  Basis Set:
  Basis Set: CC-PVTZ
  Basis Set:
  @DF-RHF Final Energy:  -208.04365518170698
    Total Energy =                       -208.0436551817069812
  Basis Set: CC-PVTZ
  Basis Set:
  Basis Set: CC-PVTZ
  Basis Set:
  @DF-RHF Final Energy:  -208.04366724806783
    Total Energy =                       -208.0436672480678055
  Basis Set: CC-PVTZ
  Basis Set:
  Basis Set: CC-PVTZ
  Basis Set:
  @DF-RHF Final Energy:  -208.04367999553534
    Total Energy =                       -208.0436799955352853
  Basis Set: CC-PVTZ
  Basis Set:
  Charge       = 0
  Multiplicity = 1
  Basis Set: CC-PVTZ
  Basis Set:

    Orbital Energies (a.u.)
    -----------------------

    Doubly Occupied:

       1A    -20.516752     2A    -15.584455     3A    -11.336248
       4A    -11.260325     5A     -1.394057     6A     -1.239412
       7A     -0.969793     8A     -0.809014     9A     -0.749029
      10A     -0.645968    11A     -0.629935    12A     -0.596168
      13A     -0.558949    14A     -0.537670    15A     -0.428451
      16A     -0.396763

  @DF-RHF Final Energy:  -208.04368066874815

   => Energetics <=

    Nuclear Repulsion Energy =            122.9044240826635956
    One-Electron Energy =                -526.5902304316412028
    Two-Electron Energy =                 195.6421256802294693
    DFT Exchange-Correlation Energy =       0.0000000000000000
    Empirical Dispersion Energy =           0.0000000000000000
    PCM Polarization Energy =               0.0000000000000000
    EFP Energy =                            0.0000000000000000
    Total Energy =                       -208.0436806687481521
    Molecular point group: c1
  Basis Set: CC-PVTZ
  Basis Set:

  -Total Gradient:
     Atom            X                  Y                   Z
    ------   -----------------  -----------------  -----------------
       1       -0.000004185440    -0.000014762648     0.000010976632
       2        0.000126248366     0.000049667876    -0.000063142962
       3       -0.000021010223    -0.000106623369    -0.000011879098
       4       -0.000053909024     0.000014431593     0.000021207671
       5       -0.000021156748     0.000082937011     0.000022760672
       6       -0.000006180840    -0.000010373563     0.000031682102
       7        0.000001499312    -0.000004346493    -0.000000885470
       8       -0.000020123956    -0.000013746138    -0.000012829249
       9       -0.000001181449     0.000002815729     0.000002109704

  **** Optimization is complete! (in 7 steps) ****
    Final optimized geometry and variables:
    Molecular point group: c1

    Geometry (in Angstrom), charge = 0, multiplicity = 1:

    H            1.249992122596    -1.469365027021     0.031988755288
    C            0.382272706708    -0.809548862589     0.090171762301
    N            0.672307401533     0.461069582105    -0.230057221968
    O           -0.692186241606    -1.204815584897     0.416070964179
    C           -0.333875680002     1.499069221938    -0.264987121167
    H            1.586145671810     0.661648195598    -0.551614015663
    H           -0.989473886897     1.393878644419    -1.120783173413
    H            0.157159180833     2.460242937125    -0.315088111895
    H           -0.935854757553     1.458629830785     0.630140561983

  Mulliken Charges: (a.u.)
   Center  Symbol    Alpha    Beta     Spin     Total
       1     H     0.46419  0.46419  0.00000  0.07162
       2     C     2.87989  2.87989  0.00000  0.24022
       3     N     3.60582  3.60582  0.00000 -0.21164
       4     O     4.21416  4.21416  0.00000 -0.42832
       5     C     3.07602  3.07602  0.00000 -0.15203
       6     H     0.41030  0.41030  0.00000  0.17940
       7     H     0.45326  0.45326  0.00000  0.09349
       8     H     0.45425  0.45425  0.00000  0.09149
       9     H     0.44212  0.44212  0.00000  0.11577

   Total alpha = 16.00000, Total beta = 16.00000, Total charge = -0.00000
