                              Psi4 1.0.54 Driver

  ==> Input File <==

--------------------------------------------------------------------------
set {
	reference rhf
	basis cc-pvtz
}

set_num_threads( 4 )
memory 2 gb

molecule MOL {
0 1

H	 -3.971999	 0.039835	 1.833766
O	 -3.257124	 -0.510878	 1.573256
C	 -2.172131	 0.272929	 1.152718
C	 -1.041922	 -0.648937	 0.741729
H	 -2.460169	 0.902906	 0.313709
H	 -1.841969	 0.928309	 1.956025
C	 0.196029	 0.106276	 0.266738
H	 -1.402224	 -1.305144	 -0.044270
H	 -0.791131	 -1.282959	 1.586145
C	 1.330220	 -0.826136	 -0.155230
H	 -0.077487	 0.753569	 -0.560858
H	 0.549938	 0.758792	 1.062070
C	 2.719700	 -0.407669	 0.328325
H	 1.339388	 -0.911200	 -1.239363
H	 1.119001	 -1.821953	 0.224128
C	 3.241564	 0.893452	 -0.276737
H	 3.418299	 -1.204729	 0.093035
H	 2.711776	 -0.323368	 1.411960
H	 3.254204	 0.841071	 -1.360784
H	 2.634460	 1.745075	 0.005842
H	 4.254264	 1.092401	 0.054971

	symmetry c1
}
set optking {
	frozen_dihedral = ("
		4 7 10 14
	")
}

ee,wfn = optimize('scf', return_wfn=True)
oeprop( wfn, 'DIPOLE', 'QUADRUPOLE', 'MULLIKEN_CHARGES')
f=open( 'psi4out.xyz', 'w' )
f.write( "21  " )
f.write( str(ee) + "\n" )
f.write( MOL.save_string_xyz() )
f.close()
--------------------------------------------------------------------------

    Molecular point group: c1
  Charge       = 0
  Multiplicity = 1
  Basis Set: CC-PVTZ
  Basis Set:
  @DF-RHF Final Energy:  -310.32902331228513
    Total Energy =                       -310.3290233122853579
    Molecular point group: c1
  Basis Set: CC-PVTZ
  Basis Set:
  Basis Set: CC-PVTZ
  Basis Set:
  @DF-RHF Final Energy:  -310.32934110197743
    Total Energy =                       -310.3293411019771497
  Basis Set: CC-PVTZ
  Basis Set:
  Basis Set: CC-PVTZ
  Basis Set:
  @DF-RHF Final Energy:  -310.32936047492171
    Total Energy =                       -310.3293604749217707
  Basis Set: CC-PVTZ
  Basis Set:
  Basis Set: CC-PVTZ
  Basis Set:
  @DF-RHF Final Energy:  -310.32941544833437
    Total Energy =                       -310.3294154483343732
  Basis Set: CC-PVTZ
  Basis Set:
  Basis Set: CC-PVTZ
  Basis Set:
  @DF-RHF Final Energy:  -310.32941965142987
    Total Energy =                       -310.3294196514298164
  Basis Set: CC-PVTZ
  Basis Set:
  Charge       = 0
  Multiplicity = 1
  Basis Set: CC-PVTZ
  Basis Set:

    Orbital Energies (a.u.)
    -----------------------

    Doubly Occupied:

       1A    -20.545473     2A    -11.264894     3A    -11.213429
       4A    -11.212883     5A    -11.211078     6A    -11.209416
       7A    -11.206027     8A     -1.363308     9A     -1.086427
      10A     -1.034531    11A     -0.953803    12A     -0.876539
      13A     -0.809580    14A     -0.778355    15A     -0.696024
      16A     -0.660949    17A     -0.627267    18A     -0.605067
      19A     -0.584532    20A     -0.575340    21A     -0.537732
      22A     -0.522781    23A     -0.508075    24A     -0.489031
      25A     -0.481669    26A     -0.457839    27A     -0.454665
      28A     -0.443866    29A     -0.437655

  @DF-RHF Final Energy:  -310.32942007772721

   => Energetics <=

    Nuclear Repulsion Energy =            313.1705543488677108
    One-Electron Energy =               -1041.3034840909615468
    Two-Electron Energy =                 417.8035096643661745
    DFT Exchange-Correlation Energy =       0.0000000000000000
    Empirical Dispersion Energy =           0.0000000000000000
    PCM Polarization Energy =               0.0000000000000000
    EFP Energy =                            0.0000000000000000
    Total Energy =                       -310.3294200777277183
    Molecular point group: c1
  Basis Set: CC-PVTZ
  Basis Set:

  -Total Gradient:
     Atom            X                  Y                   Z
    ------   -----------------  -----------------  -----------------
       1        0.000006319481     0.000001972965    -0.000001229830
       2        0.000004158259    -0.000007555924    -0.000005563805
       3        0.000001104785     0.000014508531     0.000006093155
       4        0.000923801426    -0.000051772258     0.002524245998
       5       -0.000001149102    -0.000002608822    -0.000001735278
       6        0.000001023708    -0.000001383698    -0.000000608212
       7       -0.000728779846     0.000739957425    -0.003535473244
       8        0.000006101347     0.000007462798    -0.000002383117
       9        0.000000903085    -0.000005332609     0.000001846702
      10       -0.002520391769    -0.003516274810     0.001147408000
      11       -0.000009712810    -0.000000096604    -0.000003864746
      12       -0.000001614963    -0.000001752244    -0.000001963678
      13       -0.000006093762    -0.000015937747    -0.000013573882
      14        0.002334937201     0.002848268120    -0.000105933194
      15        0.000006321743    -0.000009587674    -0.000000071917
      16       -0.000008446718     0.000010736223    -0.000001091731
      17       -0.000005392970    -0.000004390205    -0.000004295355
      18       -0.000004949607    -0.000003135409    -0.000002097411
      19        0.000006818125    -0.000001660460    -0.000004739739
      20        0.000000588410     0.000000700047    -0.000002955009
      21       -0.000005546025    -0.000002117643     0.000007986296

  **** Optimization is complete! (in 6 steps) ****
    Final optimized geometry and variables:
    Molecular point group: c1

    Geometry (in Angstrom), charge = 0, multiplicity = 1:

    H           -4.063059753012     0.227327725244     1.248195173068
    O           -3.350616847803    -0.331703848407     0.999175439749
    C           -2.251633157631     0.439101844486     0.591152554296
    C           -1.126016166920    -0.495617736150     0.198075831628
    H           -2.521270201661     1.069731353398    -0.253436889843
    H           -1.925177897818     1.093362052054     1.397030974549
    C            0.133141508706     0.244017642952    -0.246042014099
    H           -1.480215800842    -1.146108591337    -0.595926857889
    H           -0.895890434493    -1.134730424110     1.044337754412
    C            1.266996079996    -0.703378838438    -0.679092412069
    H           -0.107980578275     0.931541783744    -1.050435793591
    H            0.476007843503     0.859514579438     0.581617207201
    C            2.657460022852    -0.275475609476    -0.204578478999
    H            1.292862198472    -0.767424358375    -1.763168814443
    H            1.066623445387    -1.702435949011    -0.307990614716
    C            3.141600867011     1.039915392541    -0.808849596865
    H            3.367490358750    -1.058190093426    -0.454121677870
    H            2.658177521179    -0.198097294305     0.879588002811
    H            3.182982757703     0.976975397841    -1.891601936319
    H            2.487931567676     1.865649405863    -0.552103466311
    H            4.135708747635     1.287671761326    -0.454697952815

  Mulliken Charges: (a.u.)
   Center  Symbol    Alpha    Beta     Spin     Total
       1     H     0.39749  0.39749  0.00000  0.20502
       2     O     4.19434  4.19434  0.00000 -0.38868
       3     C     2.96380  2.96380  0.00000  0.07239
       4     C     3.08450  3.08450  0.00000 -0.16901
       5     H     0.47484  0.47484  0.00000  0.05032
       6     H     0.47524  0.47524  0.00000  0.04952
       7     C     3.10808  3.10808  0.00000 -0.21617
       8     H     0.45020  0.45020  0.00000  0.09961
       9     H     0.45105  0.45105  0.00000  0.09790
      10     C     3.09560  3.09560  0.00000 -0.19121
      11     H     0.44998  0.44998  0.00000  0.10003
      12     H     0.45481  0.45481  0.00000  0.09038
      13     C     3.08952  3.08952  0.00000 -0.17904
      14     H     0.45204  0.45204  0.00000  0.09592
      15     H     0.44729  0.44729  0.00000  0.10542
      16     C     3.15000  3.15000  0.00000 -0.29999
      17     H     0.44927  0.44927  0.00000  0.10145
      18     H     0.45546  0.45546  0.00000  0.08907
      19     H     0.45506  0.45506  0.00000  0.08989
      20     H     0.45410  0.45410  0.00000  0.09181
      21     H     0.44732  0.44732  0.00000  0.10537

   Total alpha = 29.00000, Total beta = 29.00000, Total charge = -0.00000

*** Psi4 exiting successfully. Buy a developer a beer!
