  ==> Input File <==

--------------------------------------------------------------------------
set {
	reference rhf
	basis 6-31G*
}

set_num_threads( 4 )
memory 2 gb

molecule MOL {
0 1

O	 0.749854	 1.307668	 -0.000040
C	 0.576249	 0.131685	 -0.000108
C	 -0.766779	 -0.556801	 -0.000461
O	 1.568443	 -0.749345	 -0.000005
C	 -1.945214	 0.412366	 0.000161
H	 -0.796911	 -1.211249	 -0.867467
H	 -0.796854	 -1.212390	 0.865687
C	 -3.287791	 -0.317055	 0.000105
H	 -1.876087	 1.060580	 -0.866812
H	 -1.875822	 1.059691	 0.867761
H	 -3.394745	 -0.949193	 -0.877058
H	 -4.111778	 0.388953	 0.000015
H	 -3.394954	 -0.949187	 0.877259
C	 1.630247	 -1.647787	 -1.092795
H	 0.733829	 -2.249129	 -1.141437
H	 2.490679	 -2.273049	 -0.912320
H	 1.747233	 -1.108684	 -2.021876

	symmetry c1
}
set optking {
	frozen_dihedral = ("
		14 4 2 1
	")
}

ee = optimize('scf')
oeprop('DIPOLE', 'QUADRUPOLE', 'MULLIKEN_CHARGES')
f=open( 'psi4out.xyz', 'w' )
f.write( "17  " )
f.write( str(ee) + "\n" )
f.write( MOL.save_string_xyz() )
f.close()
--------------------------------------------------------------------------

    Molecular point group: c1
  Charge       = 0
  Multiplicity = 1
  Basis Set: 6-31G*
  Basis Set:
  @DF-RHF Final Energy:  -344.88138589256329
    Total Energy =                       -344.8813858925632303
    Molecular point group: c1
  Basis Set: 6-31G*
  Basis Set:
  Basis Set: 6-31G*
  Basis Set:
  @DF-RHF Final Energy:  -344.88130481479368
    Total Energy =                       -344.8813048147940208
  Basis Set: 6-31G*
  Basis Set:
  Basis Set: 6-31G*
  Basis Set:
  @DF-RHF Final Energy:  -344.88518157567972
    Total Energy =                       -344.8851815756798374
  Basis Set: 6-31G*
  Basis Set:
  Basis Set: 6-31G*
  Basis Set:
  @DF-RHF Final Energy:  -344.88610834638177
    Total Energy =                       -344.8861083463818886
  Basis Set: 6-31G*
  Basis Set:
  @DF-RHF Final Energy:  -344.88630326650758
    Total Energy =                       -344.8863032665074684
  Basis Set: 6-31G*
  Basis Set:
  @DF-RHF Final Energy:  -344.88634261432372
    Total Energy =                       -344.8863426143236097
  Basis Set: 6-31G*
  Basis Set:
  Basis Set: 6-31G*
  Basis Set:
  @DF-RHF Final Energy:  -344.88634849882095
    Total Energy =                       -344.8863484988212349
  Basis Set: 6-31G*
  Basis Set:
  Basis Set: 6-31G*
  Basis Set:
  @DF-RHF Final Energy:  -344.88635108381811
    Total Energy =                       -344.8863510838180559
  Basis Set: 6-31G*
  Basis Set:
  Charge       = 0
  Multiplicity = 1
  Basis Set: 6-31G*
  Basis Set:

    Orbital Energies (a.u.)
    -----------------------

    Doubly Occupied:

       1A    -20.589573     2A    -20.553474     3A    -11.375175
       4A    -11.294910     5A    -11.242754     6A    -11.226068
       7A    -11.218095     8A     -1.459483     9A     -1.368027
      10A     -1.081848    11A     -0.988711    12A     -0.961254
      13A     -0.836902    14A     -0.765850    15A     -0.700470
      16A     -0.680365    17A     -0.674616    18A     -0.639412
      19A     -0.614446    20A     -0.580718    21A     -0.566276
      22A     -0.546671    23A     -0.518566    24A     -0.494093
      25A     -0.490643    26A     -0.482557    27A     -0.454306
      28A     -0.434718

  @DF-RHF Final Energy:  -344.88635148948782

   => Energetics <=

    Nuclear Repulsion Energy =            313.0090969801076994
    One-Electron Energy =               -1090.1109352885373482
    Two-Electron Energy =                 432.2154868189418266
    DFT Exchange-Correlation Energy =       0.0000000000000000
    Empirical Dispersion Energy =           0.0000000000000000
    PCM Polarization Energy =               0.0000000000000000
    EFP Energy =                            0.0000000000000000
    Total Energy =                       -344.8863514894878790
    Molecular point group: c1
  Basis Set: 6-31G*
  Basis Set:

  -Total Gradient:
     Atom            X                  Y                   Z
    ------   -----------------  -----------------  -----------------
       1        0.000111882524    -0.000174741740    -0.002888590834
       2        0.000369173949     0.001133475671     0.003527563962
       3        0.000007359722    -0.000017270612     0.000005155442
       4       -0.001879734965    -0.002504328244     0.000602472384
       5        0.000002174019     0.000011471751    -0.000048973784
       6        0.000007020310     0.000028401633     0.000015751188
       7        0.000010627625    -0.000002949121     0.000004528299
       8        0.000000706032    -0.000002203753     0.000030739015
       9        0.000007190543    -0.000007670689    -0.000006816176
      10       -0.000006835074     0.000008280549     0.000004236785
      11       -0.000003531094     0.000012008505    -0.000008541756
      12        0.000005229407    -0.000000448825     0.000011723477
      13        0.000002833177    -0.000012413373    -0.000007058240
      14        0.001352839094     0.001534607429    -0.001237190552
      15        0.000015310410    -0.000002203965    -0.000009314489
      16        0.000000971954    -0.000006669822    -0.000006639576
      17       -0.000003217638     0.000002654606     0.000010954853

  **** Optimization is complete! (in 9 steps) ****
    Final optimized geometry and variables:
    Molecular point group: c1

    Geometry (in Angstrom), charge = 0, multiplicity = 1:

    O            0.905640293878     1.492296195887     0.048595785875
    C            0.734138185962     0.324129402270     0.091030163417
    C           -0.629173297699    -0.334110694882     0.092300798829
    O            1.784341974690    -0.518143025861     0.181730193409
    C           -1.779360245356     0.657484714807     0.250189530351
    H           -0.741287475026    -0.889304455590    -0.836537353608
    H           -0.637048198406    -1.075946802348     0.886476235503
    C           -3.140179318607    -0.037060721695     0.249326209337
    H           -1.733438006311     1.386936458699    -0.550404429986
    H           -1.647840784932     1.211977819390     1.173224964768
    H           -3.311891753466    -0.571187117048    -0.681283502241
    H           -3.941999854483     0.684282357380     0.367237202034
    H           -3.219830080647    -0.754363240153     1.061400961905
    C            1.988614390316    -1.474067160170    -0.834594218931
    H            1.239036710744    -2.256344702847    -0.808716246095
    H            2.957970610414    -1.909187533814    -0.648524803296
    H            1.992583142901    -1.004352029167    -1.811481775609

  Mulliken Charges: (a.u.)
   Center  Symbol    Alpha    Beta     Spin     Total
       1     O     4.25245  4.25245  0.00000 -0.50490
       2     C     2.61045  2.61045  0.00000  0.77909
       3     C     3.22093  3.22093  0.00000 -0.44186
       4     O     4.31145  4.31145  0.00000 -0.62291
       5     C     3.15073  3.15073  0.00000 -0.30147
       6     H     0.40632  0.40632  0.00000  0.18737
       7     H     0.40109  0.40109  0.00000  0.19782
       8     C     3.24303  3.24303  0.00000 -0.48605
       9     H     0.40832  0.40832  0.00000  0.18336
      10     H     0.41016  0.41016  0.00000  0.17969
      11     H     0.42223  0.42223  0.00000  0.15555
      12     H     0.41400  0.41400  0.00000  0.17200
      13     H     0.42102  0.42102  0.00000  0.15795
      14     C     3.09349  3.09349  0.00000 -0.18699
      15     H     0.41951  0.41951  0.00000  0.16097
      16     H     0.40012  0.40012  0.00000  0.19977
      17     H     0.41469  0.41469  0.00000  0.17061

   Total alpha = 28.00000, Total beta = 28.00000, Total charge =  0.00000
