  ==> Input File <==

--------------------------------------------------------------------------
set {
	reference rhf
	basis cc-pvtz
}

set_num_threads( 4 )
memory 2 gb

molecule MOL {
0 1

H	 1.055358	 2.411901	 0.638636
O	 1.305493	 1.532529	 0.859066
C	 0.706474	 0.636793	 -0.025501
C	 -0.793473	 0.591216	 0.050087
H	 1.105419	 -0.342265	 0.212388
H	 1.000306	 0.850012	 -1.051610
C	 -1.534243	 -0.493009	 -0.013340
H	 -1.266611	 1.552628	 0.164437
H	 -1.101195	 -1.466332	 -0.144046
H	 -2.604242	 -0.437780	 0.050785

	symmetry c1
}
set optking {
	frozen_dihedral = ("
		5 3 4 7
	")
}

ee = optimize('scf')
oeprop('DIPOLE', 'QUADRUPOLE', 'MULLIKEN_CHARGES')
f=open( 'psi4out.xyz', 'w' )
f.write( "10  " )
f.write( str(ee) + "\n" )
f.write( MOL.save_string_xyz() )
f.close()
--------------------------------------------------------------------------

    Molecular point group: c1
  Charge       = 0
  Multiplicity = 1
  Basis Set: CC-PVTZ
  Basis Set:
  @DF-RHF Final Energy:  -191.99579829396311
    Total Energy =                       -191.9957982939630767
    Molecular point group: c1
  Basis Set: CC-PVTZ
  Basis Set:
  Basis Set: CC-PVTZ
  Basis Set:
  @DF-RHF Final Energy:  -191.99630513466315
    Total Energy =                       -191.9963051346630891
  Basis Set: CC-PVTZ
  Basis Set:
  Basis Set: CC-PVTZ
  Basis Set:
  @DF-RHF Final Energy:  -191.99637761295824
    Total Energy =                       -191.9963776129581845
  Basis Set: CC-PVTZ
  Basis Set:
  Basis Set: CC-PVTZ
  Basis Set:
  @DF-RHF Final Energy:  -191.99638521486753
    Total Energy =                       -191.9963852148675869
  Basis Set: CC-PVTZ
  Basis Set:
  Basis Set: CC-PVTZ
  Basis Set:
  @DF-RHF Final Energy:  -191.99638690097126
    Total Energy =                       -191.9963869009714585
  Basis Set: CC-PVTZ
  Basis Set:
  Charge       = 0
  Multiplicity = 1
  Basis Set: CC-PVTZ
  Basis Set:

    Orbital Energies (a.u.)
    -----------------------

    Doubly Occupied:

       1A    -20.552329     2A    -11.276823     3A    -11.230865
       4A    -11.220645     5A     -1.370762     6A     -1.066655
       7A     -0.923434     8A     -0.781381     9A     -0.695354
      10A     -0.655355    11A     -0.624313    12A     -0.572605
      13A     -0.538282    14A     -0.501835    15A     -0.447321
      16A     -0.372919

  @DF-RHF Final Energy:  -191.99638736638218

   => Energetics <=

    Nuclear Repulsion Energy =            117.3275490369455270
    One-Electron Energy =                -492.9861123168706172
    Two-Electron Energy =                 183.6621759135429670
    DFT Exchange-Correlation Energy =       0.0000000000000000
    Empirical Dispersion Energy =           0.0000000000000000
    PCM Polarization Energy =               0.0000000000000000
    EFP Energy =                            0.0000000000000000
    Total Energy =                       -191.9963873663821232
    Molecular point group: c1
  Basis Set: CC-PVTZ
  Basis Set:

  -Total Gradient:
     Atom            X                  Y                   Z
    ------   -----------------  -----------------  -----------------
       1       -0.000019167678     0.000010527309    -0.000013459383
       2        0.000077175191     0.000027450411     0.000096795743
       3       -0.000240178700    -0.000424719884    -0.002681654975
       4        0.000154237984    -0.000117953516     0.002527311885
       5        0.000090058195     0.000385010368     0.001499918310
       6        0.000017232291    -0.000014614514     0.000006595910
       7       -0.000081118392     0.000141308498    -0.001448536567
       8        0.000007523182    -0.000008260998     0.000001646107
       9       -0.000004111674     0.000005889819     0.000007729267
      10       -0.000001650401    -0.000004637490     0.000003653705

  **** Optimization is complete! (in 6 steps) ****
    Final optimized geometry and variables:
    Molecular point group: c1

    Geometry (in Angstrom), charge = 0, multiplicity = 1:

    H            1.109101425556     1.787663279057     0.400153269787
    O            1.298205661056     0.898479057755     0.638402874527
    C            0.714774981814     0.014987383466    -0.281706725068
    C           -0.785196631134    -0.015625202700    -0.186137213271
    H            1.119450760857    -0.961508236456    -0.057957645110
    H            1.012132220558     0.275268172892    -1.294711021163
    C           -1.517919786613    -1.104723424218    -0.248794069369
    H           -1.268622439936     0.944314946274    -0.099901949533
    H           -1.073345412906    -2.080509384287    -0.330540312375
    H           -2.590073110864    -1.063396474866    -0.216073251899

  Mulliken Charges: (a.u.)
   Center  Symbol    Alpha    Beta     Spin     Total
       1     H     0.39317  0.39317  0.00000  0.21367
       2     O     4.20111  4.20111  0.00000 -0.40223
       3     C     2.95460  2.95460  0.00000  0.09079
       4     C     3.06570  3.06570  0.00000 -0.13140
       5     H     0.45389  0.45389  0.00000  0.09223
       6     H     0.46872  0.46872  0.00000  0.06257
       7     C     3.17023  3.17023  0.00000 -0.34045
       8     H     0.43231  0.43231  0.00000  0.13537
       9     H     0.43139  0.43139  0.00000  0.13722
      10     H     0.42888  0.42888  0.00000  0.14224

   Total alpha = 16.00000, Total beta = 16.00000, Total charge = -0.00000
