  ==> Input File <==

--------------------------------------------------------------------------
set {
	reference rhf
	basis 6-31G*
}

set_num_threads( 4 )
memory 2 gb

molecule MOL {
0 1

H	 -0.918835	 -1.069102	 -0.860973
N	 -0.626943	 -0.667432	 -0.000092
C	 -1.393964	 -0.965282	 1.188050
C	 0.469286	 0.129090	 0.000148
H	 -2.420410	 -0.630417	 1.081843
H	 -0.941703	 -0.449186	 2.019214
H	 -1.394924	 -2.030575	 1.393431
C	 1.788933	 -0.616240	 -0.000037
O	 0.411098	 1.327768	 -0.000049
H	 1.872803	 -1.245775	 -0.880381
H	 2.595421	 0.101576	 0.003713
H	 1.870096	 -1.252171	 0.875943

	symmetry c1
}
set optking {
	frozen_dihedral = ("
		3 2 4 9
	")
}

ee = optimize('scf')
oeprop('DIPOLE', 'QUADRUPOLE', 'MULLIKEN_CHARGES')
f=open( 'psi4out.xyz', 'w' )
f.write( "12  " )
f.write( str(ee) + "\n" )
f.write( MOL.save_string_xyz() )
f.close()
--------------------------------------------------------------------------

    Molecular point group: c1
  Charge       = 0
  Multiplicity = 1
  Basis Set: 6-31G*
  Basis Set:
  @DF-RHF Final Energy:  -246.96446807440273
    Total Energy =                       -246.9644680744024754
    Molecular point group: c1
  Basis Set: 6-31G*
  Basis Set:
  Basis Set: 6-31G*
  Basis Set:
  @DF-RHF Final Energy:  -246.96796881349096
    Total Energy =                       -246.9679688134909838
  Basis Set: 6-31G*
  Basis Set:
  Basis Set: 6-31G*
  Basis Set:
  @DF-RHF Final Energy:  -246.96958186203742
    Total Energy =                       -246.9695818620374439
  Basis Set: 6-31G*
  Basis Set:
  Basis Set: 6-31G*
  Basis Set:
  @DF-RHF Final Energy:  -246.97264190240807
    Total Energy =                       -246.9726419024080997
  Basis Set: 6-31G*
  Basis Set:
  @DF-RHF Final Energy:  -246.97541184100115
    Total Energy =                       -246.9754118410013461
  @DF-RHF Final Energy:  -246.97583370030287
    Total Energy =                       -246.9758337003027009
  @DF-RHF Final Energy:  -246.97967988623438
    Total Energy =                       -246.9796798862342939
  @DF-RHF Final Energy:  -246.98118199537237
    Total Energy =                       -246.9811819953723102
  @DF-RHF Final Energy:  -246.98169605667900
    Total Energy =                       -246.9816960566790840
  @DF-RHF Final Energy:  -246.98200443550724
    Total Energy =                       -246.9820044355071786
  @DF-RHF Final Energy:  -246.98259479471247
    Total Energy =                       -246.9825947947123268
  Basis Set: 6-31G*
  Basis Set:
  @DF-RHF Final Energy:  -246.98289358981091
    Total Energy =                       -246.9828935898107716
  Basis Set: 6-31G*
  Basis Set:
  Basis Set: 6-31G*
  Basis Set:
  @DF-RHF Final Energy:  -246.98292745055375
    Total Energy =                       -246.9829274505535750
  Basis Set: 6-31G*
  Basis Set:
  Basis Set: 6-31G*
  Basis Set:
  @DF-RHF Final Energy:  -246.98293298581322
    Total Energy =                       -246.9829329858131928
  Basis Set: 6-31G*
  Basis Set:
  Charge       = 0
  Multiplicity = 1
  Basis Set: 6-31G*
  Basis Set:

    Orbital Energies (a.u.)
    -----------------------

    Doubly Occupied:

       1A    -20.544622     2A    -15.569275     3A    -11.350461
       4A    -11.261728     5A    -11.237135     6A     -1.404264
       7A     -1.223587     8A     -1.014612     9A     -0.930975
      10A     -0.769911    11A     -0.690950    12A     -0.651483
      13A     -0.634081    14A     -0.600131    15A     -0.583068
      16A     -0.564601    17A     -0.548192    18A     -0.502827
      19A     -0.428294    20A     -0.394641

  @DF-RHF Final Energy:  -246.98293314363897

   => Energetics <=

    Nuclear Repulsion Energy =            180.5776230799889674
    One-Electron Energy =                -693.3114401148460502
    Two-Electron Energy =                 265.7508838912181091
    DFT Exchange-Correlation Energy =       0.0000000000000000
    Empirical Dispersion Energy =           0.0000000000000000
    PCM Polarization Energy =               0.0000000000000000
    EFP Energy =                            0.0000000000000000
    Total Energy =                       -246.9829331436390021
    Molecular point group: c1
  Basis Set: 6-31G*
  Basis Set:

  -Total Gradient:
     Atom            X                  Y                   Z
    ------   -----------------  -----------------  -----------------
       1       -0.000007104722     0.000010856921     0.000000457437
       2       -0.005759235869     0.013353040206    -0.004866303787
       3        0.004162956432    -0.008369384003    -0.000242775561
       4        0.001058653906    -0.008027919500     0.016984589023
       5        0.000002144107    -0.000001493282    -0.000004253554
       6        0.000002362419     0.000001013302    -0.000007682257
       7       -0.000000242335     0.000001395637    -0.000001270550
       8       -0.000010286561     0.000022130809    -0.000051083129
       9        0.000545887370     0.003021437262    -0.011846372117
      10        0.000004723929    -0.000007447211     0.000012887630
      11        0.000003798599    -0.000004274208     0.000006817678
      12       -0.000003657276     0.000000644062     0.000014989187

  **** Optimization is complete! (in 15 steps) ****
    Final optimized geometry and variables:
    Molecular point group: c1

    Geometry (in Angstrom), charge = 0, multiplicity = 1:

    H           -0.741531418024    -1.151510843074    -0.948785579719
    N           -0.864987672376    -0.334353838384    -0.383242159135
    C           -1.577383171491    -0.727936955945     0.832440594355
    C            0.385240479316     0.280965494621    -0.168664995952
    H           -2.536752682161    -1.143767630903     0.554316441235
    H           -1.751796037748     0.147961383596     1.441567003813
    H           -1.038016177256    -1.464787219815     1.425955245171
    C            1.605417329530    -0.567005616025    -0.459989290996
    O            0.470121765049     1.428663905668     0.128396529452
    H            1.583661415796    -0.909738889778    -1.490939531193
    H            2.501638515117     0.013704433685    -0.298028078705
    H            1.619274205463    -1.446913479259     0.176620548162

  Mulliken Charges: (a.u.)
   Center  Symbol    Alpha    Beta     Spin     Total
       1     H     0.32596  0.32596  0.00000  0.34809
       2     N     3.86124  3.86124  0.00000 -0.72249
       3     C     3.15977  3.15977  0.00000 -0.31954
       4     C     2.65924  2.65924  0.00000  0.68152
       5     H     0.40757  0.40757  0.00000  0.18486
       6     H     0.39716  0.39716  0.00000  0.20568
       7     H     0.42585  0.42585  0.00000  0.14830
       8     C     3.29692  3.29692  0.00000 -0.59383
       9     O     4.25867  4.25867  0.00000 -0.51733
      10     H     0.40628  0.40628  0.00000  0.18744
      11     H     0.39265  0.39265  0.00000  0.21469
      12     H     0.40869  0.40869  0.00000  0.18262

   Total alpha = 20.00000, Total beta = 20.00000, Total charge = -0.00000
