                              Psi4 1.0.54 Driver

  ==> Input File <==

--------------------------------------------------------------------------
set {
	reference rhf
	basis cc-pvtz
}

set_num_threads( 4 )
memory 2 gb

molecule MOL {
0 1

O	 -2.071633	 -1.227563	 -0.223463
C	 -1.652164	 -0.152425	 0.058082
C	 -0.327811	 0.006324	 0.778296
C	 -2.402515	 1.108629	 -0.298924
C	 0.843231	 -0.001575	 -0.211665
H	 -0.319484	 0.928173	 1.350354
H	 -0.227804	 -0.823091	 1.466705
C	 2.197693	 0.138030	 0.476937
H	 0.722944	 0.805202	 -0.930230
H	 0.813976	 -0.926978	 -0.776588
C	 2.446923	 1.542222	 1.016651
H	 2.263934	 -0.578880	 1.290679
H	 2.983293	 -0.123627	 -0.225850
H	 1.696245	 1.819629	 1.749155
H	 2.418283	 2.277813	 0.220124
H	 3.416722	 1.610405	 1.495442
H	 -3.240910	 0.874416	 -0.936711
H	 -1.747554	 1.818823	 -0.790984
H	 -2.760419	 1.579708	 0.610998

	symmetry c1
}
set optking {
	frozen_dihedral = ("
		11 8 5 9
	")
}

ee,wfn = optimize('scf', return_wfn=True)
oeprop( wfn, 'DIPOLE', 'QUADRUPOLE', 'MULLIKEN_CHARGES')
f=open( 'psi4out.xyz', 'w' )
f.write( "19  " )
f.write( str(ee) + "\n" )
f.write( MOL.save_string_xyz() )
f.close()
--------------------------------------------------------------------------

    Molecular point group: c1
  Charge       = 0
  Multiplicity = 1
  Basis Set: CC-PVTZ
  Basis Set:
  @DF-RHF Final Energy:  -309.17525236932244
    Total Energy =                       -309.1752523693219814
    Molecular point group: c1
  Basis Set: CC-PVTZ
  Basis Set:
  Basis Set: CC-PVTZ
  Basis Set:
  @DF-RHF Final Energy:  -309.17550893312546
    Total Energy =                       -309.1755089331251156
  Basis Set: CC-PVTZ
  Basis Set:
  Basis Set: CC-PVTZ
  Basis Set:
  @DF-RHF Final Energy:  -309.17558834855907
    Total Energy =                       -309.1755883485592449
  Basis Set: CC-PVTZ
  Basis Set:
  Basis Set: CC-PVTZ
  Basis Set:
  @DF-RHF Final Energy:  -309.17541103617640
    Total Energy =                       -309.1754110361766834
  Basis Set: CC-PVTZ
  Basis Set:
  Basis Set: CC-PVTZ
  Basis Set:
  @DF-RHF Final Energy:  -309.17559006903986
    Total Energy =                       -309.1755900690396857
  Basis Set: CC-PVTZ
  Basis Set:
  Basis Set: CC-PVTZ
  Basis Set:
  @DF-RHF Final Energy:  -309.17558937896251
    Total Energy =                       -309.1755893789628544
  Basis Set: CC-PVTZ
  Basis Set:
  Basis Set: CC-PVTZ
  Basis Set:
  @DF-RHF Final Energy:  -309.17559539693832
    Total Energy =                       -309.1755953969379789
  Basis Set: CC-PVTZ
  Basis Set:
  Charge       = 0
  Multiplicity = 1
  Basis Set: CC-PVTZ
  Basis Set:

    Orbital Energies (a.u.)
    -----------------------

    Doubly Occupied:

       1A    -20.536821     2A    -11.319343     3A    -11.229150
       4A    -11.227455     5A    -11.226907     6A    -11.223461
       7A    -11.215174     8A     -1.396963     9A     -1.092765
      10A     -1.029230    11A     -0.983247    12A     -0.899717
      13A     -0.800893    14A     -0.736476    15A     -0.660620
      16A     -0.652233    17A     -0.620756    18A     -0.608267
      19A     -0.600192    20A     -0.570261    21A     -0.553548
      22A     -0.539755    23A     -0.522835    24A     -0.500110
      25A     -0.482127    26A     -0.474833    27A     -0.466581
      28A     -0.399528

  @DF-RHF Final Energy:  -309.17559552368243

   => Energetics <=

    Nuclear Repulsion Energy =            304.8773595314660270
    One-Electron Energy =               -1022.9674198910911400
    Two-Electron Energy =                 408.9144648359430221
    DFT Exchange-Correlation Energy =       0.0000000000000000
    Empirical Dispersion Energy =           0.0000000000000000
    PCM Polarization Energy =               0.0000000000000000
    EFP Energy =                            0.0000000000000000
    Total Energy =                       -309.1755955236820910
    Molecular point group: c1
  Basis Set: CC-PVTZ
  Basis Set:

  -Total Gradient:
     Atom            X                  Y                   Z
    ------   -----------------  -----------------  -----------------
       1        0.000002453979     0.000015018927    -0.000002897963
       2        0.000005773921     0.000009866133     0.000001930593
       3        0.000003009770    -0.000003997122    -0.000002936960
       4       -0.000017216447    -0.000014554188     0.000012890206
       5        0.000742513261    -0.000676182593    -0.001304130247
       6       -0.000000182384    -0.000004561636    -0.000003188639
       7       -0.000002934827     0.000004940091    -0.000001891894
       8       -0.000593291526    -0.000188494758     0.001222757751
       9       -0.000487463634     0.000624858508     0.000816543200
      10        0.000000048360     0.000005215565     0.000003547107
      11        0.000338500353     0.000235153593    -0.000731296091
      12       -0.000000601370     0.000001744692    -0.000001538602
      13       -0.000004101489     0.000000874296     0.000000225121
      14        0.000000368212    -0.000000368581    -0.000001159579
      15        0.000003181561    -0.000001980155     0.000001935477
      16       -0.000005215040    -0.000001360679    -0.000002908084
      17        0.000005524842     0.000000672175    -0.000000002820
      18        0.000003947523    -0.000007318616    -0.000002241469
      19        0.000005684938     0.000000474348    -0.000005637108

  **** Optimization is complete! (in 8 steps) ****
    Final optimized geometry and variables:
    Molecular point group: c1

    Geometry (in Angstrom), charge = 0, multiplicity = 1:

    O           -1.885347413257    -1.504459647533    -0.477653508881
    C           -1.511415032595    -0.413906329044    -0.191225405068
    C           -0.208501182844    -0.204065434143     0.554614766939
    C           -2.301472936970     0.817356636096    -0.566410391883
    C            0.977608074589    -0.165376798487    -0.420202858025
    H           -0.256002204784     0.712141051802     1.131158774705
    H           -0.086142883396    -1.033826992802     1.239096365177
    C            2.334214457563    -0.000614051776     0.267432887284
    H            0.837219528578     0.646552604782    -1.129236127044
    H            0.973574483401    -1.086551095406    -0.990438871380
    C            2.590998788099     1.392346093015     0.836279063667
    H            2.430369061753    -0.742472531334     1.054732239222
    H            3.110597598860    -0.225486710468    -0.456771320363
    H            1.881824959753     1.653037056430     1.613352989160
    H            2.524047505458     2.146945490871     0.059429099878
    H            3.582311700233     1.453294651538     1.269776584567
    H           -3.114389736446     0.551045349510    -1.224260637438
    H           -1.663535882008     1.553680651540    -1.041989032468
    H           -2.699933022592     1.272463534699     0.334768696872

  Mulliken Charges: (a.u.)
   Center  Symbol    Alpha    Beta     Spin     Total
       1     O     4.17702  4.17702  0.00000 -0.35404
       2     C     2.85677  2.85677  0.00000  0.28645
       3     C     3.10037  3.10037  0.00000 -0.20074
       4     C     3.15587  3.15587  0.00000 -0.31174
       5     C     3.10551  3.10551  0.00000 -0.21103
       6     H     0.44869  0.44869  0.00000  0.10262
       7     H     0.43924  0.43924  0.00000  0.12151
       8     C     3.09112  3.09112  0.00000 -0.18224
       9     H     0.45202  0.45202  0.00000  0.09596
      10     H     0.43529  0.43529  0.00000  0.12942
      11     C     3.15145  3.15145  0.00000 -0.30290
      12     H     0.45172  0.45172  0.00000  0.09656
      13     H     0.44587  0.44587  0.00000  0.10825
      14     H     0.45495  0.45495  0.00000  0.09010
      15     H     0.45455  0.45455  0.00000  0.09090
      16     H     0.44457  0.44457  0.00000  0.11085
      17     H     0.43570  0.43570  0.00000  0.12861
      18     H     0.45083  0.45083  0.00000  0.09834
      19     H     0.44845  0.44845  0.00000  0.10310

   Total alpha = 28.00000, Total beta = 28.00000, Total charge =  0.00000

*** Psi4 exiting successfully. Buy a developer a beer!
