  ==> Input File <==

--------------------------------------------------------------------------
set {
	reference rhf
	basis cc-pvtz
}

set_num_threads( 4 )
memory 2 gb

molecule MOL {
0 1

H	 1.355422	 -1.345685	 -0.175438
C	 0.788096	 -0.429819	 0.000000
N	 -0.537714	 -0.645117	 0.000000
O	 1.326235	 0.618584	 0.167262
C	 -1.522613	 0.412524	 0.000000
H	 -0.845894	 -1.585866	 0.000000
H	 -2.150256	 0.356137	 -0.880771
H	 -1.005621	 1.357208	 0.000000
H	 -2.150256	 0.356137	 0.880771

	symmetry c1
}
set optking {
	frozen_dihedral = ("
		1 2 3 6
	")
}

ee = optimize('scf')
oeprop('DIPOLE', 'QUADRUPOLE', 'MULLIKEN_CHARGES')
f=open( 'psi4out.xyz', 'w' )
f.write( "9  " )
f.write( str(ee) + "\n" )
f.write( MOL.save_string_xyz() )
f.close()
--------------------------------------------------------------------------

    Molecular point group: c1
  Charge       = 0
  Multiplicity = 1
  Basis Set: CC-PVTZ
  Basis Set:
  @DF-RHF Final Energy:  -208.04241386426926
    Total Energy =                       -208.0424138642691787
    Molecular point group: c1
  Basis Set: CC-PVTZ
  Basis Set:
  Basis Set: CC-PVTZ
  Basis Set:
  @DF-RHF Final Energy:  -208.04246029478367
    Total Energy =                       -208.0424602947836661
  Basis Set: CC-PVTZ
  Basis Set:
  Basis Set: CC-PVTZ
  Basis Set:
  @DF-RHF Final Energy:  -208.04322160740833
    Total Energy =                       -208.0432216074082703
  Basis Set: CC-PVTZ
  Basis Set:
  Basis Set: CC-PVTZ
  Basis Set:
  @DF-RHF Final Energy:  -208.04335927249429
    Total Energy =                       -208.0433592724945129
  Basis Set: CC-PVTZ
  Basis Set:
  @DF-RHF Final Energy:  -208.04337651984781
    Total Energy =                       -208.0433765198478113
  @DF-RHF Final Energy:  -208.04345031486815
    Total Energy =                       -208.0434503148680960
  @DF-RHF Final Energy:  -208.04352445135439
    Total Energy =                       -208.0435244513543012
  @DF-RHF Final Energy:  -208.04360969319649
    Total Energy =                       -208.0436096931964585
  Basis Set: CC-PVTZ
  Basis Set:
  @DF-RHF Final Energy:  -208.04362836503998
    Total Energy =                       -208.0436283650399218
  Basis Set: CC-PVTZ
  Basis Set:
  Basis Set: CC-PVTZ
  Basis Set:
  @DF-RHF Final Energy:  -208.04363786203180
    Total Energy =                       -208.0436378620318578
  Basis Set: CC-PVTZ
  Basis Set:
  Basis Set: CC-PVTZ
  Basis Set:
  @DF-RHF Final Energy:  -208.04363976379966
    Total Energy =                       -208.0436397637997175
  Basis Set: CC-PVTZ
  Basis Set:
  Charge       = 0
  Multiplicity = 1
  Basis Set: CC-PVTZ
  Basis Set:

    Orbital Energies (a.u.)
    -----------------------

    Doubly Occupied:

       1A    -20.517499     2A    -15.584533     3A    -11.336891
       4A    -11.259779     5A     -1.394677     6A     -1.239540
       7A     -0.969514     8A     -0.808450     9A     -0.748671
      10A     -0.646431    11A     -0.630105    12A     -0.595962
      13A     -0.557523    14A     -0.539133    15A     -0.429128
      16A     -0.397175

  @DF-RHF Final Energy:  -208.04364011113859

   => Energetics <=

    Nuclear Repulsion Energy =            122.8546713602149083
    One-Electron Energy =                -526.4865970805309416
    Two-Electron Energy =                 195.5882856091773760
    DFT Exchange-Correlation Energy =       0.0000000000000000
    Empirical Dispersion Energy =           0.0000000000000000
    PCM Polarization Energy =               0.0000000000000000
    EFP Energy =                            0.0000000000000000
    Total Energy =                       -208.0436401111386431
    Molecular point group: c1
  Basis Set: CC-PVTZ
  Basis Set:

  -Total Gradient:
     Atom            X                  Y                   Z
    ------   -----------------  -----------------  -----------------
       1        0.000091591674     0.000131098791    -0.000493060536
       2       -0.000154724398    -0.000186291898     0.000815550603
       3        0.000179704894     0.000114976632    -0.000940895169
       4        0.000000936015     0.000002084020    -0.000000590746
       5        0.000004838673    -0.000009081180    -0.000012449472
       6       -0.000119395958    -0.000056285142     0.000622382111
       7        0.000006072627     0.000014100569    -0.000015369921
       8        0.000010128689     0.000003510815     0.000024865576
       9       -0.000019152217    -0.000014112606    -0.000000432447

  **** Optimization is complete! (in 12 steps) ****
    Final optimized geometry and variables:
    Molecular point group: c1

    Geometry (in Angstrom), charge = 0, multiplicity = 1:

    H            1.373071830994    -1.347220494967    -0.124019435954
    C            0.785571303297    -0.437008008645     0.010479944598
    N           -0.515638898550    -0.614041550618    -0.275181380440
    O            1.281407204169     0.589305237849     0.352198194752
    C           -1.496925230451     0.433053108366    -0.097753012563
    H           -0.829015955050    -1.542034124101    -0.419237346160
    H           -2.365129122003     0.210101917456    -0.701684938405
    H           -1.077751209816     1.373190445883    -0.419293915871
    H           -1.803600956054     0.532059186475     0.937206657853

  Mulliken Charges: (a.u.)
   Center  Symbol    Alpha    Beta     Spin     Total
       1     H     0.46367  0.46367  0.00000  0.07267
       2     C     2.88041  2.88041  0.00000  0.23918
       3     N     3.60598  3.60598  0.00000 -0.21195
       4     O     4.21331  4.21331  0.00000 -0.42662
       5     C     3.07805  3.07805  0.00000 -0.15610
       6     H     0.41134  0.41134  0.00000  0.17732
       7     H     0.45358  0.45358  0.00000  0.09284
       8     H     0.43852  0.43852  0.00000  0.12296
       9     H     0.45514  0.45514  0.00000  0.08971

   Total alpha = 16.00000, Total beta = 16.00000, Total charge =  0.00000
