  ==> Input File <==

--------------------------------------------------------------------------
set {
	reference rhf
	basis 6-31G*
}

set_num_threads( 4 )
memory 2 gb

molecule MOL {
0 1

H	 -3.879900	 -1.756648	 -0.908243
C	 -2.810782	 -1.643242	 -0.938393
C	 -2.110460	 -1.993751	 -2.082876
C	 -2.137690	 -1.147197	 0.166966
H	 -2.633693	 -2.378334	 -2.939433
C	 -0.735799	 -1.847649	 -2.120888
H	 -2.682245	 -0.876020	 1.053266
C	 -0.761661	 -1.000093	 0.131191
H	 -0.177569	 -2.113743	 -2.997954
C	 -0.056880	 -1.350482	 -1.014355
H	 -0.236721	 -0.616632	 0.984253
C	 1.424035	 -1.212391	 -1.106423
O	 1.970282	 -0.730723	 0.000018
O	 2.060841	 -1.502171	 -2.070459
C	 3.377318	 -0.566646	 -0.000065
H	 3.695437	 -0.028981	 -0.881264
H	 3.789299	 -1.563704	 0.000236
H	 3.695516	 -0.028316	 0.880770

	symmetry c1
}
set optking {
	frozen_dihedral = ("
		12 13 15 16
	")
}

ee = optimize('scf')
oeprop('DIPOLE', 'QUADRUPOLE', 'MULLIKEN_CHARGES')
f=open( 'psi4out.xyz', 'w' )
f.write( "18  " )
f.write( str(ee) + "\n" )
f.write( MOL.save_string_xyz() )
f.close()
--------------------------------------------------------------------------

    Molecular point group: c1
  Charge       = 0
  Multiplicity = 1
  Basis Set: 6-31G*
  Basis Set:
  @DF-RHF Final Energy:  -457.34895085340088
    Total Energy =                       -457.3489508534007655
    Molecular point group: c1
  Basis Set: 6-31G*
  Basis Set:
  Basis Set: 6-31G*
  Basis Set:
  @DF-RHF Final Energy:  -457.35014234915991
    Total Energy =                       -457.3501423491597961
  Basis Set: 6-31G*
  Basis Set:
  Basis Set: 6-31G*
  Basis Set:
  @DF-RHF Final Energy:  -457.34993849112595
    Total Energy =                       -457.3499384911256129
  Basis Set: 6-31G*
  Basis Set:
  Basis Set: 6-31G*
  Basis Set:
  @DF-RHF Final Energy:  -457.35048328984459
    Total Energy =                       -457.3504832898445329
  Basis Set: 6-31G*
  Basis Set:
  Basis Set: 6-31G*
  Basis Set:
  @DF-RHF Final Energy:  -457.35048583670954
    Total Energy =                       -457.3504858367089128
  Basis Set: 6-31G*
  Basis Set:
  Charge       = 0
  Multiplicity = 1
  Basis Set: 6-31G*
  Basis Set:

    Orbital Energies (a.u.)
    -----------------------

    Doubly Occupied:

       1A    -20.607598     2A    -20.544391     3A    -11.378034
       4A    -11.282857     5A    -11.245542     6A    -11.245239
       7A    -11.244101     8A    -11.241665     9A    -11.237435
      10A    -11.236673    11A     -1.472618    12A     -1.363957
      13A     -1.165245    14A     -1.048081    15A     -1.024769
      16A     -0.978250    17A     -0.860149    18A     -0.834281
      19A     -0.777779    20A     -0.739967    21A     -0.683419
      22A     -0.677069    23A     -0.671884    24A     -0.631110
      25A     -0.623931    26A     -0.597758    27A     -0.584920
      28A     -0.561597    29A     -0.529153    30A     -0.516607
      31A     -0.503393    32A     -0.498893    33A     -0.458909
      34A     -0.444381    35A     -0.344830    36A     -0.340944

  @DF-RHF Final Energy:  -457.35048730015495

   => Energetics <=

    Nuclear Repulsion Energy =            492.9785043410202547
    One-Electron Energy =               -1600.2631323226155473
    Two-Electron Energy =                 649.9341406814404536
    DFT Exchange-Correlation Energy =       0.0000000000000000
    Empirical Dispersion Energy =           0.0000000000000000
    PCM Polarization Energy =               0.0000000000000000
    EFP Energy =                            0.0000000000000000
    Total Energy =                       -457.3504873001548958
    Molecular point group: c1
  Basis Set: 6-31G*
  Basis Set:

  -Total Gradient:
     Atom            X                  Y                   Z
    ------   -----------------  -----------------  -----------------
       1       -0.000000080099    -0.000000020748    -0.000000046650
       2       -0.000000777350    -0.000000024804    -0.000004220757
       3       -0.000004170409    -0.000005546615     0.000004175095
       4        0.000000893167     0.000002807376    -0.000000644675
       5       -0.000000386889     0.000000644091    -0.000000424082
       6        0.000004261881     0.000007882901    -0.000000495427
       7       -0.000000008618    -0.000001445209     0.000000328591
       8        0.000001907096    -0.000000812961     0.000002740741
       9       -0.000000057289    -0.000001655995     0.000000060532
      10       -0.000003226852    -0.000001190279    -0.000002396881
      11       -0.000000137794    -0.000000001312    -0.000000753453
      12       -0.000096880163     0.000780782265    -0.000306734937
      13        0.000179133102    -0.001351841657     0.000299089923
      14       -0.000010192681     0.000002774889     0.000003961916
      15       -0.000173283463     0.001428844716     0.000501503975
      16        0.000111343233    -0.000851001427    -0.000497808032
      17        0.000000750526    -0.000008470204     0.000002045565
      18       -0.000009087409    -0.000001725028    -0.000000381444

  **** Optimization is complete! (in 6 steps) ****
    Final optimized geometry and variables:
    Molecular point group: c1

    Geometry (in Angstrom), charge = 0, multiplicity = 1:

    H           -4.031174318072    -0.457076553754    -0.010470800805
    C           -2.961565627376    -0.349120610260    -0.041869780526
    C           -2.264408915266    -0.702472807261    -1.187451541764
    C           -2.284657351007     0.142675209945     1.063020766636
    H           -2.790600531766    -1.083864266004    -2.043667217335
    C           -0.889120143038    -0.563454126694    -1.227029368875
    H           -2.826780568672     0.415959182430     1.950145842043
    C           -0.907925430155     0.282741702446     1.025622755893
    H           -0.333418043450    -0.831913402821    -2.104945114086
    C           -0.206295618655    -0.070413369040    -0.121022329507
    H           -0.380216351146     0.662754118600     1.878481777872
    C            1.275360840608     0.060323641609    -0.215177893668
    O            1.825280826218     0.534108345932     0.892732199606
    O            1.908457731389    -0.229733763068    -1.181640334337
    C            3.230707517755     0.711760450746     0.889627855644
    H            3.543431504238     1.262012186906     0.015440430170
    H            3.728239687647    -0.248090511840     0.899180078644
    H            3.461641854937     1.259628772373     1.789675011230

  Mulliken Charges: (a.u.)
   Center  Symbol    Alpha    Beta     Spin     Total
       1     H     0.39540  0.39540  0.00000  0.20920
       2     C     3.08999  3.08999  0.00000 -0.17998
       3     C     3.10712  3.10712  0.00000 -0.21424
       4     C     3.10717  3.10717  0.00000 -0.21434
       5     H     0.39538  0.39538  0.00000  0.20925
       6     C     3.08641  3.08641  0.00000 -0.17282
       7     H     0.39627  0.39627  0.00000  0.20746
       8     C     3.08714  3.08714  0.00000 -0.17427
       9     H     0.37596  0.37596  0.00000  0.24809
      10     C     3.07718  3.07718  0.00000 -0.15435
      11     H     0.38045  0.38045  0.00000  0.23911
      12     C     2.57960  2.57960  0.00000  0.84079
      13     O     4.31492  4.31492  0.00000 -0.62985
      14     O     4.29185  4.29185  0.00000 -0.58370
      15     C     3.09302  3.09302  0.00000 -0.18603
      16     H     0.40456  0.40456  0.00000  0.19089
      17     H     0.40959  0.40959  0.00000  0.18082
      18     H     0.40801  0.40801  0.00000  0.18398

   Total alpha = 36.00000, Total beta = 36.00000, Total charge =  0.00000
