                              Psi4 1.0.54 Driver

  ==> Input File <==

--------------------------------------------------------------------------
set {
	reference rhf
	basis cc-pvtz
}

set_num_threads( 4 )
memory 2 gb

molecule MOL {
0 1

O	 -2.817697	 1.304178	 0.001046
C	 -2.664672	 0.129869	 0.003507
C	 -3.797908	 -0.860100	 -0.001145
O	 -1.481217	 -0.452708	 0.001092
H	 -4.408836	 -0.679689	 -0.875387
H	 -3.443486	 -1.878443	 -0.002770
H	 -4.412123	 -0.683688	 0.871605
C	 -0.332055	 0.384012	 -0.000250
C	 0.892252	 -0.506059	 -0.000295
H	 -0.360822	 1.020205	 -0.874146
H	 -0.359817	 1.021310	 0.872861
C	 2.188199	 0.299473	 -0.001416
H	 0.857046	 -1.152781	 -0.871031
H	 0.857910	 -1.151798	 0.871202
C	 2.481997	 0.957193	 -1.346857
H	 2.139131	 1.066302	 0.767702
H	 3.018304	 -0.348909	 0.267841
C	 3.777548	 1.761279	 -1.348747
H	 1.653973	 1.606729	 -1.616180
H	 2.531420	 0.191857	 -2.116211
H	 3.745335	 2.557199	 -0.612324
H	 3.956418	 2.214164	 -2.316945
H	 4.629548	 1.131413	 -1.115904

	symmetry c1
}
set optking {
	frozen_dihedral = ("
		16 12 9 13
	")
}

ee,wfn = optimize('scf', return_wfn=True)
oeprop( wfn, 'DIPOLE', 'QUADRUPOLE', 'MULLIKEN_CHARGES')
f=open( 'psi4out.xyz', 'w' )
f.write( "23  " )
f.write( str(ee) + "\n" )
f.write( MOL.save_string_xyz() )
f.close()
--------------------------------------------------------------------------

    Molecular point group: c1
  Charge       = 0
  Multiplicity = 1
  Basis Set: CC-PVTZ
  Basis Set:
  @DF-RHF Final Energy:  -423.13254640628321
    Total Energy =                       -423.1325464062832680
    Molecular point group: c1
  Basis Set: CC-PVTZ
  Basis Set:
  Basis Set: CC-PVTZ
  Basis Set:
  @DF-RHF Final Energy:  -423.13256802102126
    Total Energy =                       -423.1325680210213704
  Basis Set: CC-PVTZ
  Basis Set:
  Basis Set: CC-PVTZ
  Basis Set:
  @DF-RHF Final Energy:  -423.13273844225711
    Total Energy =                       -423.1327384422567093
  Basis Set: CC-PVTZ
  Basis Set:
  Basis Set: CC-PVTZ
  Basis Set:
  @DF-RHF Final Energy:  -423.13289856457391
    Total Energy =                       -423.1328985645741341
  Basis Set: CC-PVTZ
  Basis Set:
  Basis Set: CC-PVTZ
  Basis Set:
  @DF-RHF Final Energy:  -423.13290018851819
    Total Energy =                       -423.1329001885186472
  Basis Set: CC-PVTZ
  Basis Set:
  Charge       = 0
  Multiplicity = 1
  Basis Set: CC-PVTZ
  Basis Set:

    Orbital Energies (a.u.)
    -----------------------

    Doubly Occupied:

       1A    -20.595855     2A    -20.529534     3A    -11.366409
       4A    -11.278995     5A    -11.230666     6A    -11.222519
       7A    -11.221501     8A    -11.219111     9A    -11.210737
      10A     -1.471100    11A     -1.363941    12A     -1.094787
      13A     -1.041637    14A     -1.003471    15A     -0.931955
      16A     -0.848900    17A     -0.793359    18A     -0.781893
      19A     -0.691537    20A     -0.687896    21A     -0.674866
      22A     -0.635634    23A     -0.616690    24A     -0.587976
      25A     -0.579240    26A     -0.573460    27A     -0.562455
      28A     -0.530325    29A     -0.529100    30A     -0.509168
      31A     -0.495229    32A     -0.477173    33A     -0.469991
      34A     -0.463632    35A     -0.452166    36A     -0.439369

  @DF-RHF Final Energy:  -423.13290083261120

   => Energetics <=

    Nuclear Repulsion Energy =            456.0048860673967965
    One-Electron Energy =               -1479.9110187970370589
    Two-Electron Energy =                 600.7732318970288361
    DFT Exchange-Correlation Energy =       0.0000000000000000
    Empirical Dispersion Energy =           0.0000000000000000
    PCM Polarization Energy =               0.0000000000000000
    EFP Energy =                            0.0000000000000000
    Total Energy =                       -423.1329008326114263
    Molecular point group: c1
  Basis Set: CC-PVTZ
  Basis Set:

  -Total Gradient:
     Atom            X                  Y                   Z
    ------   -----------------  -----------------  -----------------
       1       -0.000010938187     0.000011340524    -0.000000579231
       2        0.000020532654    -0.000019571845     0.000019865812
       3       -0.000000991829     0.000003389968     0.000003772752
       4       -0.000009006305     0.000011832289     0.000008112881
       5       -0.000007730488    -0.000002487015    -0.000010283284
       6        0.000000904449     0.000002715002     0.000000422880
       7       -0.000001075575     0.000001263363    -0.000002465485
       8        0.000010754848    -0.000009072747    -0.000040091118
       9        0.000504328976    -0.000818801382     0.000534217926
      10        0.000006478871    -0.000001992441     0.000009514234
      11       -0.000013833218    -0.000000062834     0.000007837877
      12        0.000394425089    -0.000657936967     0.000753155695
      13       -0.000484914102     0.000786285609    -0.000559497663
      14       -0.000003168929     0.000001560856    -0.000002813074
      15        0.000007016557    -0.000021974235    -0.000000969548
      16       -0.000416956000     0.000691606653    -0.000695147383
      17       -0.000004086335     0.000000827964    -0.000001798319
      18        0.000000798029     0.000013519329    -0.000006592861
      19        0.000004934035    -0.000001434817    -0.000002066925
      20        0.000003283471     0.000006863748    -0.000008263477
      21        0.000000540149    -0.000006947071    -0.000000698025
      22        0.000004948503     0.000008301346    -0.000004008270
      23       -0.000006244665     0.000000774704    -0.000001625394

  **** Optimization is complete! (in 6 steps) ****
    Final optimized geometry and variables:
    Molecular point group: c1

    Geometry (in Angstrom), charge = 0, multiplicity = 1:

    O           -2.644527771548     0.942195762066     0.305026396319
    C           -2.472989567539    -0.229648474388     0.314338600797
    C           -3.590730112454    -1.237081882036     0.336595027949
    O           -1.280678249094    -0.793358850720     0.306538189602
    H           -4.217127507399    -1.075062729824    -0.530349257544
    H           -3.220491123950    -2.249809194114     0.340031363998
    H           -4.194747910073    -1.061182779510     1.216622061927
    C           -0.145056158671     0.061785881692     0.285425623198
    C            1.090367421655    -0.816337239743     0.271287929073
    H           -0.205111824791     0.698350552949    -0.584724053202
    H           -0.166101834935     0.696033790786     1.161339893243
    C            2.396036943867    -0.017901913733     0.272804366630
    H            1.049773879327    -1.459711221966    -0.601800453606
    H            1.056364149069    -1.461952990370     1.141606192114
    C            2.740837542046     0.641637707025    -1.062526550512
    H            2.352534282589     0.746506943363     1.045111104384
    H            3.206797431767    -0.684058744192     0.549688871456
    C            4.069058387709     1.390227584268    -1.023929333002
    H            1.954846846560     1.331205856093    -1.352961488715
    H            2.779401208888    -0.120685070690    -1.835738387962
    H            4.051107867268     2.181147232846    -0.281604544843
    H            4.291976934950     1.842792779615    -1.983097877205
    H            4.887192154846     0.722779704294    -0.774507395340

  Mulliken Charges: (a.u.)
   Center  Symbol    Alpha    Beta     Spin     Total
       1     O     4.20253  4.20253  0.00000 -0.40505
       2     C     2.81516  2.81516  0.00000  0.36968
       3     C     3.13953  3.13953  0.00000 -0.27906
       4     O     4.14525  4.14525  0.00000 -0.29050
       5     H     0.44221  0.44221  0.00000  0.11558
       6     H     0.44187  0.44187  0.00000  0.11627
       7     H     0.44215  0.44215  0.00000  0.11570
       8     C     2.97575  2.97575  0.00000  0.04851
       9     C     3.09073  3.09073  0.00000 -0.18147
      10     H     0.45333  0.45333  0.00000  0.09334
      11     H     0.45424  0.45424  0.00000  0.09152
      12     C     3.10583  3.10583  0.00000 -0.21166
      13     H     0.45144  0.45144  0.00000  0.09713
      14     H     0.44432  0.44432  0.00000  0.11135
      15     C     3.08540  3.08540  0.00000 -0.17080
      16     H     0.45324  0.45324  0.00000  0.09352
      17     H     0.44563  0.44563  0.00000  0.10874
      18     C     3.14926  3.14926  0.00000 -0.29852
      19     H     0.45283  0.45283  0.00000  0.09434
      20     H     0.45337  0.45337  0.00000  0.09326
      21     H     0.45409  0.45409  0.00000  0.09183
      22     H     0.44735  0.44735  0.00000  0.10531
      23     H     0.45451  0.45451  0.00000  0.09099

   Total alpha = 36.00000, Total beta = 36.00000, Total charge = -0.00000

*** Psi4 exiting successfully. Buy a developer a beer!
