  ==> Input File <==

--------------------------------------------------------------------------
set {
	reference rhf
	basis cc-pvtz
}

set_num_threads( 4 )
memory 2 gb

molecule MOL {
0 1

H	 1.133016	 -2.442272	 -0.598313
C	 0.480173	 -2.576973	 0.274215
C	 -0.803759	 -1.795328	 0.237510
O	 0.810438	 -3.293223	 1.154865
C	 -0.554654	 -0.292621	 0.086567
H	 -1.364023	 -2.013615	 1.137117
H	 -1.378435	 -2.153226	 -0.614272
C	 -1.846385	 0.513195	 -0.016346
H	 0.024188	 0.060217	 0.935322
H	 0.052404	 -0.111952	 -0.796899
C	 -3.089953	 -0.365049	 -0.098564
H	 -1.798267	 1.154820	 -0.891143
H	 -1.925398	 1.173265	 0.842889
H	 -3.055079	 -1.012299	 -0.968245
H	 -3.988403	 0.236438	 -0.170014
H	 -3.183055	 -0.995885	 0.779079

	symmetry c1
}
set optking {
	frozen_dihedral = ("
		9 5 8 12
	")
}

ee = optimize('scf')
oeprop('DIPOLE', 'QUADRUPOLE', 'MULLIKEN_CHARGES')
f=open( 'psi4out.xyz', 'w' )
f.write( "16  " )
f.write( str(ee) + "\n" )
f.write( MOL.save_string_xyz() )
f.close()
--------------------------------------------------------------------------

    Molecular point group: c1
  Charge       = 0
  Multiplicity = 1
  Basis Set: CC-PVTZ
  Basis Set:
  @DF-RHF Final Energy:  -270.10515628858525
    Total Energy =                       -270.1051562885853059
    Molecular point group: c1
  Basis Set: CC-PVTZ
  Basis Set:
  Basis Set: CC-PVTZ
  Basis Set:
  @DF-RHF Final Energy:  -270.10550825015918
    Total Energy =                       -270.1055082501593461
  Basis Set: CC-PVTZ
  Basis Set:
  Basis Set: CC-PVTZ
  Basis Set:
  @DF-RHF Final Energy:  -270.10891787582875
    Total Energy =                       -270.1089178758287517
  Basis Set: CC-PVTZ
  Basis Set:
  Basis Set: CC-PVTZ
  Basis Set:
  @DF-RHF Final Energy:  -270.10923800695423
    Total Energy =                       -270.1092380069537739
  Basis Set: CC-PVTZ
  Basis Set:
  @DF-RHF Final Energy:  -270.10924525318546
    Total Energy =                       -270.1092452531854065
  Basis Set: CC-PVTZ
  Basis Set:
  @DF-RHF Final Energy:  -270.10938856860446
    Total Energy =                       -270.1093885686045155
  Basis Set: CC-PVTZ
  Basis Set:
  Basis Set: CC-PVTZ
  Basis Set:
  @DF-RHF Final Energy:  -270.10941841527779
    Total Energy =                       -270.1094184152777871
  Basis Set: CC-PVTZ
  Basis Set:
  Basis Set: CC-PVTZ
  Basis Set:
  @DF-RHF Final Energy:  -270.10942002199249
    Total Energy =                       -270.1094200219923209
  Basis Set: CC-PVTZ
  Basis Set:
  Charge       = 0
  Multiplicity = 1
  Basis Set: CC-PVTZ
  Basis Set:

    Orbital Energies (a.u.)
    -----------------------

    Doubly Occupied:

       1A    -20.551703     2A    -11.320783     3A    -11.235170
       4A    -11.233273     5A    -11.228073     6A    -11.217322
       7A     -1.406466     8A     -1.093450     9A     -1.015862
      10A     -0.916267    11A     -0.811166    12A     -0.785539
      13A     -0.680269    14A     -0.649497    15A     -0.640562
      16A     -0.587975    17A     -0.578107    18A     -0.567158
      19A     -0.535216    20A     -0.520252    21A     -0.486660
      22A     -0.475291    23A     -0.466064    24A     -0.411835

  @DF-RHF Final Energy:  -270.10942024085330

   => Energetics <=

    Nuclear Repulsion Energy =            232.5508465085101761
    One-Electron Energy =                -826.4926131012988435
    Two-Electron Energy =                 323.8323463519354846
    DFT Exchange-Correlation Energy =       0.0000000000000000
    Empirical Dispersion Energy =           0.0000000000000000
    PCM Polarization Energy =               0.0000000000000000
    EFP Energy =                            0.0000000000000000
    Total Energy =                       -270.1094202408531828
    Molecular point group: c1
  Basis Set: CC-PVTZ
  Basis Set:

  -Total Gradient:
     Atom            X                  Y                   Z
    ------   -----------------  -----------------  -----------------
       1        0.000014575003     0.000038482579     0.000023275989
       2       -0.000022530256    -0.000089831037    -0.000099053865
       3        0.000135899924     0.000175854066     0.000102190032
       4       -0.000011821520     0.000002455298     0.000020519048
       5        0.001115660174     0.001253469034    -0.001807809506
       6        0.000052528777    -0.000005153717    -0.000023873334
       7       -0.000044682077    -0.000037854836    -0.000024794228
       8        0.000746253048     0.001563941091     0.001714734734
       9       -0.000985875206    -0.001409102329     0.001269553009
      10       -0.000000898794    -0.000068520814     0.000044269671
      11       -0.000018280563     0.000066317890    -0.000000465893
      12       -0.000949121225    -0.001511102745    -0.001183915952
      13       -0.000042458648    -0.000034978116    -0.000018006541
      14        0.000028196366    -0.000000133574     0.000006271362
      15       -0.000007266966     0.000016857994    -0.000007492152
      16       -0.000010178040     0.000039299215    -0.000015402372

  **** Optimization is complete! (in 9 steps) ****
    Final optimized geometry and variables:
    Molecular point group: c1

    Geometry (in Angstrom), charge = 0, multiplicity = 1:

    H            2.014051139614    -1.105076621901    -0.896025144287
    C            1.392570025472    -1.254964077884    -0.003259779800
    C            0.058628121361    -0.560938608364    -0.029504111004
    O            1.790948098149    -1.919578910715     0.889712892439
    C            0.238180499328     0.954383043498    -0.189334596561
    H           -0.469401153515    -0.812025720491     0.879522278987
    H           -0.496936626457    -0.966974284090    -0.869965710599
    C           -1.060416339286     1.797903814566    -0.295362640014
    H            0.810221996101     1.300403023644     0.664245868450
    H            0.853788278834     1.135360976881    -1.063927492075
    C           -2.380353120612     1.034578456493    -0.400959689798
    H           -0.983749410677     2.435924080518    -1.168325656963
    H           -1.118046925772     2.459541941203     0.560482581565
    H           -2.416490265245     0.406327352265    -1.283384095922
    H           -3.202812298484     1.736790626239    -0.470602132152
    H           -2.560760333679     0.406924585618     0.463069580908

  Mulliken Charges: (a.u.)
   Center  Symbol    Alpha    Beta     Spin     Total
       1     H     0.46577  0.46577  0.00000  0.06846
       2     C     2.91097  2.91097  0.00000  0.17807
       3     C     3.07702  3.07702  0.00000 -0.15404
       4     O     4.16411  4.16411  0.00000 -0.32821
       5     C     3.11254  3.11254  0.00000 -0.22509
       6     H     0.44156  0.44156  0.00000  0.11687
       7     H     0.44881  0.44881  0.00000  0.10237
       8     C     3.08678  3.08678  0.00000 -0.17356
       9     H     0.44248  0.44248  0.00000  0.11505
      10     H     0.44845  0.44845  0.00000  0.10311
      11     C     3.15770  3.15770  0.00000 -0.31541
      12     H     0.44952  0.44952  0.00000  0.10095
      13     H     0.44795  0.44795  0.00000  0.10411
      14     H     0.45342  0.45342  0.00000  0.09317
      15     H     0.44247  0.44247  0.00000  0.11507
      16     H     0.45046  0.45046  0.00000  0.09908

   Total alpha = 24.00000, Total beta = 24.00000, Total charge =  0.00000
