                              Psi4 1.0.54 Driver

  ==> Input File <==

--------------------------------------------------------------------------
set {
	reference rhf
	basis cc-pvtz
}

set_num_threads( 4 )
memory 2 gb

molecule MOL {
0 1

H	 2.400361	 -0.179688	 1.320049
C	 1.948180	 -0.217873	 0.320185
C	 0.692262	 0.592428	 0.156232
O	 2.449314	 -0.867488	 -0.530989
C	 -0.554654	 -0.292621	 0.086567
H	 0.791858	 1.203694	 -0.731051
H	 0.617379	 1.254358	 1.016534
C	 -1.846385	 0.513195	 -0.016346
H	 -0.473986	 -0.956115	 -0.769708
H	 -0.597929	 -0.929215	 0.966651
C	 -3.089953	 -0.365049	 -0.098564
H	 -1.798267	 1.154820	 -0.891143
H	 -1.925398	 1.173265	 0.842889
H	 -3.055079	 -1.012299	 -0.968245
H	 -3.988403	 0.236438	 -0.170014
H	 -3.183055	 -0.995885	 0.779079

	symmetry c1
}
set optking {
	frozen_dihedral = ("
		4 2 3 6
	")
}

ee,wfn = optimize('scf', return_wfn=True)
oeprop( wfn, 'DIPOLE', 'QUADRUPOLE', 'MULLIKEN_CHARGES')
f=open( 'psi4out.xyz', 'w' )
f.write( "16  " )
f.write( str(ee) + "\n" )
f.write( MOL.save_string_xyz() )
f.close()
--------------------------------------------------------------------------

    Molecular point group: c1
  Charge       = 0
  Multiplicity = 1
  Basis Set: CC-PVTZ
  Basis Set:
  @DF-RHF Final Energy:  -270.11717741116490
    Total Energy =                       -270.1171774111647892
    Molecular point group: c1
  Basis Set: CC-PVTZ
  Basis Set:
  Basis Set: CC-PVTZ
  Basis Set:
  @DF-RHF Final Energy:  -270.11682781656060
    Total Energy =                       -270.1168278165605443
  Basis Set: CC-PVTZ
  Basis Set:
  Basis Set: CC-PVTZ
  Basis Set:
  @DF-RHF Final Energy:  -270.11739253132333
    Total Energy =                       -270.1173925313233894
  Basis Set: CC-PVTZ
  Basis Set:
  Basis Set: CC-PVTZ
  Basis Set:
  @DF-RHF Final Energy:  -270.11754353255947
    Total Energy =                       -270.1175435325595799
  Basis Set: CC-PVTZ
  Basis Set:
  Basis Set: CC-PVTZ
  Basis Set:
  @DF-RHF Final Energy:  -270.11754172684687
    Total Energy =                       -270.1175417268472074
  Basis Set: CC-PVTZ
  Basis Set:
  Basis Set: CC-PVTZ
  Basis Set:
  @DF-RHF Final Energy:  -270.11754557834422
    Total Energy =                       -270.1175455783441066
  Basis Set: CC-PVTZ
  Basis Set:
  Charge       = 0
  Multiplicity = 1
  Basis Set: CC-PVTZ
  Basis Set:

    Orbital Energies (a.u.)
    -----------------------

    Doubly Occupied:

       1A    -20.552125     2A    -11.321964     3A    -11.233634
       4A    -11.230104     5A    -11.224313     6A    -11.213873
       7A     -1.407431     8A     -1.093493     9A     -1.016691
      10A     -0.906462    11A     -0.813311    12A     -0.785216
      13A     -0.684755    14A     -0.647348    15A     -0.631837
      16A     -0.603018    17A     -0.578712    18A     -0.551470
      19A     -0.528933    20A     -0.508848    21A     -0.484781
      22A     -0.479986    23A     -0.475885    24A     -0.410704

  @DF-RHF Final Energy:  -270.11754573094265

   => Energetics <=

    Nuclear Repulsion Energy =            231.1504382175564558
    One-Electron Energy =                -823.7661734201328727
    Two-Electron Energy =                 322.4981894716336228
    DFT Exchange-Correlation Energy =       0.0000000000000000
    Empirical Dispersion Energy =           0.0000000000000000
    PCM Polarization Energy =               0.0000000000000000
    EFP Energy =                            0.0000000000000000
    Total Energy =                       -270.1175457309427657
    Molecular point group: c1
  Basis Set: CC-PVTZ
  Basis Set:

  -Total Gradient:
     Atom            X                  Y                   Z
    ------   -----------------  -----------------  -----------------
       1       -0.000005681665     0.000000938652    -0.000000869233
       2        0.000772951839     0.001109110668    -0.000293195129
       3       -0.000663505532    -0.001028068515    -0.000419733150
       4       -0.000481438921    -0.000679919494     0.000271109075
       5        0.000001955053     0.000003591559    -0.000000136405
       6        0.000370045014     0.000602262559     0.000442735842
       7        0.000006855948    -0.000002594838     0.000007044300
       8       -0.000001397496    -0.000002826968    -0.000009936424
       9       -0.000001045473    -0.000004168464     0.000001196645
      10       -0.000000998042     0.000002794308    -0.000002849303
      11        0.000000555265    -0.000001058161     0.000005493071
      12        0.000000273588     0.000001285639    -0.000001415429
      13        0.000002821726    -0.000000837634    -0.000001312127
      14        0.000000244678     0.000001873326     0.000000347811
      15       -0.000000275404     0.000000192758     0.000001882337
      16       -0.000001360575    -0.000002575395    -0.000000361882

  **** Optimization is complete! (in 7 steps) ****
    Final optimized geometry and variables:
    Molecular point group: c1

    Geometry (in Angstrom), charge = 0, multiplicity = 1:

    H            2.542414333205    -0.128653879834     1.284060072858
    C            2.033780585075    -0.128510463280     0.312625581374
    C            0.784242291936     0.711699735903     0.205748971712
    O            2.457731422330    -0.785294888978    -0.574816623036
    C           -0.471940006491    -0.163661308488     0.141606323970
    H            0.864769246271     1.312442512419    -0.693331505306
    H            0.728708275817     1.386658483180     1.053147158501
    C           -1.753616384304     0.653608588398     0.012618849361
    H           -0.379398111272    -0.841111130485    -0.699490195976
    H           -0.527835505371    -0.782342816010     1.033817215593
    C           -3.005353401519    -0.214694372953    -0.052840241849
    H           -1.694766267601     1.270792258850    -0.879290135769
    H           -1.831982083019     1.337482538931     0.853232841209
    H           -2.970406448774    -0.887056100330    -0.903135305428
    H           -3.897665205586     0.392886761800    -0.147458881572
    H           -3.109988304146    -0.819222833114     0.841835669781

  Mulliken Charges: (a.u.)
   Center  Symbol    Alpha    Beta     Spin     Total
       1     H     0.45735  0.45735  0.00000  0.08530
       2     C     2.91635  2.91635  0.00000  0.16730
       3     C     3.08222  3.08222  0.00000 -0.16444
       4     O     4.16786  4.16786  0.00000 -0.33571
       5     C     3.09447  3.09447  0.00000 -0.18894
       6     H     0.44314  0.44314  0.00000  0.11373
       7     H     0.45032  0.45032  0.00000  0.09936
       8     C     3.08484  3.08484  0.00000 -0.16968
       9     H     0.44076  0.44076  0.00000  0.11848
      10     H     0.45242  0.45242  0.00000  0.09517
      11     C     3.14916  3.14916  0.00000 -0.29831
      12     H     0.45204  0.45204  0.00000  0.09592
      13     H     0.45426  0.45426  0.00000  0.09148
      14     H     0.45272  0.45272  0.00000  0.09457
      15     H     0.44747  0.44747  0.00000  0.10506
      16     H     0.45464  0.45464  0.00000  0.09072

   Total alpha = 24.00000, Total beta = 24.00000, Total charge =  0.00000

*** Psi4 exiting successfully. Buy a developer a beer!
