  ==> Input File <==

--------------------------------------------------------------------------
set {
	reference rhf
	basis 6-31G*
}

set_num_threads( 4 )
memory 2 gb

molecule MOL {
0 1

H	 2.703921	 -0.934456	 0.330059
N	 2.332695	 -0.069570	 0.000000
C	 0.936681	 -0.007078	 0.000000
H	 2.777073	 0.699688	 0.453375
C	 0.227108	 -0.002120	 -1.198267
C	 0.227108	 -0.002120	 1.198267
H	 0.761569	 -0.014657	 -2.132680
C	 -1.156334	 0.010459	 -1.192360
H	 0.761569	 -0.014657	 2.132680
C	 -1.156334	 0.010459	 1.192360
H	 -1.684791	 0.014915	 -2.129421
C	 -1.862085	 0.017996	 0.000000
H	 -1.684791	 0.014915	 2.129421
H	 -2.936703	 0.028387	 0.000000

	symmetry c1
}
set optking {
	frozen_dihedral = ("
		1 2 3 5
	")
}

ee = optimize('scf')
oeprop('DIPOLE', 'QUADRUPOLE', 'MULLIKEN_CHARGES')
f=open( 'psi4out.xyz', 'w' )
f.write( "14  " )
f.write( str(ee) + "\n" )
f.write( MOL.save_string_xyz() )
f.close()
--------------------------------------------------------------------------

    Molecular point group: c1
  Charge       = 0
  Multiplicity = 1
  Basis Set: 6-31G*
  Basis Set:
  @DF-RHF Final Energy:  -285.72239593788970
    Total Energy =                       -285.7223959378898144
    Molecular point group: c1
  Basis Set: 6-31G*
  Basis Set:
  Basis Set: 6-31G*
  Basis Set:
  @DF-RHF Final Energy:  -285.72420225488185
    Total Energy =                       -285.7242022548820159
  Basis Set: 6-31G*
  Basis Set:
  Basis Set: 6-31G*
  Basis Set:
  @DF-RHF Final Energy:  -285.72455892522868
    Total Energy =                       -285.7245589252285640
  Basis Set: 6-31G*
  Basis Set:
  Basis Set: 6-31G*
  Basis Set:
  @DF-RHF Final Energy:  -285.72457948416940
    Total Energy =                       -285.7245794841692259
  Basis Set: 6-31G*
  Basis Set:
  Charge       = 0
  Multiplicity = 1
  Basis Set: 6-31G*
  Basis Set:

    Orbital Energies (a.u.)
    -----------------------

    Doubly Occupied:

       1A    -15.547229     2A    -11.259178     3A    -11.229890
       4A    -11.227907     5A    -11.225887     6A    -11.225636
       7A    -11.220492     8A     -1.205259     9A     -1.126396
      10A     -1.011494    11A     -0.985730    12A     -0.826302
      13A     -0.806320    14A     -0.700856    15A     -0.659123
      16A     -0.645448    17A     -0.624963    18A     -0.589513
      19A     -0.582241    20A     -0.505292    21A     -0.494928
      22A     -0.491902    23A     -0.408700    24A     -0.330972
      25A     -0.323018

  @DF-RHF Final Energy:  -285.72458112792725

   => Energetics <=

    Nuclear Repulsion Energy =            272.3058928331700486
    One-Electron Energy =                -925.5515951599605842
    Two-Electron Energy =                 367.5211211988631135
    DFT Exchange-Correlation Energy =       0.0000000000000000
    Empirical Dispersion Energy =           0.0000000000000000
    PCM Polarization Energy =               0.0000000000000000
    EFP Energy =                            0.0000000000000000
    Total Energy =                       -285.7245811279273653
    Molecular point group: c1
  Basis Set: 6-31G*
  Basis Set:

  -Total Gradient:
     Atom            X                  Y                   Z
    ------   -----------------  -----------------  -----------------
       1        0.000071401848     0.000401098516     0.001192062743
       2       -0.000010436077    -0.000096284248    -0.001522416201
       3       -0.000103675570    -0.001205105470     0.000159770466
       4       -0.000005859152    -0.000004981888     0.000038293567
       5        0.000123262084     0.000931389894     0.000011979831
       6       -0.000032811536    -0.000022506751     0.000079661944
       7        0.000014378503     0.000008377623     0.000004909328
       8       -0.000065770606    -0.000054052521     0.000069415469
       9       -0.000006899551     0.000002151048    -0.000016746642
      10        0.000052378063    -0.000023681846     0.000013711063
      11        0.000007028280     0.000004361543     0.000010665695
      12       -0.000009225527     0.000069823540    -0.000060393878
      13       -0.000027733945     0.000001051592    -0.000006625081
      14       -0.000006036816    -0.000011641033     0.000025711695

  **** Optimization is complete! (in 5 steps) ****
    Final optimized geometry and variables:
    Molecular point group: c1

    Geometry (in Angstrom), charge = 0, multiplicity = 1:

    H            2.722313950553    -0.910655060076     0.251615627956
    N            2.359662096705    -0.027563333231    -0.054355665458
    C            0.927468038766    -0.015745004439    -0.001923185912
    H            2.743673005571     0.670121005894     0.553453722244
    C            0.224266931347    -0.008693384785    -1.197136803303
    C            0.222097608669     0.005394592750     1.195771309970
    H            0.776837314913    -0.012586756708    -2.118405561976
    C           -1.161853987788     0.006549073606    -1.197364962525
    H            0.760133158820     0.003004587850     2.128616342553
    C           -1.162725616657     0.029660240423     1.196872417705
    H           -1.694888840814     0.009536373334    -2.131558398966
    C           -1.859679372907     0.027469688334    -0.001127121483
    H           -1.695862429915     0.047878072594     2.130909357795
    H           -2.934912189759     0.044212633815    -0.000951605102

  Mulliken Charges: (a.u.)
   Center  Symbol    Alpha    Beta     Spin     Total
       1     H     0.32477  0.32477  0.00000  0.35046
       2     N     3.93706  3.93706  0.00000 -0.87413
       3     C     2.90561  2.90561  0.00000  0.18878
       4     H     0.32627  0.32627  0.00000  0.34747
       5     C     3.09762  3.09762  0.00000 -0.19523
       6     C     3.11073  3.11073  0.00000 -0.22147
       7     H     0.39289  0.39289  0.00000  0.21422
       8     C     3.09979  3.09979  0.00000 -0.19958
       9     H     0.40330  0.40330  0.00000  0.19340
      10     C     3.09937  3.09937  0.00000 -0.19874
      11     H     0.39961  0.39961  0.00000  0.20079
      12     C     3.10263  3.10263  0.00000 -0.20526
      13     H     0.39999  0.39999  0.00000  0.20001
      14     H     0.40036  0.40036  0.00000  0.19928

   Total alpha = 25.00000, Total beta = 25.00000, Total charge =  0.00000
