  ==> Input File <==

--------------------------------------------------------------------------
set {
	reference rhf
	basis 6-31G*
}

set_num_threads( 1 )
memory 2 gb

molecule MOL {
0 1

O	 1.896221	 1.205833	 0.436253
C	 1.705091	 0.115954	 0.001797
C	 0.381791	 -0.609817	 0.001258
O	 2.657213	 -0.620137	 -0.557461
C	 -0.823008	 0.326187	 0.001381
H	 0.371250	 -1.265087	 -0.865474
H	 0.370908	 -1.265746	 0.867490
C	 -2.149452	 -0.435131	 -0.000098
H	 -0.770201	 0.977095	 -0.865636
H	 -0.771220	 0.975655	 0.869608
C	 -3.368779	 0.488503	 -0.000883
H	 -2.193746	 -1.087250	 -0.871175
H	 -2.195311	 -1.087803	 0.870418
C	 -4.693822	 -0.272754	 -0.001129
H	 -3.325798	 1.139422	 -0.871284
H	 -3.326423	 1.139959	 0.869145
H	 -4.781274	 -0.907928	 -0.878124
H	 -5.538651	 0.408946	 -0.001420
H	 -4.781694	 -0.907783	 0.875984
C	 3.952960	 -0.052948	 -0.622970
H	 3.939792	 0.858914	 -1.202507
H	 4.574815	 -0.792293	 -1.103117
H	 4.324394	 0.161901	 0.368686

	symmetry c1
}
set optking {
	frozen_dihedral = ("
		15 11 8 12,
		9 5 8 12,
		9 5 3 6,
		1 2 4 20
	")
}

ee = energy('scf')
oeprop('DIPOLE', 'QUADRUPOLE', 'MULLIKEN_CHARGES')
f=open( 'psi4out.xyz', 'w' )
f.write( "23  " )
f.write( str(ee) + "\n" )
f.write( MOL.save_string_xyz() )
f.close()
--------------------------------------------------------------------------

    Molecular point group: c1

    Geometry (in Angstrom), charge = 0, multiplicity = 1:

       Center              X                  Y                   Z               Mass
    ------------   -----------------  -----------------  -----------------  -----------------
           O          1.906400576712     1.187207541666     0.523409494539    15.994914619560
           C          1.715270576712     0.097328541666     0.088953494539    12.000000000000
           C          0.391970576712    -0.628442458334     0.088414494539    12.000000000000
           O          2.667392576712    -0.638762458334    -0.470304505461    15.994914619560
           C         -0.812828423288     0.307561541666     0.088537494539    12.000000000000
           H          0.381429576712    -1.283712458334    -0.778317505461     1.007825032070
           H          0.381087576712    -1.284371458334     0.954646494539     1.007825032070
           C         -2.139272423288    -0.453756458334     0.087058494539    12.000000000000
           H         -0.760021423288     0.958469541666    -0.778479505461     1.007825032070
           H         -0.761040423288     0.957029541666     0.956764494539     1.007825032070
           C         -3.358599423288     0.469877541666     0.086273494539    12.000000000000
           H         -2.183566423288    -1.105875458334    -0.784018505461     1.007825032070
           H         -2.185131423288    -1.106428458334     0.957574494539     1.007825032070
           C         -4.683642423288    -0.291379458334     0.086027494539    12.000000000000
           H         -3.315618423288     1.120796541666    -0.784127505461     1.007825032070
           H         -3.316243423288     1.121333541666     0.956301494539     1.007825032070
           H         -4.771094423288    -0.926553458334    -0.790967505461     1.007825032070
           H         -5.528471423288     0.390320541666     0.085736494539     1.007825032070
           H         -4.771514423288    -0.926408458334     0.963140494539     1.007825032070
           C          3.963139576712    -0.071573458334    -0.535813505461    12.000000000000
           H          3.949971576712     0.840288541666    -1.115350505461     1.007825032070
           H          4.584994576712    -0.810918458334    -1.015960505461     1.007825032070
           H          4.334573576712     0.143275541666     0.455842494539     1.007825032070

  Charge       = 0
  Multiplicity = 1
  Basis Set: 6-31G*
  Basis Set:

    Orbital Energies (a.u.)
    -----------------------

    Doubly Occupied:

       1A    -20.604374     2A    -20.544677     3A    -11.372136
       4A    -11.280712     5A    -11.234842     6A    -11.221045
       7A    -11.218629     8A    -11.217060     9A    -11.210057
      10A     -1.469391    11A     -1.362527    12A     -1.093883
      13A     -1.043939    14A     -0.987139    15A     -0.932367
      16A     -0.844212    17A     -0.795714    18A     -0.768464
      19A     -0.696108    20A     -0.683127    21A     -0.671499
      22A     -0.652110    23A     -0.608370    24A     -0.599425
      25A     -0.573503    26A     -0.564290    27A     -0.551538
      28A     -0.525104    29A     -0.522073    30A     -0.508086
      31A     -0.484146    32A     -0.471299    33A     -0.466277
      34A     -0.462422    35A     -0.455621    36A     -0.433899

  @DF-RHF Final Energy:  -422.97561821645832

   => Energetics <=

    Nuclear Repulsion Energy =            452.1918358797133806
    One-Electron Energy =               -1472.0748910728384544
    Two-Electron Energy =                 596.9074369766652808
    DFT Exchange-Correlation Energy =       0.0000000000000000
    Empirical Dispersion Energy =           0.0000000000000000
    PCM Polarization Energy =               0.0000000000000000
    EFP Energy =                            0.0000000000000000
    Total Energy =                       -422.9756182164597931

  Mulliken Charges: (a.u.)
   Center  Symbol    Alpha    Beta     Spin     Total
       1     O     4.28614  4.28614  0.00000 -0.57227
       2     C     2.60398  2.60398  0.00000  0.79204
       3     C     3.20975  3.20975  0.00000 -0.41950
       4     O     4.30659  4.30659  0.00000 -0.61317
       5     C     3.15516  3.15516  0.00000 -0.31032
       6     H     0.40094  0.40094  0.00000  0.19813
       7     H     0.39974  0.39974  0.00000  0.20052
       8     C     3.15310  3.15310  0.00000 -0.30621
       9     H     0.41584  0.41584  0.00000  0.16832
      10     H     0.40669  0.40669  0.00000  0.18662
      11     C     3.15176  3.15176  0.00000 -0.30353
      12     H     0.42363  0.42363  0.00000  0.15274
      13     H     0.42335  0.42335  0.00000  0.15331
      14     C     3.23965  3.23965  0.00000 -0.47930
      15     H     0.42176  0.42176  0.00000  0.15649
      16     H     0.42087  0.42087  0.00000  0.15826
      17     H     0.42179  0.42179  0.00000  0.15643
      18     H     0.41839  0.41839  0.00000  0.16322
      19     H     0.42161  0.42161  0.00000  0.15678
      20     C     3.09295  3.09295  0.00000 -0.18590
      21     H     0.40883  0.40883  0.00000  0.18235
      22     H     0.40842  0.40842  0.00000  0.18317
      23     H     0.40908  0.40908  0.00000  0.18184

   Total alpha = 36.00000, Total beta = 36.00000, Total charge = -0.00000
