  ==> Input File <==

--------------------------------------------------------------------------
set {
	reference rhf
	basis 6-31G*
}

set_num_threads( 1 )
memory 2 gb

molecule MOL {
0 1

O	 -1.433945	 -0.347632	 -0.916188
C	 -1.083277	 0.139568	 0.115197
C	 0.323299	 -0.082943	 0.642902
C	 -2.020192	 0.976503	 0.957550
C	 1.355627	 -0.005344	 -0.493127
H	 0.396251	 -1.044647	 1.143147
H	 0.528637	 0.693580	 1.371677
C	 2.786168	 -0.195604	 0.007473
H	 1.132807	 -0.760304	 -1.243899
H	 1.259610	 0.958506	 -0.981915
H	 3.495561	 -0.130713	 -0.811210
H	 2.912696	 -1.165395	 0.480041
H	 3.049284	 0.565503	 0.735850
H	 -2.035649	 0.622192	 1.984143
H	 -3.018119	 0.945119	 0.542951
H	 -1.670803	 2.005420	 0.979018

	symmetry c1
}
set optking {
	frozen_dihedral = ("
		9 5 3 2
	")
}

ee = energy('scf')
oeprop('DIPOLE', 'QUADRUPOLE', 'MULLIKEN_CHARGES')
f=open( 'psi4out.xyz', 'w' )
f.write( "16  " )
f.write( str(ee) + "\n" )
f.write( MOL.save_string_xyz() )
f.close()
--------------------------------------------------------------------------

    Molecular point group: c1

    Geometry (in Angstrom), charge = 0, multiplicity = 1:

       Center              X                  Y                   Z               Mass
    ------------   -----------------  -----------------  -----------------  -----------------
           O         -1.428150984541    -0.430539610049    -0.966589977907    15.994914619560
           C         -1.077482984541     0.056660389951     0.064795022093    12.000000000000
           C          0.329093015459    -0.165850610049     0.592500022093    12.000000000000
           C         -2.014397984541     0.893595389951     0.907148022093    12.000000000000
           C          1.361421015459    -0.088251610049    -0.543528977907    12.000000000000
           H          0.402045015459    -1.127554610049     1.092745022093     1.007825032070
           H          0.534431015459     0.610672389951     1.321275022093     1.007825032070
           C          2.791962015459    -0.278511610049    -0.042928977907    12.000000000000
           H          1.138601015459    -0.843211610049    -1.294300977907     1.007825032070
           H          1.265404015459     0.875598389951    -1.032316977907     1.007825032070
           H          3.501355015459    -0.213620610049    -0.861611977907     1.007825032070
           H          2.918490015459    -1.248302610049     0.429639022093     1.007825032070
           H          3.055078015459     0.482595389951     0.685448022093     1.007825032070
           H         -2.029854984541     0.539284389951     1.933741022093     1.007825032070
           H         -3.012324984541     0.862211389951     0.492549022093     1.007825032070
           H         -1.665008984541     1.922512389951     0.928616022093     1.007825032070

  Charge       = 0
  Multiplicity = 1
  Basis Set: 6-31G*
  Basis Set:

    Orbital Energies (a.u.)
    -----------------------

    Doubly Occupied:

       1A    -20.548994     2A    -11.325880     3A    -11.230983
       4A    -11.229469     5A    -11.223332     6A    -11.214243
       7A     -1.394995     8A     -1.077052     9A     -1.015150
      10A     -0.947523    11A     -0.823165    12A     -0.733404
      13A     -0.655621    14A     -0.651074    15A     -0.619523
      16A     -0.600345    17A     -0.570172    18A     -0.559619
      19A     -0.546395    20A     -0.505892    21A     -0.493146
      22A     -0.479746    23A     -0.473329    24A     -0.399847

  @DF-RHF Final Energy:  -270.03012234457935

   => Energetics <=

    Nuclear Repulsion Energy =            237.1055616677772662
    One-Electron Energy =                -835.6336118993252740
    Two-Electron Energy =                 328.4979278869683412
    DFT Exchange-Correlation Energy =       0.0000000000000000
    Empirical Dispersion Energy =           0.0000000000000000
    PCM Polarization Energy =               0.0000000000000000
    EFP Energy =                            0.0000000000000000
    Total Energy =                       -270.0301223445796950

  Mulliken Charges: (a.u.)
   Center  Symbol    Alpha    Beta     Spin     Total
       1     O     4.26205  4.26205  0.00000 -0.52410
       2     C     2.73558  2.73558  0.00000  0.52883
       3     C     3.20488  3.20488  0.00000 -0.40977
       4     C     3.28896  3.28896  0.00000 -0.57793
       5     C     3.15412  3.15412  0.00000 -0.30823
       6     H     0.40173  0.40173  0.00000  0.19654
       7     H     0.41686  0.41686  0.00000  0.16627
       8     C     3.24074  3.24074  0.00000 -0.48147
       9     H     0.40343  0.40343  0.00000  0.19313
      10     H     0.41912  0.41912  0.00000  0.16176
      11     H     0.41590  0.41590  0.00000  0.16821
      12     H     0.42091  0.42091  0.00000  0.15818
      13     H     0.42281  0.42281  0.00000  0.15438
      14     H     0.40884  0.40884  0.00000  0.18231
      15     H     0.39683  0.39683  0.00000  0.20634
      16     H     0.40723  0.40723  0.00000  0.18554

   Total alpha = 24.00000, Total beta = 24.00000, Total charge = -0.00000
