                              Psi4 1.0.54 Driver

  ==> Input File <==

--------------------------------------------------------------------------
set {
	reference rhf
	basis cc-pvtz
}

set_num_threads( 4 )
memory 2 gb

molecule MOL {
0 1

H	 2.593965	 -2.937794	 -1.888807
C	 2.561456	 -2.238530	 -1.061715
C	 1.302058	 -1.380949	 -1.117599
H	 2.603284	 -2.813297	 -0.142514
H	 3.457318	 -1.628533	 -1.110218
C	 1.215950	 -0.382441	 0.027187
H	 0.420228	 -2.011531	 -1.095109
H	 1.274054	 -0.843974	 -2.062824
N	 0.000002	 0.398953	 -0.040851
H	 1.218808	 -0.918754	 0.971396
H	 2.111223	 0.246502	 0.027457
C	 -1.215959	 -0.382435	 0.027143
H	 -0.000012	 1.086078	 0.683841
C	 -2.451944	 0.502410	 -0.038737
H	 -1.221867	 -1.069392	 -0.813828
H	 -1.259993	 -0.999709	 0.929424
C	 -3.752217	 -0.292550	 0.005776
H	 -2.407325	 1.093801	 -0.946480
H	 -2.431979	 1.206234	 0.790023
H	 -3.817783	 -0.982946	 -0.828547
H	 -4.612613	 0.364348	 -0.042306
H	 -3.830160	 -0.871666	 0.919868

	symmetry c1
}
set optking {
	frozen_dihedral = ("
		10 6 9 12
	")
}

ee,wfn = optimize('scf', return_wfn=True)
oeprop( wfn, 'DIPOLE', 'QUADRUPOLE', 'MULLIKEN_CHARGES')
f=open( 'psi4out.xyz', 'w' )
f.write( "22  " )
f.write( str(ee) + "\n" )
f.write( MOL.save_string_xyz() )
f.close()
--------------------------------------------------------------------------

    Molecular point group: c1
  Charge       = 0
  Multiplicity = 1
  Basis Set: CC-PVTZ
  Basis Set:
  @DF-RHF Final Energy:  -290.48367154857840
    Total Energy =                       -290.4836715485787408
    Molecular point group: c1
  Basis Set: CC-PVTZ
  Basis Set:
  Basis Set: CC-PVTZ
  Basis Set:
  @DF-RHF Final Energy:  -290.39318278718326
    Total Energy =                       -290.3931827871831501
  Basis Set: CC-PVTZ
  Basis Set:
  Basis Set: CC-PVTZ
  Basis Set:
  @DF-RHF Final Energy:  -290.47306186208345
    Total Energy =                       -290.4730618620832274
  Basis Set: CC-PVTZ
  Basis Set:
  Basis Set: CC-PVTZ
  Basis Set:
  @DF-RHF Final Energy:  -290.48686811242419
    Total Energy =                       -290.4868681124240766
  Basis Set: CC-PVTZ
  Basis Set:
  Basis Set: CC-PVTZ
  Basis Set:
  @DF-RHF Final Energy:  -290.48742993208577
    Total Energy =                       -290.4874299320860018
  Basis Set: CC-PVTZ
  Basis Set:
  Basis Set: CC-PVTZ
  Basis Set:
  @DF-RHF Final Energy:  -290.48745684528859
    Total Energy =                       -290.4874568452883068
  Basis Set: CC-PVTZ
  Basis Set:
  Basis Set: CC-PVTZ
  Basis Set:
  @DF-RHF Final Energy:  -290.48745919560815
    Total Energy =                       -290.4874591956080963
  Basis Set: CC-PVTZ
  Basis Set:
  Charge       = 0
  Multiplicity = 1
  Basis Set: CC-PVTZ
  Basis Set:

    Orbital Energies (a.u.)
    -----------------------

    Doubly Occupied:

       1A    -15.527538     2A    -11.236754     3A    -11.235367
       4A    -11.212676     5A    -11.209655     6A    -11.207959
       7A    -11.206625     8A     -1.205101     9A     -1.058308
      10A     -1.028258    11A     -0.929554    12A     -0.874295
      13A     -0.811737    14A     -0.784620    15A     -0.658939
      16A     -0.642712    17A     -0.621744    18A     -0.608882
      19A     -0.574320    20A     -0.553247    21A     -0.552265
      22A     -0.525295    23A     -0.503579    24A     -0.488137
      25A     -0.480152    26A     -0.471960    27A     -0.461022
      28A     -0.458788    29A     -0.359143

  @DF-RHF Final Energy:  -290.48745951464144

   => Energetics <=

    Nuclear Repulsion Energy =            317.8748995436263272
    One-Electron Energy =               -1021.7474567095679276
    Two-Electron Energy =                 413.3850976513001569
    DFT Exchange-Correlation Energy =       0.0000000000000000
    Empirical Dispersion Energy =           0.0000000000000000
    PCM Polarization Energy =               0.0000000000000000
    EFP Energy =                            0.0000000000000000
    Total Energy =                       -290.4874595146413867
    Molecular point group: c1
  Basis Set: CC-PVTZ
  Basis Set:

  -Total Gradient:
     Atom            X                  Y                   Z
    ------   -----------------  -----------------  -----------------
       1       -0.000000132637     0.000021229456     0.000012190176
       2        0.000010065605     0.000008182463    -0.000031997838
       3       -0.000035100810    -0.000053241516     0.000022936998
       4        0.000000832320    -0.000005339790     0.000006334682
       5       -0.000000610008    -0.000005896997     0.000007996830
       6       -0.002239496027    -0.002212014214    -0.001584115919
       7       -0.000006776773     0.000003493137    -0.000004322184
       8        0.000004997829     0.000007863528    -0.000000344206
       9        0.000709145651     0.001294825128     0.002701266296
      10        0.001716384634     0.001532961274     0.000611933346
      11       -0.000003327865     0.000016278487     0.000012053974
      12       -0.000142985730    -0.000626015278    -0.001785896313
      13        0.000001168547    -0.000017029018     0.000008019220
      14       -0.000006923223     0.000032907490     0.000006567139
      15        0.000005974998     0.000014428764     0.000013540689
      16       -0.000002945496    -0.000000734254     0.000012476182
      17        0.000003180974    -0.000015681262    -0.000002221691
      18       -0.000005311318    -0.000003919939     0.000000176202
      19       -0.000002587560    -0.000008422857    -0.000006051578
      20        0.000000169221     0.000002427651    -0.000000003879
      21       -0.000007924209     0.000011157908     0.000000727000
      22        0.000002201878     0.000002539839    -0.000001265125

  **** Optimization is complete! (in 8 steps) ****
    Final optimized geometry and variables:
    Molecular point group: c1

    Geometry (in Angstrom), charge = 0, multiplicity = 1:

    H            2.175565822020    -3.489343458794    -0.994927238686
    C            2.332108550885    -2.638606443290    -0.342356652778
    C            1.271506936973    -1.567290089140    -0.574446045580
    H            2.309601903812    -3.000227362637     0.680463366321
    H            3.328150530585    -2.253966513340    -0.534385045325
    C            1.460904698195    -0.364542061722     0.340884055828
    H            0.290558231305    -2.003628402301    -0.422300465009
    H            1.306654532848    -1.226154484846    -1.603864657910
    N            0.576391367946     0.743929550157     0.036992387445
    H            1.377677501367    -0.683146413536     1.384645245052
    H            2.476357427847    -0.001450614204     0.218593664521
    C           -0.838899785739     0.505385243916     0.229904245727
    H            0.856120279081     1.541703761278     0.565650261360
    C           -1.638890165134     1.787426996978     0.049120257235
    H           -1.175643541157    -0.222249816925    -0.498654530714
    H           -1.054445245920     0.082022481666     1.216232131614
    C           -3.140593762326     1.575155043855     0.204521592772
    H           -1.420957685263     2.196901175408    -0.931223144441
    H           -1.303002640420     2.524543896981     0.774759287695
    H           -3.514199151843     0.869055821861    -0.529446610765
    H           -3.681321024921     2.504796507188     0.071912381682
    H           -3.384942365353     1.188931213638     1.188424255967

  Mulliken Charges: (a.u.)
   Center  Symbol    Alpha    Beta     Spin     Total
       1     H     0.44782  0.44782  0.00000  0.10436
       2     C     3.15239  3.15239  0.00000 -0.30477
       3     C     3.08392  3.08392  0.00000 -0.16785
       4     H     0.45586  0.45586  0.00000  0.08828
       5     H     0.45433  0.45433  0.00000  0.09133
       6     C     3.03479  3.03479  0.00000 -0.06958
       7     H     0.45481  0.45481  0.00000  0.09037
       8     H     0.44947  0.44947  0.00000  0.10105
       9     N     3.64050  3.64050  0.00000 -0.28100
      10     H     0.47021  0.47021  0.00000  0.05959
      11     H     0.45512  0.45512  0.00000  0.08977
      12     C     3.02189  3.02189  0.00000 -0.04378
      13     H     0.44343  0.44343  0.00000  0.11314
      14     C     3.08355  3.08355  0.00000 -0.16710
      15     H     0.45764  0.45764  0.00000  0.08471
      16     H     0.47529  0.47529  0.00000  0.04943
      17     C     3.15310  3.15310  0.00000 -0.30620
      18     H     0.44860  0.44860  0.00000  0.10280
      19     H     0.45906  0.45906  0.00000  0.08187
      20     H     0.45469  0.45469  0.00000  0.09062
      21     H     0.44766  0.44766  0.00000  0.10469
      22     H     0.45587  0.45587  0.00000  0.08826

   Total alpha = 29.00000, Total beta = 29.00000, Total charge =  0.00000

*** Psi4 exiting successfully. Buy a developer a beer!
