  ==> Input File <==

--------------------------------------------------------------------------
set {
	reference rhf
	basis cc-pvtz
}

set_num_threads( 4 )
memory 2 gb

molecule MOL {
0 1

H	 -0.939693	 0.000281	 1.681345
O	 -0.046262	 -0.000157	 1.387678
C	 -0.000837	 0.000006	 -0.025491
C	 -0.475711	 1.352854	 -0.552223
C	 1.424163	 -0.292414	 -0.491336
C	 -0.948127	 -1.109939	 -0.460063
H	 -0.486176	 1.370979	 -1.635900
H	 0.180298	 2.149335	 -0.214078
H	 -1.475359	 1.564932	 -0.194187
H	 1.483227	 -0.334576	 -1.572780
H	 2.106326	 0.481449	 -0.152422
H	 1.763046	 -1.239435	 -0.090369
H	 -0.981585	 -1.188608	 -1.540331
H	 -1.948721	 -0.912010	 -0.096957
H	 -0.623382	 -2.059785	 -0.054418

	symmetry c1
}
set optking {
	frozen_dihedral = ("
		4 3 2 1
	")
}

ee = optimize('scf')
oeprop('DIPOLE', 'QUADRUPOLE', 'MULLIKEN_CHARGES')
f=open( 'psi4out.xyz', 'w' )
f.write( "15  " )
f.write( str(ee) + "\n" )
f.write( MOL.save_string_xyz() )
f.close()
--------------------------------------------------------------------------

    Molecular point group: c1
  Charge       = 0
  Multiplicity = 1
  Basis Set: CC-PVTZ
  Basis Set:
  @DF-RHF Final Energy:  -232.24454980573947
    Total Energy =                       -232.2445498057396662
    Molecular point group: c1
  Basis Set: CC-PVTZ
  Basis Set:
  Basis Set: CC-PVTZ
  Basis Set:
  @DF-RHF Final Energy:  -232.24628744297092
    Total Energy =                       -232.2462874429708108
  Basis Set: CC-PVTZ
  Basis Set:
  Basis Set: CC-PVTZ
  Basis Set:
  @DF-RHF Final Energy:  -232.24668339940504
    Total Energy =                       -232.2466833994047875
  Basis Set: CC-PVTZ
  Basis Set:
  Charge       = 0
  Multiplicity = 1
  Basis Set: CC-PVTZ
  Basis Set:

    Orbital Energies (a.u.)
    -----------------------

    Doubly Occupied:

       1A    -20.542111     2A    -11.280738     3A    -11.210934
       4A    -11.207781     5A    -11.203744     6A     -1.364943
       7A     -1.065203     8A     -0.942848     9A     -0.939709
      10A     -0.778500    11A     -0.672641    12A     -0.624247
      13A     -0.622883    14A     -0.576050    15A     -0.557602
      16A     -0.532682    17A     -0.517035    18A     -0.511265
      19A     -0.504668    20A     -0.458663    21A     -0.428722

  @DF-RHF Final Energy:  -232.24668382556973

   => Energetics <=

    Nuclear Repulsion Energy =            200.6847577158952163
    One-Electron Energy =                -712.7769429087493336
    Two-Electron Energy =                 279.8455013672845553
    DFT Exchange-Correlation Energy =       0.0000000000000000
    Empirical Dispersion Energy =           0.0000000000000000
    PCM Polarization Energy =               0.0000000000000000
    EFP Energy =                            0.0000000000000000
    Total Energy =                       -232.2466838255695620
    Molecular point group: c1
  Basis Set: CC-PVTZ
  Basis Set:

  -Total Gradient:
     Atom            X                  Y                   Z
    ------   -----------------  -----------------  -----------------
       1       -0.000077013131    -0.000846283098     0.000028750841
       2        0.000301980781     0.001126224508    -0.000320968343
       3       -0.000661327077    -0.000350585165    -0.000134696697
       4        0.000520237028     0.000161757083     0.000146497823
       5       -0.000008823354     0.000065312303     0.000234080796
       6       -0.000094503973    -0.000120703089    -0.000028676258
       7       -0.000104874325    -0.000101252910     0.000050044806
       8        0.000113180513    -0.000077672697    -0.000023325497
       9       -0.000013991576     0.000096401335     0.000034706952
      10       -0.000028270777    -0.000073473867     0.000000896035
      11       -0.000010172537     0.000017398047    -0.000021107995
      12        0.000073627663     0.000045246660     0.000036481697
      13        0.000025817320     0.000088689606     0.000033853871
      14       -0.000077728502    -0.000036226083    -0.000027310867
      15        0.000041861946     0.000005167368    -0.000009227166

  **** Optimization is complete! (in 4 steps) ****
    Final optimized geometry and variables:
    Molecular point group: c1

    Geometry (in Angstrom), charge = 0, multiplicity = 1:

    H           -0.830821534143     0.070471852981     1.737077380574
    O            0.041206550107     0.034171481139     1.387080402988
    C           -0.003540290028     0.000130733936    -0.025603622268
    C           -0.469204259261     1.356723476227    -0.550696573558
    C            1.426062460842    -0.283112815620    -0.466983854989
    C           -0.942131425080    -1.113309397358    -0.485369257056
    H           -0.493651477634     1.371806759777    -1.634330782827
    H            0.197965869215     2.137938073364    -0.209106217729
    H           -1.467954259527     1.585877445125    -0.192214338063
    H            1.497113516792    -0.320703803390    -1.547701850036
    H            2.089447999356     0.492015453791    -0.104605949841
    H            1.762589881856    -1.230297707055    -0.064858654943
    H           -0.966403527435    -1.182502580810    -1.566448653579
    H           -1.956694978660    -0.929051935647    -0.143987189086
    H           -0.618764920888    -2.066750330575    -0.086383265754

  Mulliken Charges: (a.u.)
   Center  Symbol    Alpha    Beta     Spin     Total
       1     H     0.39560  0.39560  0.00000  0.20879
       2     O     4.21123  4.21123  0.00000 -0.42245
       3     C     2.87831  2.87831  0.00000  0.24338
       4     C     3.14839  3.14839  0.00000 -0.29679
       5     C     3.14303  3.14303  0.00000 -0.28605
       6     C     3.15187  3.15187  0.00000 -0.30375
       7     H     0.45636  0.45636  0.00000  0.08727
       8     H     0.44721  0.44721  0.00000  0.10558
       9     H     0.45550  0.45550  0.00000  0.08900
      10     H     0.45883  0.45883  0.00000  0.08234
      11     H     0.44790  0.44790  0.00000  0.10420
      12     H     0.44897  0.44897  0.00000  0.10206
      13     H     0.45469  0.45469  0.00000  0.09062
      14     H     0.45616  0.45616  0.00000  0.08767
      15     H     0.44593  0.44593  0.00000  0.10813

   Total alpha = 21.00000, Total beta = 21.00000, Total charge =  0.00000
