  ==> Input File <==

--------------------------------------------------------------------------
set {
	reference rhf
	basis 6-31G*
}

set_num_threads( 1 )
memory 2 gb

molecule MOL {
0 1

O	 2.428043	 2.040201	 -1.520197
C	 2.174708	 1.216246	 -2.344623
C	 0.885414	 0.414997	 -2.318980
C	 3.132308	 0.914866	 -3.479228
C	 -0.038119	 0.760192	 -1.154436
H	 0.378664	 0.568661	 -3.270810
H	 1.149904	 -0.641463	 -2.300517
C	 -1.325353	 -0.066085	 -1.162150
H	 -0.278169	 1.818054	 -1.192281
H	 0.493799	 0.606370	 -0.220868
C	 -2.259874	 0.272531	 0.000494
H	 -1.851993	 0.090189	 -2.102509
H	 -1.077296	 -1.125898	 -1.125680
C	 -3.549786	 -0.549746	 -0.000374
H	 -2.509075	 1.331602	 -0.035378
H	 -1.734750	 0.115848	 0.941074
C	 -4.809590	 0.315458	 -0.000369
H	 -3.560515	 -1.202009	 -0.871156
H	 -3.561123	 -1.202955	 0.869711
H	 -4.844746	 0.956611	 -0.876632
H	 -5.706986	 -0.295590	 -0.001609
H	 -4.845960	 0.954827	 0.877144
H	 2.651676	 1.089684	 -4.437377
H	 4.007737	 1.543577	 -3.394490
H	 3.431883	 -0.128825	 -3.454760

	symmetry c1
}
set optking {
	frozen_dihedral = ("
		9 5 8 12,
		15 11 8 12,
		1 2 3 6,
		9 5 3 6
	")
}

ee = energy('scf')
oeprop('DIPOLE', 'QUADRUPOLE', 'MULLIKEN_CHARGES')
f=open( 'psi4out.xyz', 'w' )
f.write( "25  " )
f.write( str(ee) + "\n" )
f.write( MOL.save_string_xyz() )
f.close()
--------------------------------------------------------------------------

    Molecular point group: c1

    Geometry (in Angstrom), charge = 0, multiplicity = 1:

       Center              X                  Y                   Z               Mass
    ------------   -----------------  -----------------  -----------------  -----------------
           O          2.807716751295     1.443198120627    -0.188722106431    15.994914619560
           C          2.554381751295     0.619243120627    -1.013148106431    12.000000000000
           C          1.265087751295    -0.182005879373    -0.987505106431    12.000000000000
           C          3.511981751295     0.317863120627    -2.147753106431    12.000000000000
           C          0.341554751295     0.163189120627     0.177038893569    12.000000000000
           H          0.758337751295    -0.028341879373    -1.939335106431     1.007825032070
           H          1.529577751295    -1.238465879373    -0.969042106431     1.007825032070
           C         -0.945679248705    -0.663087879373     0.169324893569    12.000000000000
           H          0.101504751295     1.221051120627     0.139193893569     1.007825032070
           H          0.873472751295     0.009367120627     1.110606893569     1.007825032070
           C         -1.880200248705    -0.324471879373     1.331968893569    12.000000000000
           H         -1.472319248705    -0.506813879373    -0.771034106431     1.007825032070
           H         -0.697622248705    -1.722900879373     0.205794893569     1.007825032070
           C         -3.170112248705    -1.146748879373     1.331100893569    12.000000000000
           H         -2.129401248705     0.734599120627     1.296096893569     1.007825032070
           H         -1.355076248705    -0.481154879373     2.272548893569     1.007825032070
           C         -4.429916248705    -0.281544879373     1.331105893569    12.000000000000
           H         -3.180841248705    -1.799011879373     0.460318893569     1.007825032070
           H         -3.181449248705    -1.799957879373     2.201185893569     1.007825032070
           H         -4.465072248705     0.359608120627     0.454842893569     1.007825032070
           H         -5.327312248705    -0.892592879373     1.329865893569     1.007825032070
           H         -4.466286248705     0.357824120627     2.208618893569     1.007825032070
           H          3.031349751295     0.492681120627    -3.105902106431     1.007825032070
           H          4.387410751295     0.946574120627    -2.063015106431     1.007825032070
           H          3.811556751295    -0.725827879373    -2.123285106431     1.007825032070

  Charge       = 0
  Multiplicity = 1
  Basis Set: 6-31G*
  Basis Set:

    Orbital Energies (a.u.)
    -----------------------

    Doubly Occupied:

       1A    -20.550400     2A    -11.326238     3A    -11.231825
       4A    -11.228317     5A    -11.217322     6A    -11.216228
       7A    -11.213695     8A    -11.211860     9A    -11.208727
      10A     -1.395699    11A     -1.093704    12A     -1.056260
      13A     -1.014185    14A     -0.968572    15A     -0.891406
      16A     -0.816121    17A     -0.789371    18A     -0.729789
      19A     -0.658843    20A     -0.652679    21A     -0.626795
      22A     -0.623171    23A     -0.601980    24A     -0.587263
      25A     -0.569368    26A     -0.557967    27A     -0.533044
      28A     -0.530091    29A     -0.515480    30A     -0.490429
      31A     -0.485145    32A     -0.477291    33A     -0.464363
      34A     -0.454563    35A     -0.449136    36A     -0.399246

  @DF-RHF Final Energy:  -387.13073933883794

   => Energetics <=

    Nuclear Repulsion Energy =            439.6973110247293448
    One-Electron Energy =               -1395.9825173730021106
    Two-Electron Energy =                 569.1544670094328922
    DFT Exchange-Correlation Energy =       0.0000000000000000
    Empirical Dispersion Energy =           0.0000000000000000
    PCM Polarization Energy =               0.0000000000000000
    EFP Energy =                            0.0000000000000000
    Total Energy =                       -387.1307393388399305

  Mulliken Charges: (a.u.)
   Center  Symbol    Alpha    Beta     Spin     Total
       1     O     4.26115  4.26115  0.00000 -0.52230
       2     C     2.73568  2.73568  0.00000  0.52863
       3     C     3.21084  3.21084  0.00000 -0.42169
       4     C     3.28663  3.28663  0.00000 -0.57327
       5     C     3.14860  3.14860  0.00000 -0.29721
       6     H     0.41010  0.41010  0.00000  0.17981
       7     H     0.41007  0.41007  0.00000  0.17986
       8     C     3.15642  3.15642  0.00000 -0.31283
       9     H     0.41208  0.41208  0.00000  0.17584
      10     H     0.41216  0.41216  0.00000  0.17568
      11     C     3.15431  3.15431  0.00000 -0.30863
      12     H     0.42467  0.42467  0.00000  0.15065
      13     H     0.42421  0.42421  0.00000  0.15158
      14     C     3.15440  3.15440  0.00000 -0.30880
      15     H     0.41945  0.41945  0.00000  0.16111
      16     H     0.41985  0.41985  0.00000  0.16030
      17     C     3.24045  3.24045  0.00000 -0.48090
      18     H     0.42102  0.42102  0.00000  0.15797
      19     H     0.42035  0.42035  0.00000  0.15930
      20     H     0.42218  0.42218  0.00000  0.15565
      21     H     0.42074  0.42074  0.00000  0.15852
      22     H     0.42071  0.42071  0.00000  0.15858
      23     H     0.40875  0.40875  0.00000  0.18250
      24     H     0.39647  0.39647  0.00000  0.20706
      25     H     0.40871  0.40871  0.00000  0.18259

   Total alpha = 36.00000, Total beta = 36.00000, Total charge = -0.00000
