                              Psi4 1.0.54 Driver

  ==> Input File <==

--------------------------------------------------------------------------
set {
	reference rhf
	basis cc-pvtz
}

set_num_threads( 4 )
memory 2 gb

molecule MOL {
0 1

H	 -2.345464	 -0.406877	 -0.716437
O	 -2.041679	 -0.058866	 0.103463
C	 -0.959304	 0.780994	 -0.094939
C	 0.354905	 0.037902	 -0.006215
H	 -0.985899	 1.279578	 -1.057596
H	 -0.969809	 1.529522	 0.682889
F	 0.412060	 -0.931028	 -0.902708
F	 1.359641	 0.856111	 -0.239961
F	 0.545380	 -0.506387	 1.171682

	symmetry c1
}
set optking {
	frozen_dihedral = ("
		1 2 3 5
	")
}

ee,wfn = optimize('scf', return_wfn=True)
oeprop( wfn, 'DIPOLE', 'QUADRUPOLE', 'MULLIKEN_CHARGES')
f=open( 'psi4out.xyz', 'w' )
f.write( "9  " )
f.write( str(ee) + "\n" )
f.write( MOL.save_string_xyz() )
f.close()
--------------------------------------------------------------------------

    Molecular point group: c1
  Charge       = 0
  Multiplicity = 1
  Basis Set: CC-PVTZ
  Basis Set:
  @DF-RHF Final Energy:  -450.84641673589289
    Total Energy =                       -450.8464167358930581
    Molecular point group: c1
  Basis Set: CC-PVTZ
  Basis Set:
  Basis Set: CC-PVTZ
  Basis Set:
  @DF-RHF Final Energy:  -450.84651030984662
    Total Energy =                       -450.8465103098465079
  Basis Set: CC-PVTZ
  Basis Set:
  Basis Set: CC-PVTZ
  Basis Set:
  @DF-RHF Final Energy:  -450.84653309619722
    Total Energy =                       -450.8465330961975042
  Basis Set: CC-PVTZ
  Basis Set:
  Charge       = 0
  Multiplicity = 1
  Basis Set: CC-PVTZ
  Basis Set:

    Orbital Energies (a.u.)
    -----------------------

    Doubly Occupied:

       1A    -26.336468     2A    -26.335471     3A    -26.332592
       4A    -20.583686     5A    -11.490394     6A    -11.310360
       7A     -1.744425     8A     -1.641327     9A     -1.639658
      10A     -1.407151    11A     -1.049834    12A     -0.927167
      13A     -0.834959    14A     -0.833363    15A     -0.803394
      16A     -0.737603    17A     -0.715691    18A     -0.704686
      19A     -0.669626    20A     -0.662063    21A     -0.645933
      22A     -0.634650    23A     -0.609634    24A     -0.536804
      25A     -0.483884

  @DF-RHF Final Energy:  -450.84653436828586

   => Energetics <=

    Nuclear Repulsion Energy =            277.5290277932834329
    One-Electron Energy =               -1177.4094802695985891
    Two-Electron Energy =                 449.0339181080293542
    DFT Exchange-Correlation Energy =       0.0000000000000000
    Empirical Dispersion Energy =           0.0000000000000000
    PCM Polarization Energy =               0.0000000000000000
    EFP Energy =                            0.0000000000000000
    Total Energy =                       -450.8465343682858588
    Molecular point group: c1
  Basis Set: CC-PVTZ
  Basis Set:

  -Total Gradient:
     Atom            X                  Y                   Z
    ------   -----------------  -----------------  -----------------
       1       -0.001160293427     0.001485292924    -0.000175639166
       2        0.001770749075    -0.002170026754     0.000007719809
       3       -0.001463936030     0.001994157568     0.000848682851
       4        0.000202915555     0.000090469509     0.000028547810
       5        0.000856810745    -0.001297908405    -0.000631013611
       6       -0.000017891080     0.000008454284    -0.000012245246
       7       -0.000053271442    -0.000145212786    -0.000189374639
       8       -0.000113683760    -0.000034307280     0.000074890072
       9       -0.000021399637     0.000069080946     0.000048432110

  **** Optimization is complete! (in 4 steps) ****
    Final optimized geometry and variables:
    Molecular point group: c1

    Geometry (in Angstrom), charge = 0, multiplicity = 1:

    H           -2.332576580439    -0.423063615698    -0.691733327343
    O           -2.032317486539    -0.055687972166     0.119144979451
    C           -0.953519615403     0.787369404761    -0.092714933294
    C            0.354693194043     0.031878441984    -0.009247065142
    H           -0.978076109062     1.266537509852    -1.064171697465
    H           -0.947535867306     1.547054890716     0.674991496151
    F            0.417774009354    -0.918019554528    -0.922182447959
    F            1.365220352150     0.852356308671    -0.217942162278
    F            0.532156561107    -0.531728251537     1.161558091485

  Mulliken Charges: (a.u.)
   Center  Symbol    Alpha    Beta     Spin     Total
       1     H     0.38604  0.38604  0.00000  0.22793
       2     O     4.19229  4.19229  0.00000 -0.38458
       3     C     2.99435  2.99435  0.00000  0.01130
       4     C     2.68043  2.68043  0.00000  0.63915
       5     H     0.46105  0.46105  0.00000  0.07791
       6     H     0.44839  0.44839  0.00000  0.10321
       7     F     4.61582  4.61582  0.00000 -0.23163
       8     F     4.61383  4.61383  0.00000 -0.22765
       9     F     4.60782  4.60782  0.00000 -0.21563

   Total alpha = 25.00000, Total beta = 25.00000, Total charge = -0.00000

*** Psi4 exiting successfully. Buy a developer a beer!
