                              Psi4 1.0.54 Driver

  ==> Input File <==

--------------------------------------------------------------------------
set {
	reference rhf
	basis cc-pvtz
}

set_num_threads( 4 )
memory 2 gb

molecule MOL {
0 1

H	 -2.644180	 -0.653737	 1.272255
C	 -2.092774	 -0.380414	 0.391915
O	 -0.808934	 -0.154049	 0.752536
F	 -2.163230	 -1.351640	 -0.507133
F	 -2.627232	 0.691260	 -0.169301
C	 0.085006	 0.250800	 -0.215074
C	 1.370439	 -0.548013	 -0.012993
Cl	 0.421658	 1.987697	 -0.091007
H	 -0.272219	 0.063284	 -1.212508
F	 1.404200	 -1.065399	 1.188754
F	 2.398027	 0.258550	 -0.134786
F	 1.498537	 -1.508774	 -0.886366

	symmetry c1
}
set optking {
	frozen_dihedral = ("
		10 7 6 9
	")
}

ee,wfn = optimize('scf', return_wfn=True)
oeprop( wfn, 'DIPOLE', 'QUADRUPOLE', 'MULLIKEN_CHARGES')
f=open( 'psi4out.xyz', 'w' )
f.write( "12  " )
f.write( str(ee) + "\n" )
f.write( MOL.save_string_xyz() )
f.close()
--------------------------------------------------------------------------

    Molecular point group: c1
  Charge       = 0
  Multiplicity = 1
  Basis Set: CC-PVTZ
  Basis Set:
  @DF-RHF Final Energy: -1146.60923075355004
    Total Energy =                      -1146.6092307535502641
    Molecular point group: c1
  Basis Set: CC-PVTZ
  Basis Set:
  Basis Set: CC-PVTZ
  Basis Set:
  @DF-RHF Final Energy: -1146.60497903731357
    Total Energy =                      -1146.6049790373140240
  Basis Set: CC-PVTZ
  Basis Set:
  Basis Set: CC-PVTZ
  Basis Set:
  @DF-RHF Final Energy: -1146.61302958706574
    Total Energy =                      -1146.6130295870671034
  Basis Set: CC-PVTZ
  Basis Set:
  Basis Set: CC-PVTZ
  Basis Set:
  @DF-RHF Final Energy: -1146.61340016669169
    Total Energy =                      -1146.6134001666919175
  Basis Set: CC-PVTZ
  Basis Set:
  Basis Set: CC-PVTZ
  Basis Set:
  @DF-RHF Final Energy: -1146.61343560843170
    Total Energy =                      -1146.6134356084319279
  Basis Set: CC-PVTZ
  Basis Set:
  Basis Set: CC-PVTZ
  Basis Set:
  @DF-RHF Final Energy: -1146.61344741798189
    Total Energy =                      -1146.6134474179814333
  Basis Set: CC-PVTZ
  Basis Set:
  Basis Set: CC-PVTZ
  Basis Set:
  @DF-RHF Final Energy: -1146.61344881877903
    Total Energy =                      -1146.6134488187801708
  Basis Set: CC-PVTZ
  Basis Set:
  Charge       = 0
  Multiplicity = 1
  Basis Set: CC-PVTZ
  Basis Set:

    Orbital Energies (a.u.)
    -----------------------

    Doubly Occupied:

       1A   -104.856854     2A    -26.356055     3A    -26.352805
       4A    -26.351304     5A    -26.342671     6A    -26.342451
       7A    -20.639001     8A    -11.522090     9A    -11.482885
      10A    -11.401908    11A    -10.582447    12A     -8.049241
      13A     -8.047248    14A     -8.047182    15A     -1.768455
      16A     -1.723921    17A     -1.664626    18A     -1.658449
      19A     -1.644054    20A     -1.485181    21A     -1.176501
      22A     -1.051187    23A     -0.989970    24A     -0.923979
      25A     -0.862264    26A     -0.857882    27A     -0.852623
      28A     -0.829877    29A     -0.817868    30A     -0.795343
      31A     -0.732830    32A     -0.729705    33A     -0.710942
      34A     -0.708272    35A     -0.685149    36A     -0.679730
      37A     -0.665058    38A     -0.662993    39A     -0.650546
      40A     -0.635525    41A     -0.598051    42A     -0.580543
      43A     -0.524473    44A     -0.477436    45A     -0.470153

  @DF-RHF Final Energy: -1146.61344849040825

   => Energetics <=

    Nuclear Repulsion Energy =            736.3174560055653046
    One-Electron Energy =               -3055.8863527486446401
    Two-Electron Energy =                1172.9554482526709762
    DFT Exchange-Correlation Energy =       0.0000000000000000
    Empirical Dispersion Energy =           0.0000000000000000
    PCM Polarization Energy =               0.0000000000000000
    EFP Energy =                            0.0000000000000000
    Total Energy =                      -1146.6134484904082456
    Molecular point group: c1
  Basis Set: CC-PVTZ
  Basis Set:

  -Total Gradient:
     Atom            X                  Y                   Z
    ------   -----------------  -----------------  -----------------
       1        0.000090508057     0.000032419417     0.000013591567
       2       -0.000181985278    -0.000000935820     0.000040017945
       3       -0.000034184027    -0.000146516633    -0.000037240551
       4        0.000071287710     0.000044001618    -0.000018126657
       5       -0.000134280934    -0.000035870083    -0.000056465705
       6        0.004662377838     0.003332518739    -0.003866499436
       7        0.003579057055     0.005114737522     0.002091928806
       8        0.000087521257     0.000004716593    -0.000081726684
       9       -0.004578206687    -0.003845013059     0.003052172948
      10       -0.003381892766    -0.004482980623    -0.001071251770
      11       -0.000162065884     0.000003337663    -0.000027669475
      12       -0.000018136301    -0.000020415252    -0.000038731025

  **** Optimization is complete! (in 8 steps) ****
    Final optimized geometry and variables:
    Molecular point group: c1

    Geometry (in Angstrom), charge = 0, multiplicity = 1:

    H           -2.795221643694     0.002841133549     1.098953165545
    C           -2.142156436389     0.012463534937     0.246181316118
    O           -0.871701455653     0.133934354843     0.691376671618
    F           -2.289019118766    -1.107053473827    -0.449753913436
    F           -2.465918524004     1.004500261074    -0.566735054170
    C            0.148161177976     0.215007000832    -0.238635431732
    C            1.278593360858    -0.733826760935     0.228073444561
    CL           0.703756164304     1.885167315604    -0.412753979296
    H           -0.195043404833    -0.139179934643    -1.193562457157
    F            1.210011432914    -0.986432896043     1.505721087931
    F            2.469500406500    -0.285935332674    -0.051068759972
    F            1.124468422960    -1.880653546744    -0.404321572660

  Mulliken Charges: (a.u.)
   Center  Symbol    Alpha    Beta     Spin     Total
       1     H     0.45210  0.45210  0.00000  0.09581
       2     C     2.73969  2.73969  0.00000  0.52062
       3     O     4.15246  4.15246  0.00000 -0.30493
       4     F     4.61870  4.61870  0.00000 -0.23740
       5     F     4.61528  4.61528  0.00000 -0.23056
       6     C     2.95472  2.95472  0.00000  0.09057
       7     C     2.66562  2.66562  0.00000  0.66876
       8    CL     8.56885  8.56885  0.00000 -0.13769
       9     H     0.43135  0.43135  0.00000  0.13730
      10     F     4.59725  4.59725  0.00000 -0.19451
      11     F     4.59555  4.59555  0.00000 -0.19110
      12     F     4.60843  4.60843  0.00000 -0.21687

   Total alpha = 45.00000, Total beta = 45.00000, Total charge =  0.00000

*** Psi4 exiting successfully. Buy a developer a beer!
