  ==> Input File <==

--------------------------------------------------------------------------
set {
	reference rhf
	basis 6-31G*
}

set_num_threads( 4 )
memory 2 gb

molecule MOL {
0 1

H	 -3.420663	 1.227371	 -1.044276
O	 -3.452007	 0.283848	 -0.965577
C	 -3.181085	 -0.079926	 0.364119
C	 -1.765924	 0.277073	 0.805136
H	 -3.327791	 -1.152017	 0.410903
H	 -3.905698	 0.375695	 1.036898
C	 -0.938483	 0.954598	 -0.287942
H	 -1.820024	 0.925436	 1.680157
H	 -1.269720	 -0.634454	 1.133953
C	 0.472055	 1.328898	 0.171906
H	 -1.460011	 1.842911	 -0.630899
H	 -0.873062	 0.288648	 -1.146793
C	 1.296207	 2.001242	 -0.929372
H	 0.399807	 1.985833	 1.035408
H	 0.991579	 0.433845	 0.511875
C	 2.746486	 2.315214	 -0.544316
H	 0.800730	 2.920076	 -1.239119
H	 1.304095	 1.352692	 -1.802950
C	 2.898718	 3.364884	 0.558146
H	 3.270360	 2.663527	 -1.431178
H	 3.244565	 1.396853	 -0.239796
H	 2.399110	 4.291023	 0.286488
H	 3.945960	 3.593872	 0.730440
H	 2.480838	 3.027757	 1.500954

	symmetry c1
}
set optking {
	frozen_dihedral = ("
		7 4 3 2
	")
}

ee = optimize('scf')
oeprop('DIPOLE', 'QUADRUPOLE', 'MULLIKEN_CHARGES')
f=open( 'psi4out.xyz', 'w' )
f.write( "24  " )
f.write( str(ee) + "\n" )
f.write( MOL.save_string_xyz() )
f.close()
--------------------------------------------------------------------------

    Molecular point group: c1
  Charge       = 0
  Multiplicity = 1
  Basis Set: 6-31G*
  Basis Set:
  @DF-RHF Final Energy:  -349.23764636448573
    Total Energy =                       -349.2376463644858973
    Molecular point group: c1
  Basis Set: 6-31G*
  Basis Set:
  Basis Set: 6-31G*
  Basis Set:
  @DF-RHF Final Energy:  -349.23809911046033
    Total Energy =                       -349.2380991104603254
  Basis Set: 6-31G*
  Basis Set:
  Basis Set: 6-31G*
  Basis Set:
  @DF-RHF Final Energy:  -349.23928916643439
    Total Energy =                       -349.2392891664345598
  Basis Set: 6-31G*
  Basis Set:
  Basis Set: 6-31G*
  Basis Set:
  @DF-RHF Final Energy:  -349.23932488736261
    Total Energy =                       -349.2393248873626135
  Basis Set: 6-31G*
  Basis Set:
  Basis Set: 6-31G*
  Basis Set:
  @DF-RHF Final Energy:  -349.23932761765224
    Total Energy =                       -349.2393276176525205
  Basis Set: 6-31G*
  Basis Set:
  Basis Set: 6-31G*
  Basis Set:
  @DF-RHF Final Energy:  -349.23933517266869
    Total Energy =                       -349.2393351726686888
  Basis Set: 6-31G*
  Basis Set:
  Charge       = 0
  Multiplicity = 1
  Basis Set: 6-31G*
  Basis Set:

    Orbital Energies (a.u.)
    -----------------------

    Doubly Occupied:

       1A    -20.552978     2A    -11.267954     3A    -11.216169
       4A    -11.214906     5A    -11.214833     6A    -11.213304
       7A    -11.212649     8A    -11.208080     9A     -1.359253
      10A     -1.088759    11A     -1.045894    12A     -0.983869
      13A     -0.917903    14A     -0.853015    15A     -0.793952
      16A     -0.777467    17A     -0.689466    18A     -0.648203
      19A     -0.625336    20A     -0.611614    21A     -0.601772
      22A     -0.586695    23A     -0.556712    24A     -0.543557
      25A     -0.515918    26A     -0.510338    27A     -0.495883
      28A     -0.480414    29A     -0.461835    30A     -0.456721
      31A     -0.453160    32A     -0.448580    33A     -0.421247

  @DF-RHF Final Energy:  -349.23933513486804

   => Energetics <=

    Nuclear Repulsion Energy =            385.1789077480091237
    One-Electron Energy =               -1236.7796187859844395
    Two-Electron Energy =                 502.3613759031076142
    DFT Exchange-Correlation Energy =       0.0000000000000000
    Empirical Dispersion Energy =           0.0000000000000000
    PCM Polarization Energy =               0.0000000000000000
    EFP Energy =                            0.0000000000000000
    Total Energy =                       -349.2393351348677015
    Molecular point group: c1
  Basis Set: 6-31G*
  Basis Set:

  -Total Gradient:
     Atom            X                  Y                   Z
    ------   -----------------  -----------------  -----------------
       1       -0.000004946296     0.000003148058    -0.000021936709
       2        0.000172846647    -0.000378283364    -0.000186021676
       3       -0.000276745032     0.000737193310     0.000240082315
       4        0.000246060250    -0.000705532605    -0.000210577153
       5        0.000038466727    -0.000008056742     0.000045653253
       6        0.000028580748    -0.000004180674     0.000044041629
       7       -0.000148477718     0.000397972565     0.000082750679
       8       -0.000026626620    -0.000014157247     0.000014121658
       9       -0.000034528677    -0.000019708892     0.000000036414
      10        0.000000105964     0.000026102787     0.000003368416
      11        0.000007282829    -0.000001443333    -0.000000163616
      12        0.000011333588    -0.000007271372    -0.000014361894
      13       -0.000008376785    -0.000033393568    -0.000012505706
      14        0.000013459058     0.000015883295     0.000023959209
      15        0.000007832396     0.000012002228    -0.000009055810
      16        0.000006629716     0.000009525526    -0.000018587885
      17        0.000008253090    -0.000004904725    -0.000015095027
      18       -0.000022270686    -0.000017745301     0.000013871559
      19       -0.000011334271    -0.000014289446     0.000012770884
      20       -0.000009625910     0.000017545382     0.000008347284
      21        0.000019119719     0.000002726225    -0.000022097443
      22        0.000013574851    -0.000003960079    -0.000005950365
      23       -0.000001315709    -0.000007960509     0.000014509305
      24       -0.000029297879    -0.000001211521     0.000012840683

  **** Optimization is complete! (in 7 steps) ****
    Final optimized geometry and variables:
    Molecular point group: c1

    Geometry (in Angstrom), charge = 0, multiplicity = 1:

    H           -3.326249761116    -0.197598913579    -0.973655001524
    O           -3.230510382224    -1.130949016880    -0.850502259661
    C           -2.894817694626    -1.402062950638     0.486712223090
    C           -1.468203916449    -0.964482898558     0.906753514753
    H           -2.993729361630    -2.474131373119     0.586119779267
    H           -3.630982643872    -0.955259331295     1.150479732786
    C           -0.637982557087    -0.302630600969    -0.196791538227
    H           -1.534656042090    -0.281573168129     1.750639525918
    H           -0.927755114366    -1.833789848686     1.271641797563
    C            0.774002194950     0.055082534822     0.272491065725
    H           -1.132931993917     0.603902979272    -0.540742500572
    H           -0.583201020565    -0.962160491087    -1.056655005812
    C            1.607679887963     0.731276150134    -0.819287574070
    H            0.707092898784     0.701812012810     1.143890612439
    H            1.282802016593    -0.849733963188     0.601798119033
    C            3.062120359446     1.018702095236    -0.429251403502
    H            1.126469378708     1.662235280121    -1.115729465364
    H            1.606196353911     0.095385594925    -1.702065419634
    C            3.228466858172     2.043621885977     0.694233612492
    H            3.589921276380     1.377921613303    -1.309336682790
    H            3.548136089445     0.087910394859    -0.143832614444
    H            2.743133863943     2.982470290144     0.440802604726
    H            4.278759403922     2.253522628296     0.872027782540
    H            2.804413761860     1.693889457387     1.629624688997

  Mulliken Charges: (a.u.)
   Center  Symbol    Alpha    Beta     Spin     Total
       1     H     0.28142  0.28142  0.00000  0.43715
       2     O     4.36868  4.36868  0.00000 -0.73736
       3     C     2.99416  2.99416  0.00000  0.01168
       4     C     3.18262  3.18262  0.00000 -0.36523
       5     H     0.41413  0.41413  0.00000  0.17174
       6     H     0.42865  0.42865  0.00000  0.14270
       7     C     3.14768  3.14768  0.00000 -0.29536
       8     H     0.42167  0.42167  0.00000  0.15667
       9     H     0.41762  0.41762  0.00000  0.16477
      10     C     3.15482  3.15482  0.00000 -0.30963
      11     H     0.43281  0.43281  0.00000  0.13439
      12     H     0.41048  0.41048  0.00000  0.17904
      13     C     3.15236  3.15236  0.00000 -0.30472
      14     H     0.42279  0.42279  0.00000  0.15443
      15     H     0.42376  0.42376  0.00000  0.15248
      16     C     3.15230  3.15230  0.00000 -0.30460
      17     H     0.42523  0.42523  0.00000  0.14954
      18     H     0.42120  0.42120  0.00000  0.15761
      19     C     3.24113  3.24113  0.00000 -0.48227
      20     H     0.42101  0.42101  0.00000  0.15798
      21     H     0.42325  0.42325  0.00000  0.15349
      22     H     0.42272  0.42272  0.00000  0.15456
      23     H     0.41930  0.41930  0.00000  0.16139
      24     H     0.42022  0.42022  0.00000  0.15956

   Total alpha = 33.00000, Total beta = 33.00000, Total charge =  0.00000
