  ==> Input File <==

--------------------------------------------------------------------------
set {
	reference rhf
	basis cc-pvtz
}

set_num_threads( 4 )
memory 2 gb

molecule MOL {
0 1

O	 0.623644	 1.346775	 0.050760
C	 0.484933	 0.171168	 0.027162
C	 1.606813	 -0.836419	 0.023517
O	 -0.695554	 -0.422406	 0.000602
C	 2.988431	 -0.203037	 0.054008
H	 1.476776	 -1.458281	 -0.855305
H	 1.453419	 -1.490617	 0.874652
H	 3.143156	 0.435640	 -0.805276
H	 3.750544	 -0.972787	 0.049914
H	 3.119602	 0.403027	 0.940410
C	 -1.852370	 0.402254	 0.000718
C	 -3.063338	 -0.501097	 -0.000437
H	 -1.831732	 1.039442	 -0.872158
H	 -1.832493	 1.038301	 0.874430
H	 -3.071944	 -1.133732	 -0.879113
H	 -3.966302	 0.097976	 -0.000483
H	 -3.072764	 -1.134834	 0.877435

	symmetry c1
}
set optking {
	frozen_dihedral = ("
		2 4 11 13
	")
}

ee = optimize('scf')
oeprop('DIPOLE', 'QUADRUPOLE', 'MULLIKEN_CHARGES')
f=open( 'psi4out.xyz', 'w' )
f.write( "17  " )
f.write( str(ee) + "\n" )
f.write( MOL.save_string_xyz() )
f.close()
--------------------------------------------------------------------------

    Molecular point group: c1
  Charge       = 0
  Multiplicity = 1
  Basis Set: CC-PVTZ
  Basis Set:
  @DF-RHF Final Energy:  -345.04064177833993
    Total Energy =                       -345.0406417783402730
    Molecular point group: c1
  Basis Set: CC-PVTZ
  Basis Set:
  Charge       = 0
  Multiplicity = 1
  Basis Set: CC-PVTZ
  Basis Set:

    Orbital Energies (a.u.)
    -----------------------

    Doubly Occupied:

       1A    -20.593461     2A    -20.532892     3A    -11.363486
       4A    -11.282588     5A    -11.235871     6A    -11.220333
       7A    -11.213817     8A     -1.470486     9A     -1.364882
      10A     -1.070898    11A     -1.032558    12A     -0.911856
      13A     -0.847623    14A     -0.774838    15A     -0.698071
      16A     -0.692600    17A     -0.667829    18A     -0.630446
      19A     -0.584335    20A     -0.573820    21A     -0.558618
      22A     -0.524729    23A     -0.519952    24A     -0.515195
      25A     -0.505719    26A     -0.493960    27A     -0.456064
      28A     -0.439326

  @DF-RHF Final Energy:  -345.04064150640465

   => Energetics <=

    Nuclear Repulsion Energy =            315.2192825718676659
    One-Electron Energy =               -1094.9673426797317006
    Two-Electron Energy =                 434.7074186014591533
    DFT Exchange-Correlation Energy =       0.0000000000000000
    Empirical Dispersion Energy =           0.0000000000000000
    PCM Polarization Energy =               0.0000000000000000
    EFP Energy =                            0.0000000000000000
    Total Energy =                       -345.0406415064048815
    Molecular point group: c1
  Basis Set: CC-PVTZ
  Basis Set:

  -Total Gradient:
     Atom            X                  Y                   Z
    ------   -----------------  -----------------  -----------------
       1        0.000014515146     0.000014492300    -0.000202241044
       2       -0.000022221823    -0.000023694663     0.000631253093
       3        0.000003247051     0.000004793975    -0.000152135785
       4       -0.000002483874    -0.000029733178    -0.000408224859
       5       -0.000001026117    -0.000000681200    -0.000001444505
       6        0.000021536042    -0.000020765733    -0.000000954955
       7       -0.000021669940     0.000021072371    -0.000001089774
       8        0.000003439867     0.000001417312    -0.000001414634
       9        0.000000487337     0.000000364762    -0.000001721335
      10       -0.000003281819    -0.000001632098    -0.000002199105
      11        0.000061845228     0.000102382430     0.000296341684
      12        0.000022234823     0.000011446244    -0.000054263683
      13       -0.000052004713    -0.000116138689    -0.000085027236
      14       -0.000028640949     0.000035029313    -0.000006064197
      15       -0.000020165070    -0.000018530718    -0.000004054803
      16        0.000002597338    -0.000000081235    -0.000002555509
      17        0.000021591471     0.000020258805    -0.000004203354

  **** Optimization is complete! (in 2 steps) ****
    Final optimized geometry and variables:
    Molecular point group: c1

    Geometry (in Angstrom), charge = 0, multiplicity = 1:

    O            0.624015024410     1.347110991497     0.026056689914
    C            0.485085324863     0.171473251555     0.005637163105
    C            1.606814238276    -0.836277774795     0.002258665829
    O           -0.695472419518    -0.422000421005    -0.021131130916
    C            2.988565359471    -0.203076053032     0.030748189804
    H            1.475928686178    -1.459177797028    -0.875694419047
    H            1.454079822596    -1.489443623052     0.854300052742
    H            3.142621373450     0.434543609049    -0.829434200345
    H            3.750552922017    -0.972942160117     0.026904485555
    H            3.120605796083     0.404022197974     0.916301675803
    C           -1.852328433550     0.402587643165    -0.019582448999
    C           -3.063080741363    -0.501069130791    -0.023978004107
    H           -1.831458765166     1.040566091593    -0.892015723536
    H           -1.833464433483     1.037304506074     0.854965722815
    H           -3.070157373755    -1.132825564007    -0.903307478471
    H           -3.966187421091     0.097773905978    -0.024881195020
    H           -3.073730402188    -1.135689715093     0.853228025586

  Mulliken Charges: (a.u.)
   Center  Symbol    Alpha    Beta     Spin     Total
       1     O     4.19684  4.19684  0.00000 -0.39368
       2     C     2.80913  2.80913  0.00000  0.38175
       3     C     3.09349  3.09349  0.00000 -0.18699
       4     O     4.15121  4.15121  0.00000 -0.30241
       5     C     3.13969  3.13969  0.00000 -0.27939
       6     H     0.44161  0.44161  0.00000  0.11678
       7     H     0.44169  0.44169  0.00000  0.11661
       8     H     0.44841  0.44841  0.00000  0.10318
       9     H     0.45057  0.45057  0.00000  0.09886
      10     H     0.44846  0.44846  0.00000  0.10309
      11     C     2.98046  2.98046  0.00000  0.03908
      12     C     3.13308  3.13308  0.00000 -0.26615
      13     H     0.45424  0.45424  0.00000  0.09152
      14     H     0.45379  0.45379  0.00000  0.09243
      15     H     0.45141  0.45141  0.00000  0.09718
      16     H     0.45447  0.45447  0.00000  0.09106
      17     H     0.45146  0.45146  0.00000  0.09708

   Total alpha = 28.00000, Total beta = 28.00000, Total charge = -0.00000
