  ==> Input File <==

--------------------------------------------------------------------------
set {
	reference rhf
	basis 6-31G*
}

set_num_threads( 1 )
memory 2 gb

molecule MOL {
0 1

H	 -2.174673	 0.439071	 2.524639
C	 -1.729851	 -0.408452	 3.042305
O	 -0.532990	 -0.796322	 2.448655
H	 -1.510206	 -0.120329	 4.061070
H	 -2.453010	 -1.222881	 3.055519
C	 -0.659876	 -1.204647	 1.123355
C	 0.710224	 -1.494316	 0.556677
H	 -1.270944	 -2.106070	 1.062301
H	 -1.139644	 -0.432932	 0.524788
O	 1.392611	 -0.295398	 0.366430
H	 1.251737	 -2.143406	 1.241843
H	 0.601635	 -2.022160	 -0.391628
C	 2.706965	 -0.449871	 -0.062409
H	 2.756559	 -0.644779	 -1.131878
H	 3.305899	 0.433456	 0.155466
H	 3.125548	 -1.294566	 0.467107

	symmetry c1
}
set optking {
	frozen_dihedral = ("
		3 6 7 11,
		2 3 6 7
	")
}

ee = energy('scf')
oeprop('DIPOLE', 'QUADRUPOLE', 'MULLIKEN_CHARGES')
f=open( 'psi4out.xyz', 'w' )
f.write( "16  " )
f.write( str(ee) + "\n" )
f.write( MOL.save_string_xyz() )
f.close()
--------------------------------------------------------------------------

    Molecular point group: c1

    Geometry (in Angstrom), charge = 0, multiplicity = 1:

       Center              X                  Y                   Z               Mass
    ------------   -----------------  -----------------  -----------------  -----------------
           H         -2.492116390269     1.208881109567     1.274407648955     1.007825032070
           C         -2.047294390269     0.361358109567     1.792073648955    12.000000000000
           O         -0.850433390269    -0.026511890433     1.198423648955    15.994914619560
           H         -1.827649390269     0.649481109567     2.810838648955     1.007825032070
           H         -2.770453390269    -0.453070890433     1.805287648955     1.007825032070
           C         -0.977319390269    -0.434836890433    -0.126876351045    12.000000000000
           C          0.392780609731    -0.724505890433    -0.693554351045    12.000000000000
           H         -1.588387390269    -1.336259890433    -0.187930351045     1.007825032070
           H         -1.457087390269     0.336878109567    -0.725443351045     1.007825032070
           O          1.075167609731     0.474412109567    -0.883801351045    15.994914619560
           H          0.934293609731    -1.373595890433    -0.008388351045     1.007825032070
           H          0.284191609731    -1.252349890433    -1.641859351045     1.007825032070
           C          2.389521609731     0.319939109567    -1.312640351045    12.000000000000
           H          2.439115609731     0.125031109567    -2.382109351045     1.007825032070
           H          2.988455609731     1.203266109567    -1.094765351045     1.007825032070
           H          2.808104609731    -0.524755890433    -0.783124351045     1.007825032070

  Charge       = 0
  Multiplicity = 1
  Basis Set: 6-31G*
  Basis Set:

    Orbital Energies (a.u.)
    -----------------------

    Doubly Occupied:

       1A    -20.553669     2A    -20.551990     3A    -11.269640
       4A    -11.268736     5A    -11.263606     6A    -11.263589
       7A     -1.388142     8A     -1.370494     9A     -1.030607
      10A     -0.935504    11A     -0.892361    12A     -0.824956
      13A     -0.684071    14A     -0.680173    15A     -0.657404
      16A     -0.636445    17A     -0.628492    18A     -0.598257
      19A     -0.552178    20A     -0.534763    21A     -0.509420
      22A     -0.476407    23A     -0.462403    24A     -0.419386
      25A     -0.409606

  @DF-RHF Final Energy:  -306.97537980045132

   => Energetics <=

    Nuclear Repulsion Energy =            258.9092672791179552
    One-Electron Energy =                -932.0446024426454414
    Two-Electron Energy =                 366.1599553630759374
    DFT Exchange-Correlation Energy =       0.0000000000000000
    Empirical Dispersion Energy =           0.0000000000000000
    PCM Polarization Energy =               0.0000000000000000
    EFP Energy =                            0.0000000000000000
    Total Energy =                       -306.9753798004516057

  Mulliken Charges: (a.u.)
   Center  Symbol    Alpha    Beta     Spin     Total
       1     H     0.42801  0.42801  0.00000  0.14398
       2     C     3.07953  3.07953  0.00000 -0.15907
       3     O     4.30090  4.30090  0.00000 -0.60179
       4     H     0.41128  0.41128  0.00000  0.17745
       5     H     0.43189  0.43189  0.00000  0.13621
       6     C     2.99327  2.99327  0.00000  0.01347
       7     C     2.99410  2.99410  0.00000  0.01180
       8     H     0.43224  0.43224  0.00000  0.13553
       9     H     0.42248  0.42248  0.00000  0.15503
      10     O     4.30230  4.30230  0.00000 -0.60460
      11     H     0.42199  0.42199  0.00000  0.15601
      12     H     0.43233  0.43233  0.00000  0.13533
      13     C     3.07711  3.07711  0.00000 -0.15421
      14     H     0.42945  0.42945  0.00000  0.14111
      15     H     0.41250  0.41250  0.00000  0.17500
      16     H     0.43063  0.43063  0.00000  0.13875

   Total alpha = 25.00000, Total beta = 25.00000, Total charge =  0.00000
