  ==> Input File <==

--------------------------------------------------------------------------
set {
	reference rhf
	basis 6-31G*
}

set_num_threads( 1 )
memory 2 gb

molecule MOL {
0 1

H	 -2.521385	 1.345167	 2.323776
C	 -2.417090	 0.454422	 1.735255
C	 -1.342087	 0.276392	 1.002675
H	 -3.204990	 -0.274512	 1.763161
O	 -1.180634	 -0.819263	 0.215062
H	 -0.538630	 0.990773	 0.966481
C	 0.051604	 -1.018856	 -0.387932
C	 1.043764	 0.054862	 -0.001873
H	 -0.017620	 -1.041351	 -1.469781
H	 0.437898	 -1.966374	 -0.042284
F	 2.212596	 -0.199467	 -0.571921
F	 0.652529	 1.252447	 -0.405055
F	 1.230877	 0.110694	 1.300533

	symmetry c1
}
set optking {
	frozen_dihedral = ("
		11 8 7 9,
		6 3 2 1,
		6 3 5 7
	")
}

ee = energy('scf')
oeprop('DIPOLE', 'QUADRUPOLE', 'MULLIKEN_CHARGES')
f=open( 'psi4out.xyz', 'w' )
f.write( "13  " )
f.write( str(ee) + "\n" )
f.write( MOL.save_string_xyz() )
f.close()
--------------------------------------------------------------------------

    Molecular point group: c1

    Geometry (in Angstrom), charge = 0, multiplicity = 1:

       Center              X                  Y                   Z               Mass
    ------------   -----------------  -----------------  -----------------  -----------------
           H         -2.688625442126     1.303493782427     1.995808253938     1.007825032070
           C         -2.584330442126     0.412748782427     1.407287253938    12.000000000000
           C         -1.509327442126     0.234718782427     0.674707253938    12.000000000000
           H         -3.372230442126    -0.316185217573     1.435193253938     1.007825032070
           O         -1.347874442126    -0.860936217573    -0.112905746062    15.994914619560
           H         -0.705870442126     0.949099782427     0.638513253938     1.007825032070
           C         -0.115636442126    -1.060529217573    -0.715899746062    12.000000000000
           C          0.876523557874     0.013188782427    -0.329840746062    12.000000000000
           H         -0.184860442126    -1.083024217573    -1.797748746062     1.007825032070
           H          0.270657557874    -2.008047217573    -0.370251746062     1.007825032070
           F          2.045355557874    -0.241140217573    -0.899888746062    18.998403224000
           F          0.485288557874     1.210773782427    -0.733022746062    18.998403224000
           F          1.063636557874     0.069020782427     0.972565253938    18.998403224000

  Charge       = 0
  Multiplicity = 1
  Basis Set: 6-31G*
  Basis Set:

    Orbital Energies (a.u.)
    -----------------------

    Doubly Occupied:

       1A    -26.359162     2A    -26.358255     3A    -26.354976
       4A    -20.603452     5A    -11.517728     6A    -11.320363
       7A    -11.285303     8A    -11.205105     9A     -1.759417
      10A     -1.658198    11A     -1.653518    12A     -1.436077
      13A     -1.082999    14A     -1.018410    15A     -0.935519
      16A     -0.867542    17A     -0.847195    18A     -0.835823
      19A     -0.761232    20A     -0.734207    21A     -0.722998
      22A     -0.710725    23A     -0.689241    24A     -0.663964
      25A     -0.661145    26A     -0.659154    27A     -0.647013
      28A     -0.581654    29A     -0.553079    30A     -0.527053
      31A     -0.497594    32A     -0.341644

  @DF-RHF Final Energy:  -527.50879760423675

   => Energetics <=

    Nuclear Repulsion Energy =            425.8157581243624463
    One-Electron Energy =               -1574.9495296938155207
    Two-Electron Energy =                 621.6249739652160997
    DFT Exchange-Correlation Energy =       0.0000000000000000
    Empirical Dispersion Energy =           0.0000000000000000
    PCM Polarization Energy =               0.0000000000000000
    EFP Energy =                            0.0000000000000000
    Total Energy =                       -527.5087976042369746

  Mulliken Charges: (a.u.)
   Center  Symbol    Alpha    Beta     Spin     Total
       1     H     0.40875  0.40875  0.00000  0.18250
       2     C     3.24527  3.24527  0.00000 -0.49055
       3     C     2.90556  2.90556  0.00000  0.18888
       4     H     0.40639  0.40639  0.00000  0.18721
       5     O     4.31592  4.31592  0.00000 -0.63185
       6     H     0.37804  0.37804  0.00000  0.24392
       7     C     3.01196  3.01196  0.00000 -0.02392
       8     C     2.49653  2.49653  0.00000  1.00694
       9     H     0.39995  0.39995  0.00000  0.20010
      10     H     0.39928  0.39928  0.00000  0.20144
      11     F     4.68092  4.68092  0.00000 -0.36184
      12     F     4.67727  4.67727  0.00000 -0.35455
      13     F     4.67415  4.67415  0.00000 -0.34831

   Total alpha = 32.00000, Total beta = 32.00000, Total charge =  0.00000
