  ==> Input File <==

--------------------------------------------------------------------------
set {
	reference rhf
	basis cc-pvtz
}

set_num_threads( 4 )
memory 2 gb

molecule MOL {
0 1

H	 2.342730	 0.877684	 -1.045694
C	 2.360424	 0.000000	 -0.411793
C	 1.173749	 0.000000	 0.526870
H	 3.286567	 0.000000	 0.151574
H	 2.342730	 -0.877684	 -1.045694
O	 -0.000000	 0.000000	 -0.223739
H	 1.203779	 0.876757	 1.172538
H	 1.203779	 -0.876757	 1.172538
C	 -1.173749	 0.000000	 0.526870
C	 -1.737571	 1.403618	 0.562180
H	 -0.970034	 -0.350007	 1.538051
H	 -1.897242	 -0.685983	 0.088149
H	 -1.027346	 2.086572	 1.011210
H	 -2.653110	 1.427513	 1.142128
H	 -1.955534	 1.750241	 -0.440225

	symmetry c1
}
set optking {
	frozen_dihedral = ("
		11 9 6 3
	")
}

ee = optimize('scf')
oeprop('DIPOLE', 'QUADRUPOLE', 'MULLIKEN_CHARGES')
f=open( 'psi4out.xyz', 'w' )
f.write( "15  " )
f.write( str(ee) + "\n" )
f.write( MOL.save_string_xyz() )
f.close()
--------------------------------------------------------------------------

    Molecular point group: c1
  Charge       = 0
  Multiplicity = 1
  Basis Set: CC-PVTZ
  Basis Set:
  @DF-RHF Final Energy:  -232.22933644614085
    Total Energy =                       -232.2293364461410192
    Molecular point group: c1
  Basis Set: CC-PVTZ
  Basis Set:
  Basis Set: CC-PVTZ
  Basis Set:
  @DF-RHF Final Energy:  -232.22997762856355
    Total Energy =                       -232.2299776285636312
  Basis Set: CC-PVTZ
  Basis Set:
  Basis Set: CC-PVTZ
  Basis Set:
  @DF-RHF Final Energy:  -232.23014472245617
    Total Energy =                       -232.2301447224559752
  Basis Set: CC-PVTZ
  Basis Set:
  Charge       = 0
  Multiplicity = 1
  Basis Set: CC-PVTZ
  Basis Set:

    Orbital Energies (a.u.)
    -----------------------

    Doubly Occupied:

       1A    -20.542522     2A    -11.266782     3A    -11.265921
       4A    -11.207821     5A    -11.206856     6A     -1.377016
       7A     -1.042486     8A     -0.985280     9A     -0.856871
      10A     -0.819179    11A     -0.672568    12A     -0.656252
      13A     -0.638049    14A     -0.572770    15A     -0.554278
      16A     -0.541571    17A     -0.523261    18A     -0.501093
      19A     -0.487543    20A     -0.462084    21A     -0.407869

  @DF-RHF Final Energy:  -232.23014620661152

   => Energetics <=

    Nuclear Repulsion Energy =            192.1791688204021682
    One-Electron Energy =                -695.6424842248732148
    Two-Electron Energy =                 271.2331691978594677
    DFT Exchange-Correlation Energy =       0.0000000000000000
    Empirical Dispersion Energy =           0.0000000000000000
    PCM Polarization Energy =               0.0000000000000000
    EFP Energy =                            0.0000000000000000
    Total Energy =                       -232.2301462066115505
    Molecular point group: c1
  Basis Set: CC-PVTZ
  Basis Set:

  -Total Gradient:
     Atom            X                  Y                   Z
    ------   -----------------  -----------------  -----------------
       1       -0.000003000292    -0.000001426507     0.000000475110
       2       -0.000004035535     0.000010819852     0.000005554655
       3       -0.000002239575    -0.000975910121     0.000007574570
       4        0.000022085397    -0.000000543700     0.000002534574
       5       -0.000005472979     0.000009315969     0.000012285251
       6        0.000018175305     0.001637909080     0.000053973498
       7       -0.000015170890    -0.000007840744    -0.000026749245
       8        0.000005592032     0.000004755482     0.000012001087
       9       -0.000199145124    -0.001676541655    -0.000373519091
      10       -0.000057288306    -0.000039987084     0.000004393939
      11        0.000219949457     0.001036775574     0.000334932913
      12        0.000008254119     0.000018542433    -0.000004332689
      13        0.000010558816    -0.000036706811    -0.000007969161
      14       -0.000005462119     0.000015609651    -0.000004691595
      15        0.000007199693     0.000005228581    -0.000016463815

  **** Optimization is complete! (in 4 steps) ****
    Final optimized geometry and variables:
    Molecular point group: c1

    Geometry (in Angstrom), charge = 0, multiplicity = 1:

    H            2.218484072692     0.600355669426    -1.240328527621
    C            2.241382980241    -0.291774571622    -0.626995956212
    C            1.071323191503    -0.307133180808     0.332009508303
    H            3.177287650906    -0.310913071922    -0.079914610487
    H            2.206131755644    -1.154371161179    -1.280650741688
    O           -0.114266972645    -0.295243634046    -0.402889535041
    H            1.119393889529     0.557102547365     0.992532373925
    H            1.111534225403    -1.196097689675     0.959108065149
    C           -1.299485216624    -0.258438373517     0.339253991219
    C           -1.906423585611     1.133770827976     0.353350547931
    H           -1.119558484806    -0.593467395115     1.357382975630
    H           -1.989967672985    -0.958278217357    -0.116161051695
    H           -1.236429695508     1.846962601988     0.819650662554
    H           -2.840207003329     1.135346946141     0.905705518772
    H           -2.104786942772     1.467748924646    -0.657545867649

  Mulliken Charges: (a.u.)
   Center  Symbol    Alpha    Beta     Spin     Total
       1     H     0.45173  0.45173  0.00000  0.09655
       2     C     3.13695  3.13695  0.00000 -0.27390
       3     C     2.96657  2.96657  0.00000  0.06687
       4     H     0.45925  0.45925  0.00000  0.08151
       5     H     0.45131  0.45131  0.00000  0.09739
       6     O     4.18569  4.18569  0.00000 -0.37137
       7     H     0.47403  0.47403  0.00000  0.05194
       8     H     0.47020  0.47020  0.00000  0.05959
       9     C     2.97948  2.97948  0.00000  0.04104
      10     C     3.13711  3.13711  0.00000 -0.27422
      11     H     0.47133  0.47133  0.00000  0.05734
      12     H     0.45266  0.45266  0.00000  0.09469
      13     H     0.45659  0.45659  0.00000  0.08683
      14     H     0.45613  0.45613  0.00000  0.08773
      15     H     0.45099  0.45099  0.00000  0.09803

   Total alpha = 21.00000, Total beta = 21.00000, Total charge = -0.00000
