  ==> Input File <==

--------------------------------------------------------------------------
set {
	reference rhf
	basis 6-31G*
}

set_num_threads( 1 )
memory 2 gb

molecule MOL {
0 1

O	 1.547285	 0.072393	 -0.332561
C	 2.701189	 0.057885	 -0.047330
C	 3.619453	 1.255953	 -0.032737
O	 3.347903	 -1.046386	 0.304773
C	 2.916515	 2.555280	 -0.419701
H	 4.056776	 1.309696	 0.958753
H	 4.442748	 1.040196	 -0.708999
C	 3.856755	 3.761927	 -0.511618
H	 2.123691	 2.760232	 0.293421
H	 2.427851	 2.412015	 -1.377357
C	 4.478297	 4.198537	 0.818106
H	 3.294036	 4.596819	 -0.922746
H	 4.648983	 3.550469	 -1.228326
C	 5.319488	 5.470392	 0.692479
H	 3.685751	 4.362238	 1.546730
H	 5.102369	 3.403096	 1.219079
C	 5.949840	 5.913188	 2.014114
H	 4.698290	 6.275652	 0.304016
H	 6.105652	 5.310894	 -0.043868
C	 6.785069	 7.186105	 1.880797
H	 5.165700	 6.072043	 2.751361
H	 6.574599	 5.111215	 2.401794
H	 7.218412	 7.474324	 2.833556
H	 6.180236	 8.016665	 1.527890
H	 7.599576	 7.048523	 1.175159
C	 4.728119	 -1.109107	 -0.004993
H	 4.882018	 -1.033965	 -1.071845
H	 5.068212	 -2.067527	 0.355250
H	 5.265056	 -0.311663	 0.488280

	symmetry c1
}
set optking {
	frozen_dihedral = ("
		21 17 14 11,
		17 14 11 15,
		15 11 8 5,
		6 3 5 9,
		11 8 5 9,
		2 4 26 27,
		6 3 2 1
	")
}

ee = energy('scf')
oeprop('DIPOLE', 'QUADRUPOLE', 'MULLIKEN_CHARGES')
f=open( 'psi4out.xyz', 'w' )
f.write( "29  " )
f.write( str(ee) + "\n" )
f.write( MOL.save_string_xyz() )
f.close()
--------------------------------------------------------------------------

    Molecular point group: c1

    Geometry (in Angstrom), charge = 0, multiplicity = 1:

       Center              X                  Y                   Z               Mass
    ------------   -----------------  -----------------  -----------------  -----------------
           O         -2.574543849776    -2.468196366663    -0.729759475529    15.994914619560
           C         -1.420639849776    -2.482704366663    -0.444528475529    12.000000000000
           C         -0.502375849776    -1.284636366663    -0.429935475529    12.000000000000
           O         -0.773925849776    -3.586975366663    -0.092425475529    15.994914619560
           C         -1.205313849776     0.014690633337    -0.816899475529    12.000000000000
           H         -0.065052849776    -1.230893366663     0.561554524471     1.007825032070
           H          0.320919150224    -1.500393366663    -1.106197475529     1.007825032070
           C         -0.265073849776     1.221337633337    -0.908816475529    12.000000000000
           H         -1.998137849776     0.219642633337    -0.103777475529     1.007825032070
           H         -1.693977849776    -0.128574366663    -1.774555475529     1.007825032070
           C          0.356468150224     1.657947633337     0.420907524471    12.000000000000
           H         -0.827792849776     2.056229633337    -1.319944475529     1.007825032070
           H          0.527154150224     1.009879633337    -1.625524475529     1.007825032070
           C          1.197659150224     2.929802633337     0.295280524471    12.000000000000
           H         -0.436077849776     1.821648633337     1.149531524471     1.007825032070
           H          0.980540150224     0.862506633337     0.821880524471     1.007825032070
           C          1.828011150224     3.372598633337     1.616915524471    12.000000000000
           H          0.576461150224     3.735062633337    -0.093182475529     1.007825032070
           H          1.983823150224     2.770304633337    -0.441066475529     1.007825032070
           C          2.663240150224     4.645515633337     1.483598524471    12.000000000000
           H          1.043871150224     3.531453633337     2.354162524471     1.007825032070
           H          2.452770150224     2.570625633337     2.004595524471     1.007825032070
           H          3.096583150224     4.933734633337     2.436357524471     1.007825032070
           H          2.058407150224     5.476075633337     1.130691524471     1.007825032070
           H          3.477747150224     4.507933633337     0.777960524471     1.007825032070
           C          0.606290150224    -3.649696366663    -0.402191475529    12.000000000000
           H          0.760189150224    -3.574554366663    -1.469043475529     1.007825032070
           H          0.946383150224    -4.608116366663    -0.041948475529     1.007825032070
           H          1.143227150224    -2.852252366663     0.091081524471     1.007825032070

  Charge       = 0
  Multiplicity = 1
  Basis Set: 6-31G*
  Basis Set:

    Orbital Energies (a.u.)
    -----------------------

    Doubly Occupied:

       1A    -20.602603     2A    -20.546542     3A    -11.374332
       4A    -11.297138     5A    -11.240615     6A    -11.222729
       7A    -11.221520     8A    -11.220337     9A    -11.219138
      10A    -11.218130    11A    -11.211828    12A     -1.466851
      13A     -1.369082    14A     -1.101992    15A     -1.069309
      16A     -1.015608    17A     -0.987528    18A     -0.948593
      19A     -0.872372    20A     -0.807915    21A     -0.795412
      22A     -0.760329    23A     -0.705592    24A     -0.692068
      25A     -0.678024    26A     -0.654236    27A     -0.631633
      28A     -0.610623    29A     -0.602861    30A     -0.588687
      31A     -0.569045    32A     -0.559174    33A     -0.548783
      34A     -0.536037    35A     -0.521121    36A     -0.510634
      37A     -0.501207    38A     -0.481358    39A     -0.473567
      40A     -0.466176    41A     -0.462781    42A     -0.453211
      43A     -0.443877    44A     -0.429298

  @DF-RHF Final Energy:  -501.01834879518606

   => Energetics <=

    Nuclear Repulsion Energy =            618.9643514281735861
    One-Electron Energy =               -1908.5853544170265650
    Two-Electron Energy =                 788.6026541936658987
    DFT Exchange-Correlation Energy =       0.0000000000000000
    Empirical Dispersion Energy =           0.0000000000000000
    PCM Polarization Energy =               0.0000000000000000
    EFP Energy =                            0.0000000000000000
    Total Energy =                       -501.0183487951870802

  Mulliken Charges: (a.u.)
   Center  Symbol    Alpha    Beta     Spin     Total
       1     O     4.26921  4.26921  0.00000 -0.53842
       2     C     2.59235  2.59235  0.00000  0.81530
       3     C     3.24577  3.24577  0.00000 -0.49154
       4     O     4.30124  4.30124  0.00000 -0.60248
       5     C     3.15014  3.15014  0.00000 -0.30027
       6     H     0.39663  0.39663  0.00000  0.20674
       7     H     0.40331  0.40331  0.00000  0.19339
       8     C     3.15652  3.15652  0.00000 -0.31305
       9     H     0.41091  0.41091  0.00000  0.17818
      10     H     0.40773  0.40773  0.00000  0.18454
      11     C     3.15446  3.15446  0.00000 -0.30893
      12     H     0.41717  0.41717  0.00000  0.16567
      13     H     0.42547  0.42547  0.00000  0.14907
      14     C     3.15031  3.15031  0.00000 -0.30062
      15     H     0.42130  0.42130  0.00000  0.15740
      16     H     0.42673  0.42673  0.00000  0.14655
      17     C     3.15148  3.15148  0.00000 -0.30296
      18     H     0.42245  0.42245  0.00000  0.15510
      19     H     0.42444  0.42444  0.00000  0.15112
      20     C     3.23944  3.23944  0.00000 -0.47888
      21     H     0.42216  0.42216  0.00000  0.15569
      22     H     0.42417  0.42417  0.00000  0.15167
      23     H     0.41881  0.41881  0.00000  0.16239
      24     H     0.42106  0.42106  0.00000  0.15787
      25     H     0.42196  0.42196  0.00000  0.15609
      26     C     3.10401  3.10401  0.00000 -0.20802
      27     H     0.41114  0.41114  0.00000  0.17772
      28     H     0.39699  0.39699  0.00000  0.20602
      29     H     0.41267  0.41267  0.00000  0.17466

   Total alpha = 44.00000, Total beta = 44.00000, Total charge =  0.00000
