  ==> Input File <==

--------------------------------------------------------------------------
set {
	reference rhf
	basis cc-pvtz
}

set_num_threads( 4 )
memory 2 gb

molecule MOL {
0 1

O	 -2.071633	 -1.227563	 -0.223463
C	 -1.652164	 -0.152425	 0.058082
C	 -0.327811	 0.006324	 0.778296
C	 -2.402515	 1.108629	 -0.298924
C	 0.843231	 -0.001575	 -0.211665
H	 -0.319484	 0.928173	 1.350354
H	 -0.227804	 -0.823091	 1.466705
C	 2.197693	 0.138030	 0.476937
H	 0.722944	 0.805202	 -0.930230
H	 0.813976	 -0.926978	 -0.776588
C	 2.197061	 -0.403145	 1.902521
H	 2.953644	 -0.380701	 -0.106142
H	 2.485396	 1.185236	 0.488145
H	 1.946740	 -1.458621	 1.921060
H	 1.472476	 0.118604	 2.518252
H	 3.169970	 -0.286216	 2.365314
H	 -3.240910	 0.874416	 -0.936711
H	 -1.747554	 1.818823	 -0.790984
H	 -2.760419	 1.579708	 0.610998

	symmetry c1
}
set optking {
	frozen_dihedral = ("
		11 8 5 9
	")
}

ee = optimize('scf')
oeprop('DIPOLE', 'QUADRUPOLE', 'MULLIKEN_CHARGES')
f=open( 'psi4out.xyz', 'w' )
f.write( "19  " )
f.write( str(ee) + "\n" )
f.write( MOL.save_string_xyz() )
f.close()
--------------------------------------------------------------------------

    Molecular point group: c1
  Charge       = 0
  Multiplicity = 1
  Basis Set: CC-PVTZ
  Basis Set:
  @DF-RHF Final Energy:  -309.16844465911674
    Total Energy =                       -309.1684446591165170
    Molecular point group: c1
  Basis Set: CC-PVTZ
  Basis Set:
  Basis Set: CC-PVTZ
  Basis Set:
  @DF-RHF Final Energy:  -309.16925178223710
    Total Energy =                       -309.1692517822373247
  Basis Set: CC-PVTZ
  Basis Set:
  Basis Set: CC-PVTZ
  Basis Set:
  @DF-RHF Final Energy:  -309.17096732178555
    Total Energy =                       -309.1709673217854970
  Basis Set: CC-PVTZ
  Basis Set:
  Basis Set: CC-PVTZ
  Basis Set:
  @DF-RHF Final Energy:  -309.17106794137004
    Total Energy =                       -309.1710679413698699
  Basis Set: CC-PVTZ
  Basis Set:
  @DF-RHF Final Energy:  -309.17099297382714
    Total Energy =                       -309.1709929738273672
  @DF-RHF Final Energy:  -309.17112207194032
    Total Energy =                       -309.1711220719403173
  Basis Set: CC-PVTZ
  Basis Set:
  @DF-RHF Final Energy:  -309.17111181250283
    Total Energy =                       -309.1711118125028293
  Basis Set: CC-PVTZ
  Basis Set:
  Basis Set: CC-PVTZ
  Basis Set:
  @DF-RHF Final Energy:  -309.17112756059123
    Total Energy =                       -309.1711275605914580
  Basis Set: CC-PVTZ
  Basis Set:
  Basis Set: CC-PVTZ
  Basis Set:
  @DF-RHF Final Energy:  -309.17113021571726
    Total Energy =                       -309.1711302157173122
  Basis Set: CC-PVTZ
  Basis Set:
  Charge       = 0
  Multiplicity = 1
  Basis Set: CC-PVTZ
  Basis Set:

    Orbital Energies (a.u.)
    -----------------------

    Doubly Occupied:

       1A    -20.536552     2A    -11.319096     3A    -11.229343
       4A    -11.227171     5A    -11.226965     6A    -11.223724
       7A    -11.213515     8A     -1.396733     9A     -1.090784
      10A     -1.027909    11A     -0.981767    12A     -0.903527
      13A     -0.795948    14A     -0.734807    15A     -0.663492
      16A     -0.653488    17A     -0.624182    18A     -0.604758
      19A     -0.587297    20A     -0.576879    21A     -0.551497
      22A     -0.545418    23A     -0.518672    24A     -0.505379
      25A     -0.482011    26A     -0.467223    27A     -0.463518
      28A     -0.399575

  @DF-RHF Final Energy:  -309.17113026724900

   => Energetics <=

    Nuclear Repulsion Energy =            305.6550818403343897
    One-Electron Energy =               -1024.5499669873343009
    Two-Electron Energy =                 409.7237548797505724
    DFT Exchange-Correlation Energy =       0.0000000000000000
    Empirical Dispersion Energy =           0.0000000000000000
    PCM Polarization Energy =               0.0000000000000000
    EFP Energy =                            0.0000000000000000
    Total Energy =                       -309.1711302672493957
    Molecular point group: c1
  Basis Set: CC-PVTZ
  Basis Set:

  -Total Gradient:
     Atom            X                  Y                   Z
    ------   -----------------  -----------------  -----------------
       1        0.000003134555     0.000002654804    -0.000001156330
       2       -0.000006864586    -0.000001683204     0.000017936114
       3        0.000010651159    -0.000014808934     0.000010295857
       4        0.000004106258     0.000005000677    -0.000004961616
       5        0.002624227237    -0.002292679830    -0.004729614793
       6       -0.000003796850     0.000002880774     0.000003236555
       7       -0.000003299471    -0.000001811200     0.000001195434
       8        0.001374069767    -0.005259438620    -0.001440424452
       9       -0.002622928798     0.003400393701     0.004488967385
      10        0.000012177981    -0.000001933049    -0.000005818666
      11       -0.001375089858     0.004159118142     0.001671887154
      12       -0.000005883141    -0.000002371051     0.000000265452
      13       -0.000001710173     0.000009074219    -0.000014999595
      14       -0.000002688892    -0.000004995834     0.000007814228
      15       -0.000000294925     0.000002318145    -0.000002880387
      16       -0.000002316908    -0.000001006506    -0.000001621035
      17        0.000000188781    -0.000000463427    -0.000000342038
      18       -0.000002485261    -0.000000317355     0.000000572607
      19       -0.000001196869     0.000000068548    -0.000000351875

  **** Optimization is complete! (in 10 steps) ****
    Final optimized geometry and variables:
    Molecular point group: c1

    Geometry (in Angstrom), charge = 0, multiplicity = 1:

    O           -1.929049795524    -1.123346797630    -0.663085584060
    C           -1.503656235671    -0.062946855909    -0.337560194494
    C           -0.208362636827     0.053309055021     0.441285536533
    C           -2.219214484659     1.219099422122    -0.691762724605
    C            0.992258347352     0.028971891690    -0.519243164452
    H           -0.203753425544     0.970471905859     1.020969704564
    H           -0.166540785385    -0.783354719275     1.123957589258
    C            2.367513462145     0.208564301480     0.152677372954
    H            0.852241969949     0.845625894753    -1.220292671147
    H            0.959302363293    -0.898231160593    -1.077221112723
    C            2.501975779557    -0.319813995668     1.578990301314
    H            3.119711426304    -0.253541957986    -0.476657256227
    H            2.605892907776     1.268095776628     0.171298822026
    H            2.274908189407    -1.378929485415     1.641809364689
    H            1.846441760405     0.201387367593     2.265033733355
    H            3.517705740317    -0.182646108393     1.931034453236
    H           -3.030382102074     1.015903978659    -1.373861854246
    H           -1.533426645065     1.934392898877    -1.131520196504
    H           -2.612983498109     1.667969855646     0.214628275630

  Mulliken Charges: (a.u.)
   Center  Symbol    Alpha    Beta     Spin     Total
       1     O     4.17718  4.17718  0.00000 -0.35435
       2     C     2.85875  2.85875  0.00000  0.28251
       3     C     3.10327  3.10327  0.00000 -0.20654
       4     C     3.15565  3.15565  0.00000 -0.31131
       5     C     3.10351  3.10351  0.00000 -0.20703
       6     H     0.44875  0.44875  0.00000  0.10250
       7     H     0.43664  0.43664  0.00000  0.12671
       8     C     3.08882  3.08882  0.00000 -0.17764
       9     H     0.44946  0.44946  0.00000  0.10108
      10     H     0.43866  0.43866  0.00000  0.12268
      11     C     3.15676  3.15676  0.00000 -0.31351
      12     H     0.44698  0.44698  0.00000  0.10604
      13     H     0.45359  0.45359  0.00000  0.09282
      14     H     0.45058  0.45058  0.00000  0.09883
      15     H     0.45259  0.45259  0.00000  0.09481
      16     H     0.44360  0.44360  0.00000  0.11280
      17     H     0.43571  0.43571  0.00000  0.12857
      18     H     0.45114  0.45114  0.00000  0.09772
      19     H     0.44835  0.44835  0.00000  0.10329

   Total alpha = 28.00000, Total beta = 28.00000, Total charge = -0.00000
