  ==> Input File <==

--------------------------------------------------------------------------
set {
	reference rhf
	basis 6-31G*
}

set_num_threads( 4 )
memory 2 gb

molecule MOL {
0 1

H	 2.509209	 -1.823959	 -0.481484
O	 2.826016	 -1.159218	 0.122261
C	 2.077727	 -0.067559	 -0.035091
C	 0.624473	 -0.343591	 0.253101
O	 2.542965	 0.974826	 -0.363729
C	 -0.265902	 0.883932	 0.072916
H	 0.324016	 -1.163849	 -0.390541
H	 0.565024	 -0.726111	 1.268924
C	 -1.728698	 0.646073	 0.462102
H	 -0.209144	 1.219470	 -0.958188
H	 0.135059	 1.692851	 0.673903
C	 -2.482460	 -0.343073	 -0.431425
H	 -2.245265	 1.602650	 0.432430
H	 -1.779332	 0.308348	 1.496285
C	 -3.960546	 -0.461025	 -0.060175
H	 -2.395034	 -0.026811	 -1.468912
H	 -2.024850	 -1.327147	 -0.371646
H	 -4.472726	 -1.168004	 -0.705284
H	 -4.465146	 0.496508	 -0.151489
H	 -4.081218	 -0.800940	 0.964585

	symmetry c1
}
set optking {
	frozen_dihedral = ("
		1 2 3 5
	")
}

ee = optimize('scf')
oeprop('DIPOLE', 'QUADRUPOLE', 'MULLIKEN_CHARGES')
f=open( 'psi4out.xyz', 'w' )
f.write( "20  " )
f.write( str(ee) + "\n" )
f.write( MOL.save_string_xyz() )
f.close()
--------------------------------------------------------------------------

    Molecular point group: c1
  Charge       = 0
  Multiplicity = 1
  Basis Set: 6-31G*
  Basis Set:
  @DF-RHF Final Energy:  -383.92733921224482
    Total Energy =                       -383.9273392122447603
    Molecular point group: c1
  Basis Set: 6-31G*
  Basis Set:
  Basis Set: 6-31G*
  Basis Set:
  @DF-RHF Final Energy:  -383.92881719287652
    Total Energy =                       -383.9288171928764086
  Basis Set: 6-31G*
  Basis Set:
  Basis Set: 6-31G*
  Basis Set:
  @DF-RHF Final Energy:  -383.92862456416827
    Total Energy =                       -383.9286245641685014
  Basis Set: 6-31G*
  Basis Set:
  Basis Set: 6-31G*
  Basis Set:
  @DF-RHF Final Energy:  -383.92896632354984
    Total Energy =                       -383.9289663235496164
  Basis Set: 6-31G*
  Basis Set:
  Basis Set: 6-31G*
  Basis Set:
  @DF-RHF Final Energy:  -383.92897129719239
    Total Energy =                       -383.9289712971926747
  Basis Set: 6-31G*
  Basis Set:
  Charge       = 0
  Multiplicity = 1
  Basis Set: 6-31G*
  Basis Set:

    Orbital Energies (a.u.)
    -----------------------

    Doubly Occupied:

       1A    -20.598557     2A    -20.558798     3A    -11.381053
       4A    -11.246669     5A    -11.226526     6A    -11.224707
       7A    -11.223709     8A    -11.215688     9A     -1.461342
      10A     -1.368900    11A     -1.099224    12A     -1.042533
      13A     -0.959790    14A     -0.865758    15A     -0.821846
      16A     -0.787755    17A     -0.716362    18A     -0.670243
      19A     -0.663564    20A     -0.635965    21A     -0.615723
      22A     -0.588637    23A     -0.566002    24A     -0.562576
      25A     -0.529507    26A     -0.516319    27A     -0.496820
      28A     -0.493207    29A     -0.473376    30A     -0.467605
      31A     -0.460922    32A     -0.442537

  @DF-RHF Final Energy:  -383.92897165896647

   => Energetics <=

    Nuclear Repulsion Energy =            375.2791731536642601
    One-Electron Energy =               -1266.4518522918895087
    Two-Electron Energy =                 507.2437074792586600
    DFT Exchange-Correlation Energy =       0.0000000000000000
    Empirical Dispersion Energy =           0.0000000000000000
    PCM Polarization Energy =               0.0000000000000000
    EFP Energy =                            0.0000000000000000
    Total Energy =                       -383.9289716589665886
    Molecular point group: c1
  Basis Set: 6-31G*
  Basis Set:

  -Total Gradient:
     Atom            X                  Y                   Z
    ------   -----------------  -----------------  -----------------
       1        0.003457275542     0.002096563795    -0.003785609065
       2       -0.004686790181    -0.003033031896     0.002684552266
       3        0.001843238004     0.001942214884     0.005790050889
       4        0.000085764289     0.000009340990     0.000061007945
       5       -0.000612647600    -0.001015887383    -0.004693427145
       6       -0.000044842317    -0.000010487188    -0.000053765145
       7        0.000030294483     0.000026107202    -0.000005912932
       8       -0.000010644581    -0.000006123994    -0.000026757955
       9       -0.000016206213     0.000010338654     0.000001081575
      10        0.000007000181    -0.000011689798     0.000004240688
      11       -0.000010948218    -0.000008203701    -0.000005397081
      12       -0.000001737682    -0.000010667188     0.000023707686
      13       -0.000030132050    -0.000000168882     0.000021987426
      14        0.000017334327    -0.000020940313    -0.000004483728
      15       -0.000003738468     0.000030304598    -0.000016502587
      16        0.000014273466    -0.000011387445    -0.000001891934
      17       -0.000035190051     0.000009365573     0.000009973932
      18       -0.000001428350     0.000007979624    -0.000007370071
      19       -0.000006173506     0.000002254125     0.000009920598
      20        0.000005298925    -0.000005881655    -0.000005405360

  **** Optimization is complete! (in 6 steps) ****
    Final optimized geometry and variables:
    Molecular point group: c1

    Geometry (in Angstrom), charge = 0, multiplicity = 1:

    H            2.646436051781    -1.842840592217    -0.500744902433
    O            2.889483562878    -1.152708137449     0.103492662074
    C            2.089849661672    -0.065163015392    -0.029608834528
    C            0.628940855356    -0.336402785507     0.252180766721
    O            2.539919513804     0.985409847921    -0.320627714623
    C           -0.264751560273     0.888084358580     0.067430887083
    H            0.315319804102    -1.158374894869    -0.387345783631
    H            0.568045839240    -0.716661095611     1.269158653760
    C           -1.726861249158     0.653052994069     0.461001956506
    H           -0.209769059752     1.219410416828    -0.965308654859
    H            0.139068241217     1.698314063389     0.664020591800
    C           -2.485771753159    -0.336089202369    -0.428205168531
    H           -2.241605075559     1.610475106323     0.430771048897
    H           -1.775184076104     0.317835488885     1.496025335560
    C           -3.964861572610    -0.443443303566    -0.057797688373
    H           -2.395643621193    -0.025805848045    -1.467332613404
    H           -2.034501939888    -1.323043763845    -0.362745606262
    H           -4.481000039441    -1.149784999817    -0.700416090650
    H           -4.463114518489     0.516863462255    -0.153590743483
    H           -4.088412929285    -0.778165321070     0.968267170751

  Mulliken Charges: (a.u.)
   Center  Symbol    Alpha    Beta     Spin     Total
       1     H     0.26862  0.26862  0.00000  0.46275
       2     O     4.36472  4.36472  0.00000 -0.72943
       3     C     2.62209  2.62209  0.00000  0.75582
       4     C     3.21923  3.21923  0.00000 -0.43846
       5     O     4.24825  4.24825  0.00000 -0.49650
       6     C     3.15400  3.15400  0.00000 -0.30800
       7     H     0.41235  0.41235  0.00000  0.17531
       8     H     0.39731  0.39731  0.00000  0.20538
       9     C     3.15588  3.15588  0.00000 -0.31176
      10     H     0.41304  0.41304  0.00000  0.17391
      11     H     0.40518  0.40518  0.00000  0.18964
      12     C     3.15468  3.15468  0.00000 -0.30936
      13     H     0.41689  0.41689  0.00000  0.16621
      14     H     0.42305  0.42305  0.00000  0.15390
      15     C     3.23924  3.23924  0.00000 -0.47848
      16     H     0.42157  0.42157  0.00000  0.15687
      17     H     0.42482  0.42482  0.00000  0.15036
      18     H     0.41829  0.41829  0.00000  0.16343
      19     H     0.41988  0.41988  0.00000  0.16025
      20     H     0.42091  0.42091  0.00000  0.15818

   Total alpha = 32.00000, Total beta = 32.00000, Total charge =  0.00000
