  ==> Input File <==

--------------------------------------------------------------------------
set {
	reference rhf
	basis cc-pvtz
}

set_num_threads( 4 )
memory 2 gb

molecule MOL {
0 1

H	 3.889604	 0.356866	 -0.089510
N	 3.091268	 -0.241216	 -0.065538
C	 1.860978	 0.530248	 0.016256
H	 3.192566	 -0.835836	 0.730398
C	 0.644130	 -0.381765	 -0.031064
H	 1.835721	 1.204666	 -0.833114
H	 1.808789	 1.151975	 0.911067
C	 -0.678115	 0.376691	 0.025731
H	 0.693998	 -0.977147	 -0.936845
H	 0.693309	 -1.082142	 0.800523
C	 -1.832655	 -0.370992	 -0.635489
H	 -0.558365	 1.344537	 -0.455816
H	 -0.934561	 0.583281	 1.062277
C	 -3.151232	 0.393335	 -0.582265
H	 -1.578237	 -0.578787	 -1.671049
H	 -1.956903	 -1.336974	 -0.153605
H	 -3.069512	 1.350359	 -1.086911
H	 -3.948569	 -0.164549	 -1.059783
H	 -3.450876	 0.586524	 0.442541

	symmetry c1
}
set optking {
	frozen_dihedral = ("
		12 8 5 9
	")
}

ee = optimize('scf')
oeprop('DIPOLE', 'QUADRUPOLE', 'MULLIKEN_CHARGES')
f=open( 'psi4out.xyz', 'w' )
f.write( "19  " )
f.write( str(ee) + "\n" )
f.write( MOL.save_string_xyz() )
f.close()
--------------------------------------------------------------------------

    Molecular point group: c1
  Charge       = 0
  Multiplicity = 1
  Basis Set: CC-PVTZ
  Basis Set:
  @DF-RHF Final Energy:  -251.44607531029584
    Total Energy =                       -251.4460753102957824
    Molecular point group: c1
  Basis Set: CC-PVTZ
  Basis Set:
  Basis Set: CC-PVTZ
  Basis Set:
  @DF-RHF Final Energy:  -251.44629889711504
    Total Energy =                       -251.4462988971150139
  Basis Set: CC-PVTZ
  Basis Set:
  Basis Set: CC-PVTZ
  Basis Set:
  @DF-RHF Final Energy:  -251.44633336234261
    Total Energy =                       -251.4463333623426706
  Basis Set: CC-PVTZ
  Basis Set:
  Basis Set: CC-PVTZ
  Basis Set:
  @DF-RHF Final Energy:  -251.44633543467455
    Total Energy =                       -251.4463354346745518
  Basis Set: CC-PVTZ
  Basis Set:
  Charge       = 0
  Multiplicity = 1
  Basis Set: CC-PVTZ
  Basis Set:

    Orbital Energies (a.u.)
    -----------------------

    Doubly Occupied:

       1A    -15.526536     2A    -11.238424     3A    -11.212108
       4A    -11.210433     5A    -11.207572     6A    -11.205401
       7A     -1.178394     8A     -1.073672     9A     -0.999369
      10A     -0.901189    11A     -0.814613    12A     -0.789964
      13A     -0.664187    14A     -0.640649    15A     -0.621345
      16A     -0.586888    17A     -0.569082    18A     -0.550456
      19A     -0.526867    20A     -0.502261    21A     -0.479575
      22A     -0.466315    23A     -0.456633    24A     -0.452419
      25A     -0.383868

  @DF-RHF Final Energy:  -251.44633611657878

   => Energetics <=

    Nuclear Repulsion Energy =            246.0389944940737337
    One-Electron Energy =                -826.4542142212260387
    Two-Electron Energy =                 328.9688836105736414
    DFT Exchange-Correlation Energy =       0.0000000000000000
    Empirical Dispersion Energy =           0.0000000000000000
    PCM Polarization Energy =               0.0000000000000000
    EFP Energy =                            0.0000000000000000
    Total Energy =                       -251.4463361165787205
    Molecular point group: c1
  Basis Set: CC-PVTZ
  Basis Set:

  -Total Gradient:
     Atom            X                  Y                   Z
    ------   -----------------  -----------------  -----------------
       1        0.000017400301    -0.000005620104     0.000004700048
       2        0.000027486396     0.000005682261    -0.000000677581
       3       -0.000031119426    -0.000021238658    -0.000018340041
       4        0.000002625006    -0.000001783258     0.000003170675
       5        0.002150788823     0.003908994657    -0.001456750120
       6       -0.000006949606    -0.000003617107     0.000003218711
       7       -0.000004785706    -0.000011284107    -0.000006935162
       8       -0.001583473414    -0.002558143914    -0.003521350108
       9       -0.001541637680    -0.002799931280     0.001765090524
      10        0.000002153415    -0.000002050307     0.000021486339
      11        0.000009895184     0.000010210442     0.000019456605
      12        0.000977714897     0.001477993153     0.003171966923
      13       -0.000015821062    -0.000008244833     0.000015051093
      14       -0.000008519750    -0.000001341667    -0.000008133349
      15        0.000006947724     0.000008615995     0.000010998350
      16        0.000003940134     0.000003256361     0.000000836980
      17        0.000000913810    -0.000004314631     0.000001023255
      18       -0.000011710966     0.000005454293    -0.000001656981
      19        0.000004151917    -0.000002637296    -0.000003156161

  **** Optimization is complete! (in 5 steps) ****
    Final optimized geometry and variables:
    Molecular point group: c1

    Geometry (in Angstrom), charge = 0, multiplicity = 1:

    H            3.879992611970     0.279304743797     0.210168483702
    N            3.075281070130    -0.310680959097     0.207355302755
    C            1.850503736378     0.472818579928     0.211605604103
    H            3.131313399478    -0.889484012462     1.019212005315
    C            0.628441913205    -0.426483936062     0.121405187483
    H            1.873199269082     1.130110484805    -0.651029614714
    H            1.758362740421     1.113643361561     1.090094456260
    C           -0.696297247173     0.338564744948     0.172345693437
    H            0.686066124295    -1.028487309490    -0.779419980986
    H            0.655330409926    -1.139793791975     0.943047207583
    C           -1.865524653228    -0.419371367081    -0.446829155309
    H           -0.581612163509     1.306171295039    -0.311289310865
    H           -0.933037265547     0.569291960847     1.208499168730
    C           -3.192279283584     0.323087110386    -0.331002443930
    H           -1.650329422722    -0.613572473912    -1.493668649165
    H           -1.953529468357    -1.391984795187     0.030239717472
    H           -3.143967060109     1.288882899774    -0.823211036250
    H           -3.998849477853    -0.239770428779    -0.786737355420
    H           -3.455256198466     0.495907199714     0.707342207395

  Mulliken Charges: (a.u.)
   Center  Symbol    Alpha    Beta     Spin     Total
       1     H     0.43026  0.43026  0.00000  0.13948
       2     N     3.68934  3.68934  0.00000 -0.37867
       3     C     3.02682  3.02682  0.00000 -0.05364
       4     H     0.43084  0.43084  0.00000  0.13832
       5     C     3.08230  3.08230  0.00000 -0.16460
       6     H     0.45676  0.45676  0.00000  0.08648
       7     H     0.46783  0.46783  0.00000  0.06434
       8     C     3.09538  3.09538  0.00000 -0.19076
       9     H     0.44982  0.44982  0.00000  0.10036
      10     H     0.45941  0.45941  0.00000  0.08117
      11     C     3.08260  3.08260  0.00000 -0.16521
      12     H     0.45603  0.45603  0.00000  0.08793
      13     H     0.45556  0.45556  0.00000  0.08887
      14     C     3.14982  3.14982  0.00000 -0.29964
      15     H     0.45367  0.45367  0.00000  0.09265
      16     H     0.45422  0.45422  0.00000  0.09157
      17     H     0.45526  0.45526  0.00000  0.08947
      18     H     0.44855  0.44855  0.00000  0.10290
      19     H     0.45552  0.45552  0.00000  0.08896

   Total alpha = 25.00000, Total beta = 25.00000, Total charge =  0.00000
