  ==> Input File <==

--------------------------------------------------------------------------
set {
	reference rhf
	basis 6-31G*
}

set_num_threads( 4 )
memory 2 gb

molecule MOL {
0 1

O	 3.266088	 0.693293	 0.981982
C	 2.843464	 0.164689	 -0.000222
C	 1.546494	 -0.624492	 -0.000609
C	 3.581111	 0.248380	 -1.320839
C	 0.291004	 0.242674	 0.000989
H	 1.557904	 -1.283758	 -0.867573
H	 1.558622	 -1.285963	 0.864672
C	 -0.994322	 -0.586602	 0.000262
H	 0.309117	 0.896430	 -0.865270
H	 0.309661	 0.894078	 0.869017
C	 -2.259874	 0.272531	 0.000494
H	 -1.004862	 -1.240012	 -0.870939
H	 -1.005220	 -1.241071	 0.870675
C	 -3.549786	 -0.549746	 -0.000374
H	 -2.250389	 0.926680	 -0.869574
H	 -2.250838	 0.925513	 0.871430
C	 -4.809590	 0.315458	 -0.000369
H	 -3.560515	 -1.202009	 -0.871156
H	 -3.561123	 -1.202955	 0.869711
H	 -4.844746	 0.956611	 -0.876632
H	 -5.706986	 -0.295590	 -0.001609
H	 -4.845960	 0.954827	 0.877144
H	 2.951698	 0.706565	 -2.078152
H	 4.482517	 0.832685	 -1.198824
H	 3.838673	 -0.745761	 -1.674364

	symmetry c1
}
set optking {
	frozen_dihedral = ("
		1 2 3 6
	")
}

ee = optimize('scf')
oeprop('DIPOLE', 'QUADRUPOLE', 'MULLIKEN_CHARGES')
f=open( 'psi4out.xyz', 'w' )
f.write( "25  " )
f.write( str(ee) + "\n" )
f.write( MOL.save_string_xyz() )
f.close()
--------------------------------------------------------------------------

    Molecular point group: c1
  Charge       = 0
  Multiplicity = 1
  Basis Set: 6-31G*
  Basis Set:
  @DF-RHF Final Energy:  -387.13359937142604
    Total Energy =                       -387.1335993714261576
    Molecular point group: c1
  Basis Set: 6-31G*
  Basis Set:
  Basis Set: 6-31G*
  Basis Set:
  @DF-RHF Final Energy:  -387.13431420964264
    Total Energy =                       -387.1343142096433212
  Basis Set: 6-31G*
  Basis Set:
  Basis Set: 6-31G*
  Basis Set:
  @DF-RHF Final Energy:  -387.13448149074515
    Total Energy =                       -387.1344814907455429
  Basis Set: 6-31G*
  Basis Set:
  Basis Set: 6-31G*
  Basis Set:
  @DF-RHF Final Energy:  -387.13455627797958
    Total Energy =                       -387.1345562779795273
  Basis Set: 6-31G*
  Basis Set:
  Basis Set: 6-31G*
  Basis Set:
  @DF-RHF Final Energy:  -387.13456284489604
    Total Energy =                       -387.1345628448957541
  Basis Set: 6-31G*
  Basis Set:
  Basis Set: 6-31G*
  Basis Set:
  @DF-RHF Final Energy:  -387.13456644285736
    Total Energy =                       -387.1345664428579312
  Basis Set: 6-31G*
  Basis Set:
  Basis Set: 6-31G*
  Basis Set:
  @DF-RHF Final Energy:  -387.13456811547911
    Total Energy =                       -387.1345681154781460
  Basis Set: 6-31G*
  Basis Set:
  Charge       = 0
  Multiplicity = 1
  Basis Set: 6-31G*
  Basis Set:

    Orbital Energies (a.u.)
    -----------------------

    Doubly Occupied:

       1A    -20.547229     2A    -11.324426     3A    -11.229510
       4A    -11.228908     5A    -11.228166     6A    -11.221779
       7A    -11.218462     8A    -11.217756     9A    -11.210794
      10A     -1.393045    11A     -1.098455    12A     -1.058824
      13A     -1.013045    14A     -0.970812    15A     -0.893573
      16A     -0.817509    17A     -0.795203    18A     -0.732392
      19A     -0.667393    20A     -0.647213    21A     -0.637688
      22A     -0.609880    23A     -0.604073    24A     -0.587160
      25A     -0.568225    26A     -0.557818    27A     -0.541440
      28A     -0.539459    29A     -0.509619    30A     -0.498482
      31A     -0.488920    32A     -0.476371    33A     -0.467745
      34A     -0.466622    35A     -0.452294    36A     -0.395649

  @DF-RHF Final Energy:  -387.13456833493979

   => Energetics <=

    Nuclear Repulsion Energy =            438.9702368224116071
    One-Electron Energy =               -1394.3777272697921035
    Two-Electron Energy =                 568.2729221124409378
    DFT Exchange-Correlation Energy =       0.0000000000000000
    Empirical Dispersion Energy =           0.0000000000000000
    PCM Polarization Energy =               0.0000000000000000
    EFP Energy =                            0.0000000000000000
    Total Energy =                       -387.1345683349395586
    Molecular point group: c1
  Basis Set: 6-31G*
  Basis Set:

  -Total Gradient:
     Atom            X                  Y                   Z
    ------   -----------------  -----------------  -----------------
       1       -0.000046356450     0.000052304776    -0.000025966145
       2        0.000066176488    -0.000048712707     0.000009679654
       3        0.000034508823    -0.000038633737     0.000061708326
       4        0.000013975228    -0.000021057601     0.000010505890
       5       -0.000001896135     0.000007652615    -0.000011518940
       6       -0.000038780566     0.000059505010    -0.000035845703
       7        0.000005764644    -0.000011237979     0.000000118070
       8       -0.000007208138     0.000000650985    -0.000005410969
       9        0.000001838287     0.000001618092    -0.000003235166
      10       -0.000000943271     0.000000400450    -0.000007623103
      11       -0.000003688798    -0.000003480090     0.000008025315
      12       -0.000001565732     0.000003494751    -0.000007583132
      13       -0.000006058821    -0.000008108719    -0.000003182196
      14        0.000001887168     0.000000098146     0.000007223506
      15        0.000001724866    -0.000006292157    -0.000002329545
      16       -0.000001871566     0.000006340908    -0.000001628865
      17        0.000001953126     0.000001130126     0.000004471321
      18        0.000002372066     0.000002550494    -0.000000965483
      19       -0.000001840753    -0.000002702625    -0.000000305527
      20        0.000000680933    -0.000000707800    -0.000000445170
      21        0.000000601265    -0.000000789947     0.000000275538
      22       -0.000000763876     0.000001221714    -0.000000075157
      23       -0.000011079179     0.000001629391     0.000004891706
      24       -0.000009915932     0.000001153947     0.000004758073
      25        0.000000486324     0.000001971956    -0.000005542299

  **** Optimization is complete! (in 8 steps) ****
    Final optimized geometry and variables:
    Molecular point group: c1

    Geometry (in Angstrom), charge = 0, multiplicity = 1:

    O            3.221704603913     0.640987845214     1.047271172667
    C            2.844367962017     0.122368000476     0.040857973240
    C            1.578544534817    -0.717024883382     0.025351127172
    C            3.585051004581     0.292803875153    -1.266683484497
    C            0.328117974221     0.176199638622     0.011391513334
    H            1.569996981434    -1.380103027594    -0.835024125892
    H            1.577833296331    -1.327530678977     0.921889669322
    C           -0.971267729350    -0.630167357504     0.029448756761
    H            0.343578616647     0.813995684441    -0.870684188476
    H            0.366010883169     0.835596531583     0.872876421743
    C           -2.222083375208     0.250372890633     0.026419365556
    H           -0.996242613135    -1.295132037753    -0.832160788163
    H           -0.982613650761    -1.269762807573     0.909872638442
    C           -3.524748650422    -0.551319847520     0.051177559996
    H           -2.211096481259     0.889507892666    -0.854995385747
    H           -2.194453182036     0.917143692536     0.886327431500
    C           -4.770396429189     0.334059212991     0.048409434382
    H           -3.553937977825    -1.217715516116    -0.808361424984
    H           -3.537757561420    -1.189318195563     0.932222512948
    H           -4.804461626895     0.960339021696    -0.838626398234
    H           -5.677078338712    -0.262651855697     0.066675241297
    H           -4.787829842706     0.988817177586     0.915024728316
    H            2.909544217864     0.626194146251    -2.049285516037
    H            4.388645348571     1.005936325092    -1.146704402387
    H            3.994333807665    -0.663092662682    -1.582771319577

  Mulliken Charges: (a.u.)
   Center  Symbol    Alpha    Beta     Spin     Total
       1     O     4.26246  4.26246  0.00000 -0.52492
       2     C     2.73698  2.73698  0.00000  0.52604
       3     C     3.20014  3.20014  0.00000 -0.40029
       4     C     3.28956  3.28956  0.00000 -0.57911
       5     C     3.16164  3.16164  0.00000 -0.32328
       6     H     0.41694  0.41694  0.00000  0.16612
       7     H     0.40131  0.40131  0.00000  0.19738
       8     C     3.15210  3.15210  0.00000 -0.30420
       9     H     0.42088  0.42088  0.00000  0.15824
      10     H     0.40559  0.40559  0.00000  0.18883
      11     C     3.15164  3.15164  0.00000 -0.30328
      12     H     0.42336  0.42336  0.00000  0.15328
      13     H     0.42030  0.42030  0.00000  0.15941
      14     C     3.15189  3.15189  0.00000 -0.30378
      15     H     0.42374  0.42374  0.00000  0.15251
      16     H     0.42136  0.42136  0.00000  0.15728
      17     C     3.23952  3.23952  0.00000 -0.47904
      18     H     0.42321  0.42321  0.00000  0.15359
      19     H     0.42219  0.42219  0.00000  0.15561
      20     H     0.42170  0.42170  0.00000  0.15660
      21     H     0.41881  0.41881  0.00000  0.16239
      22     H     0.42091  0.42091  0.00000  0.15819
      23     H     0.40973  0.40973  0.00000  0.18054
      24     H     0.39711  0.39711  0.00000  0.20577
      25     H     0.40694  0.40694  0.00000  0.18611

   Total alpha = 36.00000, Total beta = 36.00000, Total charge = -0.00000
