  ==> Input File <==

--------------------------------------------------------------------------
set {
	reference rhf
	basis 6-31G*
}

set_num_threads( 4 )
memory 2 gb

molecule MOL {
0 1

O	 0.698787	 2.126651	 0.052629
C	 -0.406722	 2.550877	 0.157139
C	 -1.668827	 1.723242	 0.154283
O	 -0.679285	 3.842454	 0.293198
C	 -1.412532	 0.227344	 -0.000452
H	 -2.200084	 1.938197	 1.077492
H	 -2.301730	 2.099016	 -0.645080
C	 -2.706999	 -0.587347	 -0.000541
H	 -0.765172	 -0.110331	 0.802919
H	 -0.866498	 0.050761	 -0.921956
C	 -3.956778	 0.291888	 0.000910
H	 -2.726114	 -1.239230	 -0.871609
H	 -2.725217	 -1.240844	 0.869333
H	 -3.985213	 0.933254	 -0.875158
H	 -4.860123	 -0.309979	 0.000519
H	 -3.984618	 0.931166	 0.878514
C	 0.421431	 4.733088	 0.311492
H	 1.079583	 4.506904	 1.138030
H	 0.000788	 5.719763	 0.427598
H	 0.977273	 4.669317	 -0.612889

	symmetry c1
}
set optking {
	frozen_dihedral = ("
		9 5 8 12
	")
}

ee = optimize('scf')
oeprop('DIPOLE', 'QUADRUPOLE', 'MULLIKEN_CHARGES')
f=open( 'psi4out.xyz', 'w' )
f.write( "20  " )
f.write( str(ee) + "\n" )
f.write( MOL.save_string_xyz() )
f.close()
--------------------------------------------------------------------------

    Molecular point group: c1
  Charge       = 0
  Multiplicity = 1
  Basis Set: 6-31G*
  Basis Set:
  @DF-RHF Final Energy:  -383.92690579616982
    Total Energy =                       -383.9269057961696490
    Molecular point group: c1
  Basis Set: 6-31G*
  Basis Set:
  Basis Set: 6-31G*
  Basis Set:
  @DF-RHF Final Energy:  -383.92671694004179
    Total Energy =                       -383.9267169400418425
  Basis Set: 6-31G*
  Basis Set:
  Basis Set: 6-31G*
  Basis Set:
  @DF-RHF Final Energy:  -383.93100500445001
    Total Energy =                       -383.9310050044498439
  Basis Set: 6-31G*
  Basis Set:
  Basis Set: 6-31G*
  Basis Set:
  @DF-RHF Final Energy:  -383.93165463616657
    Total Energy =                       -383.9316546361668543
  Basis Set: 6-31G*
  Basis Set:
  @DF-RHF Final Energy:  -383.93122584142691
    Total Energy =                       -383.9312258414267944
  Basis Set: 6-31G*
  Basis Set:
  @DF-RHF Final Energy:  -383.93110670502762
    Total Energy =                       -383.9311067050272186
  Basis Set: 6-31G*
  Basis Set:
  Basis Set: 6-31G*
  Basis Set:
  @DF-RHF Final Energy:  -383.93176021950364
    Total Energy =                       -383.9317602195030759
  Basis Set: 6-31G*
  Basis Set:
  Basis Set: 6-31G*
  Basis Set:
  @DF-RHF Final Energy:  -383.93176242039101
    Total Energy =                       -383.9317624203907826
  Basis Set: 6-31G*
  Basis Set:
  Charge       = 0
  Multiplicity = 1
  Basis Set: 6-31G*
  Basis Set:

    Orbital Energies (a.u.)
    -----------------------

    Doubly Occupied:

       1A    -20.603385     2A    -20.545381     3A    -11.372100
       4A    -11.280718     5A    -11.235107     6A    -11.220602
       7A    -11.219514     8A    -11.213614     9A     -1.469180
      10A     -1.362639    11A     -1.084843    12A     -1.021031
      13A     -0.967586    14A     -0.897904    15A     -0.798684
      16A     -0.760302    17A     -0.700790    18A     -0.683429
      19A     -0.670654    20A     -0.643364    21A     -0.605160
      22A     -0.590960    23A     -0.565605    24A     -0.545870
      25A     -0.541791    26A     -0.521959    27A     -0.515716
      28A     -0.472549    29A     -0.471208    30A     -0.459678
      31A     -0.452302    32A     -0.437846

  @DF-RHF Final Energy:  -383.93176196804416

   => Energetics <=

    Nuclear Repulsion Energy =            385.3632058685791435
    One-Electron Energy =               -1286.7269913033694593
    Two-Electron Energy =                 517.4320234667459317
    DFT Exchange-Correlation Energy =       0.0000000000000000
    Empirical Dispersion Energy =           0.0000000000000000
    PCM Polarization Energy =               0.0000000000000000
    EFP Energy =                            0.0000000000000000
    Total Energy =                       -383.9317619680443840
    Molecular point group: c1
  Basis Set: 6-31G*
  Basis Set:

  -Total Gradient:
     Atom            X                  Y                   Z
    ------   -----------------  -----------------  -----------------
       1       -0.000009128655     0.000022480971    -0.000045470812
       2        0.000014238061    -0.000035174404     0.000140538745
       3        0.000043227336     0.000045925745    -0.000069286925
       4       -0.000004271637    -0.000031486957    -0.000036417096
       5        0.000954911292    -0.001301947857    -0.001825903700
       6       -0.000012966646    -0.000007656410     0.000007984590
       7        0.000017054035     0.000006101869     0.000007362455
       8        0.000949264982    -0.001480265232     0.001636505240
       9       -0.000922144382     0.001361635701     0.001270425116
      10       -0.000005897768     0.000015233433     0.000029238344
      11       -0.000009788409    -0.000023337225    -0.000029300124
      12       -0.001000906876     0.001449742614    -0.001084977890
      13       -0.000025802096    -0.000004222029    -0.000030600005
      14       -0.000032408538    -0.000049742919    -0.000004693784
      15        0.000011020965    -0.000013895867     0.000018262005
      16        0.000028647473     0.000037505290     0.000017514763
      17       -0.000000148946     0.000004669423     0.000001606208
      18       -0.000001175991    -0.000000916217    -0.000001535650
      19        0.000004282922     0.000003562199    -0.000001505885
      20        0.000001992879     0.000001787870     0.000000254404

  **** Optimization is complete! (in 9 steps) ****
    Final optimized geometry and variables:
    Molecular point group: c1

    Geometry (in Angstrom), charge = 0, multiplicity = 1:

    O            1.903330459685     0.214496475578    -0.072657963647
    C            0.812616688284     0.674706448269     0.035338540328
    C           -0.480026179232    -0.106114186208     0.034449706118
    O            0.584701439763     1.974993736615     0.173974668102
    C           -0.255813099991    -1.610673325555    -0.122939988572
    H           -0.994108677404     0.131797613218     0.960307169099
    H           -1.095809614137     0.301573453012    -0.760314408760
    C           -1.534745379221    -2.493759076690    -0.121817126070
    H            0.395935765285    -1.925545986017     0.683575909728
    H            0.302804919625    -1.775065631861    -1.036487665754
    C           -2.887210796396    -1.772847434200    -0.131820742466
    H           -1.507014197644    -3.138655743015    -0.994716677879
    H           -1.509240872466    -3.152473253561     0.740465543364
    H           -3.010563735113    -1.151318106693    -1.013182912849
    H           -3.691337125501    -2.502067072519    -0.135799899486
    H           -3.025534894575    -1.143847602513     0.741491303918
    C            1.715208775147     2.827365658935     0.190675526433
    H            2.367546566259     2.577506350082     1.015027784471
    H            1.328894691901     3.827686437354     0.309503676839
    H            2.266157540249     2.746285957467    -0.735288937444

  Mulliken Charges: (a.u.)
   Center  Symbol    Alpha    Beta     Spin     Total
       1     O     4.28583  4.28583  0.00000 -0.57167
       2     C     2.60510  2.60510  0.00000  0.78980
       3     C     3.21043  3.21043  0.00000 -0.42086
       4     O     4.30751  4.30751  0.00000 -0.61502
       5     C     3.15760  3.15760  0.00000 -0.31521
       6     H     0.40012  0.40012  0.00000  0.19976
       7     H     0.39955  0.39955  0.00000  0.20090
       8     C     3.15710  3.15710  0.00000 -0.31421
       9     H     0.40922  0.40922  0.00000  0.18156
      10     H     0.40906  0.40906  0.00000  0.18187
      11     C     3.24461  3.24461  0.00000 -0.48922
      12     H     0.41777  0.41777  0.00000  0.16445
      13     H     0.41807  0.41807  0.00000  0.16387
      14     H     0.42121  0.42121  0.00000  0.15757
      15     H     0.41655  0.41655  0.00000  0.16689
      16     H     0.42119  0.42119  0.00000  0.15762
      17     C     3.09231  3.09231  0.00000 -0.18461
      18     H     0.40915  0.40915  0.00000  0.18171
      19     H     0.40848  0.40848  0.00000  0.18304
      20     H     0.40913  0.40913  0.00000  0.18174

   Total alpha = 32.00000, Total beta = 32.00000, Total charge =  0.00000
