                              Psi4 1.0.54 Driver

  ==> Input File <==

--------------------------------------------------------------------------
set {
	reference rhf
	basis cc-pvtz
}

set_num_threads( 4 )
memory 2 gb

molecule MOL {
0 1

O	 -1.278239	 1.034789	 -0.784693
C	 -1.204115	 0.062668	 -0.112312
C	 -2.386398	 -0.667698	 0.460323
O	 -0.068058	 -0.518372	 0.226882
H	 -2.382952	 -1.693172	 0.114333
H	 -3.296656	 -0.175702	 0.158400
H	 -2.312537	 -0.685191	 1.540100
C	 1.169086	 0.037484	 -0.230612
C	 0.997594	 0.289227	 -1.715310
C	 2.309214	 -0.914751	 0.082378
H	 1.324910	 0.971117	 0.288172
H	 0.173139	 0.967079	 -1.895704
H	 1.899111	 0.730173	 -2.123409
H	 0.800328	 -0.637031	 -2.241682
H	 3.245173	 -0.500919	 -0.274306
H	 2.394856	 -1.074097	 1.148175
H	 2.150671	 -1.870263	 -0.404597

	symmetry c1
}
set optking {
	frozen_dihedral = ("
		11 8 4 2
	")
}

ee,wfn = optimize('scf', return_wfn=True)
oeprop( wfn, 'DIPOLE', 'QUADRUPOLE', 'MULLIKEN_CHARGES')
f=open( 'psi4out.xyz', 'w' )
f.write( "17  " )
f.write( str(ee) + "\n" )
f.write( MOL.save_string_xyz() )
f.close()
--------------------------------------------------------------------------

    Molecular point group: c1
  Charge       = 0
  Multiplicity = 1
  Basis Set: CC-PVTZ
  Basis Set:
  @DF-RHF Final Energy:  -345.02431435080291
    Total Energy =                       -345.0243143508031949
    Molecular point group: c1
  Basis Set: CC-PVTZ
  Basis Set:
  Basis Set: CC-PVTZ
  Basis Set:
  @DF-RHF Final Energy:  -345.03719163972829
    Total Energy =                       -345.0371916397282348
  Basis Set: CC-PVTZ
  Basis Set:
  Basis Set: CC-PVTZ
  Basis Set:
  @DF-RHF Final Energy:  -345.03900147751483
    Total Energy =                       -345.0390014775147165
  Basis Set: CC-PVTZ
  Basis Set:
  Basis Set: CC-PVTZ
  Basis Set:
  @DF-RHF Final Energy:  -344.80715290791358
    Total Energy =                       -344.8071529079137463
  Basis Set: CC-PVTZ
  Basis Set:
  @DF-RHF Final Energy:  -344.94205246913259
    Total Energy =                       -344.9420524691328751
  @DF-RHF Final Energy:  -345.02928477301867
    Total Energy =                       -345.0292847730186168
  @DF-RHF Final Energy:  -345.03382528759829
    Total Energy =                       -345.0338252875985745
  @DF-RHF Final Energy:  -345.03751736636343
    Total Energy =                       -345.0375173663632040
  @DF-RHF Final Energy:  -345.03893407993775
    Total Energy =                       -345.0389340799373485
  @DF-RHF Final Energy:  -345.03939303776696
    Total Energy =                       -345.0393930377672973
  @DF-RHF Final Energy:  -345.03942706392002
    Total Energy =                       -345.0394270639201295
  @DF-RHF Final Energy:  -345.03943680847789
    Total Energy =                       -345.0394368084776033
  Basis Set: CC-PVTZ
  Basis Set:
  @DF-RHF Final Energy:  -345.03944148990468
    Total Energy =                       -345.0394414899051299
  Basis Set: CC-PVTZ
  Basis Set:
  Basis Set: CC-PVTZ
  Basis Set:
  @DF-RHF Final Energy:  -345.03944692941445
    Total Energy =                       -345.0394469294149076
  Basis Set: CC-PVTZ
  Basis Set:
  Basis Set: CC-PVTZ
  Basis Set:
  @DF-RHF Final Energy:  -345.03944932527816
    Total Energy =                       -345.0394493252781558
  Basis Set: CC-PVTZ
  Basis Set:
  Charge       = 0
  Multiplicity = 1
  Basis Set: CC-PVTZ
  Basis Set:

    Orbital Energies (a.u.)
    -----------------------

    Doubly Occupied:

       1A    -20.590697     2A    -20.530869     3A    -11.366543
       4A    -11.292084     5A    -11.229906     6A    -11.217249
       7A    -11.211965     8A     -1.466688     9A     -1.364614
      10A     -1.080301    11A     -1.005147    12A     -0.947555
      13A     -0.854684    14A     -0.757753    15A     -0.694143
      16A     -0.678980    17A     -0.661012    18A     -0.616890
      19A     -0.586482    20A     -0.579211    21A     -0.554498
      22A     -0.550209    23A     -0.541876    24A     -0.520228
      25A     -0.502925    26A     -0.484753    27A     -0.451351
      28A     -0.435214

  @DF-RHF Final Energy:  -345.03944981160862

   => Energetics <=

    Nuclear Repulsion Energy =            324.3694486873678215
    One-Electron Energy =               -1113.2701409505855281
    Two-Electron Energy =                 443.8612424516088595
    DFT Exchange-Correlation Energy =       0.0000000000000000
    Empirical Dispersion Energy =           0.0000000000000000
    PCM Polarization Energy =               0.0000000000000000
    EFP Energy =                            0.0000000000000000
    Total Energy =                       -345.0394498116088471
    Molecular point group: c1
  Basis Set: CC-PVTZ
  Basis Set:

  -Total Gradient:
     Atom            X                  Y                   Z
    ------   -----------------  -----------------  -----------------
       1       -0.000032883857     0.000063639043    -0.000014103764
       2        0.001096076155    -0.001567921129    -0.005360277487
       3       -0.000035220021     0.000056658840    -0.000005661640
       4       -0.000694380834     0.001450852169     0.008858821910
       5        0.000006294095    -0.000015855153     0.000004869024
       6        0.000008747301    -0.000008300358     0.000001753814
       7        0.000003964967    -0.000013517356    -0.000006855731
       8       -0.004226654385     0.003078344923    -0.007256046868
       9       -0.000009283557    -0.000013607662     0.000009503352
      10       -0.000017156875     0.000009139825     0.000021896646
      11        0.003887036428    -0.003056037993     0.003743107737
      12        0.000003750891     0.000007199384     0.000002999725
      13        0.000001818566     0.000002639795    -0.000003843181
      14        0.000000074270    -0.000003153636     0.000000740803
      15        0.000007850093     0.000003548900     0.000001979915
      16        0.000003135079     0.000004004747     0.000001324535
      17       -0.000003168319     0.000002365664    -0.000000208792

  **** Optimization is complete! (in 16 steps) ****
    Final optimized geometry and variables:
    Molecular point group: c1

    Geometry (in Angstrom), charge = 0, multiplicity = 1:

    O           -1.659137271876     0.726742640009    -0.122950097189
    C           -1.151437989024    -0.323985836047     0.076584249147
    C           -1.888466016334    -1.634614872969     0.075837856004
    O            0.127625050372    -0.495516541116     0.353261240161
    H           -1.500125044248    -2.265702051464    -0.713632100608
    H           -2.940701288792    -1.457773310831    -0.076869018563
    H           -1.725905197732    -2.146803149227     1.014968532360
    C            1.075539736265     0.573158684381     0.237257946754
    C            1.067330484170     1.241519717818    -1.126144527568
    C            2.416845423339    -0.074223597888     0.538606826268
    H            0.866358619489     1.280999299402     1.029368525192
    H            0.152458668392     1.777724516790    -1.312385397484
    H            1.894743065927     1.939411822842    -1.176868597687
    H            1.207696417841     0.500269916264    -1.905823112290
    H            3.196099562282     0.677844473824     0.559540507555
    H            2.392287210729    -0.569899467349     1.500334969942
    H            2.667161522325    -0.808372120966    -0.217982144957

  Mulliken Charges: (a.u.)
   Center  Symbol    Alpha    Beta     Spin     Total
       1     O     4.19977  4.19977  0.00000 -0.39955
       2     C     2.80643  2.80643  0.00000  0.38715
       3     C     3.13798  3.13798  0.00000 -0.27597
       4     O     4.16093  4.16093  0.00000 -0.32185
       5     H     0.44734  0.44734  0.00000  0.10532
       6     H     0.43842  0.43842  0.00000  0.12315
       7     H     0.44493  0.44493  0.00000  0.11014
       8     C     2.92799  2.92799  0.00000  0.14402
       9     C     3.16403  3.16403  0.00000 -0.32806
      10     C     3.13887  3.13887  0.00000 -0.27773
      11     H     0.44829  0.44829  0.00000  0.10341
      12     H     0.42756  0.42756  0.00000  0.14487
      13     H     0.44924  0.44924  0.00000  0.10153
      14     H     0.45393  0.45393  0.00000  0.09214
      15     H     0.45502  0.45502  0.00000  0.08997
      16     H     0.44619  0.44619  0.00000  0.10761
      17     H     0.45307  0.45307  0.00000  0.09385

   Total alpha = 28.00000, Total beta = 28.00000, Total charge = -0.00000

*** Psi4 exiting successfully. Buy a developer a beer!
