  ==> Input File <==

--------------------------------------------------------------------------
set {
	reference rhf
	basis 6-31G*
}

set_num_threads( 4 )
memory 2 gb

molecule MOL {
0 1

H	 -0.124562	 -3.735866	 0.265615
O	 0.229269	 -2.858139	 0.159849
C	 -0.788811	 -1.998413	 0.163536
C	 -0.318135	 -0.576402	 0.000164
O	 -1.915936	 -2.353582	 0.283705
C	 -1.454360	 0.441875	 -0.000474
H	 0.390739	 -0.375753	 0.799063
H	 0.254685	 -0.528537	 -0.922111
C	 -2.826123	 -0.230780	 0.000056
H	 -1.357605	 1.085198	 -0.868380
H	 -1.357504	 1.086451	 0.866496
H	 -2.959731	 -0.858053	 -0.876869
H	 -3.619374	 0.509403	 -0.000080
H	 -2.959371	 -0.857318	 0.877556

	symmetry c1
}
set optking {
	frozen_dihedral = ("
		7 4 6 10
	")
}

ee = optimize('scf')
oeprop('DIPOLE', 'QUADRUPOLE', 'MULLIKEN_CHARGES')
f=open( 'psi4out.xyz', 'w' )
f.write( "14  " )
f.write( str(ee) + "\n" )
f.write( MOL.save_string_xyz() )
f.close()
--------------------------------------------------------------------------

    Molecular point group: c1
  Charge       = 0
  Multiplicity = 1
  Basis Set: 6-31G*
  Basis Set:
  @DF-RHF Final Energy:  -305.84375544701720
    Total Energy =                       -305.8437554470170880
    Molecular point group: c1
  Basis Set: 6-31G*
  Basis Set:
  Basis Set: 6-31G*
  Basis Set:
  @DF-RHF Final Energy:  -305.86318196015941
    Total Energy =                       -305.8631819601594088
  Basis Set: 6-31G*
  Basis Set:
  Basis Set: 6-31G*
  Basis Set:
  @DF-RHF Final Energy:  -305.86666062904919
    Total Energy =                       -305.8666606290491927
  Basis Set: 6-31G*
  Basis Set:
  Basis Set: 6-31G*
  Basis Set:
  @DF-RHF Final Energy:  -305.86508816836300
    Total Energy =                       -305.8650881683631155
  Basis Set: 6-31G*
  Basis Set:
  @DF-RHF Final Energy:  -305.86835825281605
    Total Energy =                       -305.8683582528161082
  @DF-RHF Final Energy:  -305.86850370037450
    Total Energy =                       -305.8685037003743901
  @DF-RHF Final Energy:  -305.86852854619008
    Total Energy =                       -305.8685285461899639
  @DF-RHF Final Energy:  -305.86854398292900
    Total Energy =                       -305.8685439829289407
  @DF-RHF Final Energy:  -305.86855892571208
    Total Energy =                       -305.8685589257121933
  @DF-RHF Final Energy:  -305.86857428517578
    Total Energy =                       -305.8685742851758960
  @DF-RHF Final Energy:  -305.86861352672315
    Total Energy =                       -305.8686135267231521
  @DF-RHF Final Energy:  -305.86321255677478
    Total Energy =                       -305.8632125567748972
  @DF-RHF Final Energy:  -305.86780958783959
    Total Energy =                       -305.8678095878397016
  @DF-RHF Final Energy:  -305.86873962889860
    Total Energy =                       -305.8687396288987657
  @DF-RHF Final Energy:  -305.86888443611326
    Total Energy =                       -305.8688844361136034
  @DF-RHF Final Energy:  -305.86896272997490
    Total Energy =                       -305.8689627299750100
  @DF-RHF Final Energy:  -305.86912894230863
    Total Energy =                       -305.8691289423087483
  @DF-RHF Final Energy:  -305.86927379777228
    Total Energy =                       -305.8692737977723937
  @DF-RHF Final Energy:  -305.86942593462197
    Total Energy =                       -305.8694259346219724
  @DF-RHF Final Energy:  -305.86952470313895
    Total Energy =                       -305.8695247031391773
  @DF-RHF Final Energy:  -305.86994141586734
    Total Energy =                       -305.8699414158674017
  @DF-RHF Final Energy:  -305.87031146499305
    Total Energy =                       -305.8703114649932786
  @DF-RHF Final Energy:  -305.87042339902337
    Total Energy =                       -305.8704233990231955
  @DF-RHF Final Energy:  -305.87052262698558
    Total Energy =                       -305.8705226269858031
  @DF-RHF Final Energy:  -305.87077137464553
    Total Energy =                       -305.8707713746457557
  @DF-RHF Final Energy:  -305.87097185967320
    Total Energy =                       -305.8709718596732614
  @DF-RHF Final Energy:  -305.87109243021519
    Total Energy =                       -305.8710924302150715
  @DF-RHF Final Energy:  -305.87118405172725
    Total Energy =                       -305.8711840517270844
  @DF-RHF Final Energy:  -305.87122477522280
    Total Energy =                       -305.8712247752229700
  @DF-RHF Final Energy:  -305.87124221386358
    Total Energy =                       -305.8712422138637521
  @DF-RHF Final Energy:  -305.87129749317194
    Total Energy =                       -305.8712974931718236
  @DF-RHF Final Energy:  -305.87131901245880
    Total Energy =                       -305.8713190124589119
  @DF-RHF Final Energy:  -305.87135971005097
    Total Energy =                       -305.8713597100512516
  @DF-RHF Final Energy:  -305.87138930123945
    Total Energy =                       -305.8713893012392191
  @DF-RHF Final Energy:  -305.87141520056832
    Total Energy =                       -305.8714152005683786
  @DF-RHF Final Energy:  -305.87146820825569
    Total Energy =                       -305.8714682082556351
  Basis Set: 6-31G*
  Basis Set:
  @DF-RHF Final Energy:  -305.87149306474748
    Total Energy =                       -305.8714930647475967
  Basis Set: 6-31G*
  Basis Set:
  Basis Set: 6-31G*
  Basis Set:
  @DF-RHF Final Energy:  -305.87145013493262
    Total Energy =                       -305.8714501349325019
  Basis Set: 6-31G*
  Basis Set:
  Basis Set: 6-31G*
  Basis Set:
  @DF-RHF Final Energy:  -305.87149801301177
    Total Energy =                       -305.8714980130117738
  Basis Set: 6-31G*
  Basis Set:
  Charge       = 0
  Multiplicity = 1
  Basis Set: 6-31G*
  Basis Set:

    Orbital Energies (a.u.)
    -----------------------

    Doubly Occupied:

       1A    -20.613930     2A    -20.549135     3A    -11.380336
       4A    -11.239397     5A    -11.236847     6A    -11.216636
       7A     -1.474429     8A     -1.364323     9A     -1.079999
      10A     -0.976960    11A     -0.864031    12A     -0.796096
      13A     -0.701839    14A     -0.676881    15A     -0.649990
      16A     -0.633731    17A     -0.585669    18A     -0.571411
      19A     -0.559143    20A     -0.507920    21A     -0.496918
      22A     -0.483129    23A     -0.470926    24A     -0.438203

  @DF-RHF Final Energy:  -305.87149832018622

   => Energetics <=

    Nuclear Repulsion Energy =            246.9045562200544737
    One-Electron Energy =                -906.4163507036604415
    Two-Electron Energy =                 353.6402961634202029
    DFT Exchange-Correlation Energy =       0.0000000000000000
    Empirical Dispersion Energy =           0.0000000000000000
    PCM Polarization Energy =               0.0000000000000000
    EFP Energy =                            0.0000000000000000
    Total Energy =                       -305.8714983201857649
    Molecular point group: c1
  Basis Set: 6-31G*
  Basis Set:

  -Total Gradient:
     Atom            X                  Y                   Z
    ------   -----------------  -----------------  -----------------
       1       -0.000000270629     0.000007480072     0.000003161684
       2       -0.000004948248    -0.000004533982    -0.000052231595
       3        0.000014580998     0.000043836108     0.000062256166
       4        0.001231166406     0.001155038153    -0.001618243170
       5       -0.000018146241    -0.000003377328    -0.000001729255
       6        0.000695987453     0.001396485372     0.001599121103
       7       -0.001117006066    -0.001196344958     0.001110112415
       8       -0.000006415227    -0.000003616220     0.000000730708
       9       -0.000000091657    -0.000005353300    -0.000001477006
      10       -0.000800810849    -0.001384896805    -0.001117221421
      11        0.000001354423    -0.000005865748     0.000006082660
      12        0.000001498544    -0.000000466470     0.000004156425
      13        0.000001455629     0.000003456031     0.000002673175
      14        0.000001645466    -0.000001840924     0.000002608105

  **** Optimization is complete! (in 41 steps) ****
    Final optimized geometry and variables:
    Molecular point group: c1

    Geometry (in Angstrom), charge = 0, multiplicity = 1:

    H            0.254076874294    -2.278862066115    -0.628147525986
    O            0.495796417616    -1.386760808473    -0.858481677288
    C            0.514856510417    -0.662868470272     0.259928159035
    C            0.861442629962     0.783741046081     0.011799659359
    O            0.272073894723    -1.138461871805     1.321906465119
    C           -0.377241299561     1.696708206128    -0.238048238596
    H            1.386006564224     1.114107848837     0.898128357363
    H            1.539680965912     0.830619773164    -0.829756477792
    C           -1.715825041214     0.979925424046    -0.436981424698
    H           -0.180472438670     2.294774322196    -1.120705604999
    H           -0.471140716120     2.385325885340     0.593271471523
    H           -1.688557704618     0.313886473578    -1.292679662169
    H           -2.500665287634     1.709031013395    -0.609436725936
    H           -1.991163082775     0.398806058362     0.436484461072

  Mulliken Charges: (a.u.)
   Center  Symbol    Alpha    Beta     Spin     Total
       1     H     0.26824  0.26824  0.00000  0.46351
       2     O     4.34645  4.34645  0.00000 -0.69289
       3     C     2.63647  2.63647  0.00000  0.72706
       4     C     3.20200  3.20200  0.00000 -0.40401
       5     O     4.27799  4.27799  0.00000 -0.55598
       6     C     3.15473  3.15473  0.00000 -0.30946
       7     H     0.39606  0.39606  0.00000  0.20788
       8     H     0.39994  0.39994  0.00000  0.20012
       9     C     3.25872  3.25872  0.00000 -0.51745
      10     H     0.41326  0.41326  0.00000  0.17348
      11     H     0.41086  0.41086  0.00000  0.17828
      12     H     0.41212  0.41212  0.00000  0.17575
      13     H     0.41438  0.41438  0.00000  0.17123
      14     H     0.40877  0.40877  0.00000  0.18247

   Total alpha = 24.00000, Total beta = 24.00000, Total charge =  0.00000
