                              Psi4 1.0.54 Driver

  ==> Input File <==

--------------------------------------------------------------------------
set {
	reference rhf
	basis cc-pvtz
}

set_num_threads( 4 )
memory 2 gb

molecule MOL {
0 1

H	 3.071408	 0.073316	 0.489996
O	 2.373776	 0.622014	 0.182923
C	 1.135873	 0.113391	 0.608264
C	 0.027642	 1.012027	 0.090274
H	 1.091441	 0.085385	 1.694086
H	 1.001327	 -0.904106	 0.251811
C	 -1.138737	 0.285728	 -0.581921
H	 0.464661	 1.708096	 -0.618252
H	 -0.340737	 1.603071	 0.925246
C	 -1.933983	 -0.631436	 0.343653
H	 -0.763151	 -0.285569	 -1.422081
H	 -1.808359	 1.035291	 -0.992333
H	 -2.789188	 -1.049673	 -0.174718
H	 -1.335629	 -1.461368	 0.700418
H	 -2.305435	 -0.092167	 1.209725

	symmetry c1
}
set optking {
	frozen_dihedral = ("
		2 3 4 8
	")
}

ee,wfn = optimize('scf', return_wfn=True)
oeprop( wfn, 'DIPOLE', 'QUADRUPOLE', 'MULLIKEN_CHARGES')
f=open( 'psi4out.xyz', 'w' )
f.write( "15  " )
f.write( str(ee) + "\n" )
f.write( MOL.save_string_xyz() )
f.close()
--------------------------------------------------------------------------

    Molecular point group: c1
  Charge       = 0
  Multiplicity = 1
  Basis Set: CC-PVTZ
  Basis Set:
  @DF-RHF Final Energy:  -232.23225134397185
    Total Energy =                       -232.2322513439717682
    Molecular point group: c1
  Basis Set: CC-PVTZ
  Basis Set:
  Basis Set: CC-PVTZ
  Basis Set:
  @DF-RHF Final Energy:  -232.23277786867803
    Total Energy =                       -232.2327778686778856
  Basis Set: CC-PVTZ
  Basis Set:
  Basis Set: CC-PVTZ
  Basis Set:
  @DF-RHF Final Energy:  -232.23279912320245
    Total Energy =                       -232.2327991232023123
  Basis Set: CC-PVTZ
  Basis Set:
  Basis Set: CC-PVTZ
  Basis Set:
  @DF-RHF Final Energy:  -232.23286700155518
    Total Energy =                       -232.2328670015552348
  Basis Set: CC-PVTZ
  Basis Set:
  Basis Set: CC-PVTZ
  Basis Set:
  @DF-RHF Final Energy:  -232.23287511712053
    Total Energy =                       -232.2328751171207273
  Basis Set: CC-PVTZ
  Basis Set:
  Charge       = 0
  Multiplicity = 1
  Basis Set: CC-PVTZ
  Basis Set:

    Orbital Energies (a.u.)
    -----------------------

    Doubly Occupied:

       1A    -20.545460     2A    -11.265695     3A    -11.215130
       4A    -11.209340     5A    -11.208834     6A     -1.362649
       7A     -1.069511     8A     -0.969864     9A     -0.870635
      10A     -0.784614    11A     -0.704049    12A     -0.648281
      13A     -0.606888    14A     -0.592385    15A     -0.557933
      16A     -0.537122    17A     -0.510908    18A     -0.476009
      19A     -0.472721    20A     -0.456200    21A     -0.432797

  @DF-RHF Final Energy:  -232.23287553652864

   => Energetics <=

    Nuclear Repulsion Energy =            188.3670776430874412
    One-Electron Energy =                -688.2058601003785725
    Two-Electron Energy =                 267.6059069207624361
    DFT Exchange-Correlation Energy =       0.0000000000000000
    Empirical Dispersion Energy =           0.0000000000000000
    PCM Polarization Energy =               0.0000000000000000
    EFP Energy =                            0.0000000000000000
    Total Energy =                       -232.2328755365286952
    Molecular point group: c1
  Basis Set: CC-PVTZ
  Basis Set:

  -Total Gradient:
     Atom            X                  Y                   Z
    ------   -----------------  -----------------  -----------------
       1       -0.000016990916    -0.000008702559    -0.000001834145
       2       -0.000133749698    -0.001207267207    -0.002011305976
       3        0.000268511826     0.001926040497     0.003083808672
       4       -0.000629499326    -0.002571149514    -0.003402231764
       5       -0.000003379663    -0.000005587979     0.000003604709
       6        0.000032341218     0.000003588265     0.000002915466
       7       -0.000010454974     0.000022661561     0.000008381986
       8        0.000491676999     0.001848056726     0.002310405135
       9       -0.000008516482    -0.000011678596     0.000000489326
      10        0.000016913170     0.000000930864    -0.000007249383
      11        0.000000212427    -0.000001511799     0.000012529638
      12        0.000004307388     0.000006788506    -0.000004706660
      13       -0.000008372887    -0.000012730259    -0.000019034849
      14        0.000017806765    -0.000008546674     0.000009602493
      15       -0.000020805842     0.000019108169     0.000014625351

  **** Optimization is complete! (in 6 steps) ****
    Final optimized geometry and variables:
    Molecular point group: c1

    Geometry (in Angstrom), charge = 0, multiplicity = 1:

    H            2.927936612526    -0.174395860010     0.380499436056
    O            2.224943879925     0.353197186763     0.048659322661
    C            0.990252500151    -0.186982015684     0.448440325925
    C           -0.129380889976     0.738339763739    -0.037353646921
    H            0.959255163644    -0.300979064567     1.527859882433
    H            0.869778708863    -1.176561374311     0.014403854090
    C           -1.290034211352     0.025292865620    -0.727204158227
    H            0.322261157638     1.459106364386    -0.707021070471
    H           -0.513804615702     1.314793676066     0.799169568540
    C           -2.098059695664    -0.879747969300     0.199677781095
    H           -0.907800731250    -0.556393843819    -1.561466292110
    H           -1.952343245844     0.771695839103    -1.153821139282
    H           -2.912891571790    -1.355613450249    -0.333636589602
    H           -1.486608892938    -1.666310709022     0.628705691102
    H           -2.526053627465    -0.311908952487     1.019475434998

  Mulliken Charges: (a.u.)
   Center  Symbol    Alpha    Beta     Spin     Total
       1     H     0.39563  0.39563  0.00000  0.20874
       2     O     4.19803  4.19803  0.00000 -0.39606
       3     C     2.96503  2.96503  0.00000  0.06995
       4     C     3.09419  3.09419  0.00000 -0.18839
       5     H     0.47138  0.47138  0.00000  0.05725
       6     H     0.47503  0.47503  0.00000  0.04994
       7     C     3.09692  3.09692  0.00000 -0.19384
       8     H     0.43993  0.43993  0.00000  0.12014
       9     H     0.45505  0.45505  0.00000  0.08991
      10     C     3.14868  3.14868  0.00000 -0.29737
      11     H     0.45279  0.45279  0.00000  0.09442
      12     H     0.44886  0.44886  0.00000  0.10228
      13     H     0.44749  0.44749  0.00000  0.10502
      14     H     0.45655  0.45655  0.00000  0.08689
      15     H     0.45444  0.45444  0.00000  0.09111

   Total alpha = 21.00000, Total beta = 21.00000, Total charge = -0.00000

*** Psi4 exiting successfully. Buy a developer a beer!
