  ==> Input File <==

--------------------------------------------------------------------------
set {
	reference rhf
	basis cc-pvtz
}

set_num_threads( 4 )
memory 2 gb

molecule MOL {
0 1

H	 1.109378	 -0.546771	 -0.402011
C	 0.848385	 0.440008	 0.000011
C	 -0.623497	 0.751021	 0.000090
O	 1.696016	 1.165549	 0.390339
C	 -1.523725	 -0.474323	 -0.000013
H	 -0.813143	 1.382932	 -0.864897
H	 -0.813071	 1.382716	 0.865253
H	 -1.342980	 -1.087348	 -0.873016
H	 -2.565269	 -0.177464	 0.000070
H	 -1.342898	 -1.087564	 0.872820

	symmetry c1
}
set optking {
	frozen_dihedral = ("
		4 2 3 6
	")
}

ee = optimize('scf')
oeprop('DIPOLE', 'QUADRUPOLE', 'MULLIKEN_CHARGES')
f=open( 'psi4out.xyz', 'w' )
f.write( "10  " )
f.write( str(ee) + "\n" )
f.write( MOL.save_string_xyz() )
f.close()
--------------------------------------------------------------------------

    Molecular point group: c1
  Charge       = 0
  Multiplicity = 1
  Basis Set: CC-PVTZ
  Basis Set:
  @DF-RHF Final Energy:  -192.02219294643220
    Total Energy =                       -192.0221929464322272
    Molecular point group: c1
  Basis Set: CC-PVTZ
  Basis Set:
  Basis Set: CC-PVTZ
  Basis Set:
  @DF-RHF Final Energy:  -192.02167484142035
    Total Energy =                       -192.0216748414204631
  Basis Set: CC-PVTZ
  Basis Set:
  Basis Set: CC-PVTZ
  Basis Set:
  @DF-RHF Final Energy:  -192.02234017055468
    Total Energy =                       -192.0223401705546848
  Basis Set: CC-PVTZ
  Basis Set:
  Charge       = 0
  Multiplicity = 1
  Basis Set: CC-PVTZ
  Basis Set:

    Orbital Energies (a.u.)
    -----------------------

    Doubly Occupied:

       1A    -20.552871     2A    -11.323627     3A    -11.238408
       4A    -11.230787     5A     -1.408598     6A     -1.067829
       7A     -0.903559     8A     -0.798113     9A     -0.666329
      10A     -0.643755    11A     -0.633269    12A     -0.557801
      13A     -0.546760    14A     -0.524733    15A     -0.493479
      16A     -0.415110

  @DF-RHF Final Energy:  -192.02246820470705

   => Energetics <=

    Nuclear Repulsion Energy =            117.1713652615063381
    One-Electron Energy =                -492.3776157204018773
    Two-Electron Energy =                 183.1837822541883725
    DFT Exchange-Correlation Energy =       0.0000000000000000
    Empirical Dispersion Energy =           0.0000000000000000
    PCM Polarization Energy =               0.0000000000000000
    EFP Energy =                            0.0000000000000000
    Total Energy =                       -192.0224682047071383
    Molecular point group: c1
  Basis Set: CC-PVTZ
  Basis Set:

  -Total Gradient:
     Atom            X                  Y                   Z
    ------   -----------------  -----------------  -----------------
       1        0.000134450329    -0.000072837110    -0.000014741409
       2       -0.000258939231    -0.000203637013     0.001556840673
       3       -0.000065558313    -0.000964618548    -0.001005758193
       4        0.000216748859     0.000339622168    -0.001014027993
       5       -0.000128261944     0.000088497998    -0.000004118923
       6        0.000178070442     0.000916208029     0.000506622599
       7       -0.000060580393    -0.000001023351    -0.000050608450
       8       -0.000016731877    -0.000003586131    -0.000019235539
       9        0.000012998386    -0.000067756629    -0.000004416173
      10       -0.000012196257    -0.000030869412     0.000049443408

  **** Optimization is complete! (in 4 steps) ****
    Final optimized geometry and variables:
    Molecular point group: c1

    Geometry (in Angstrom), charge = 0, multiplicity = 1:

    H            1.018979835593    -1.018930910260    -0.507109245618
    C            0.750496748142    -0.035915634694    -0.097606759854
    C           -0.723059911812     0.290686944997    -0.084478460713
    O            1.596472984092     0.701013168244     0.273163622998
    C           -1.620962961940    -0.940739869096    -0.098381450637
    H           -0.908492370778     0.907999021308    -0.959844213039
    H           -0.915148342682     0.917619342015     0.776989993772
    H           -1.435478399908    -1.554402750213    -0.973004094123
    H           -2.664357379662    -0.654167209489    -0.112609796499
    H           -1.458845551365    -1.555995074167     0.779741034092

  Mulliken Charges: (a.u.)
   Center  Symbol    Alpha    Beta     Spin     Total
       1     H     0.46493  0.46493  0.00000  0.07014
       2     C     2.90373  2.90373  0.00000  0.19254
       3     C     3.08222  3.08222  0.00000 -0.16445
       4     O     4.16452  4.16452  0.00000 -0.32904
       5     C     3.15322  3.15322  0.00000 -0.30644
       6     H     0.44450  0.44450  0.00000  0.11099
       7     H     0.43945  0.43945  0.00000  0.12109
       8     H     0.45346  0.45346  0.00000  0.09308
       9     H     0.44410  0.44410  0.00000  0.11181
      10     H     0.44986  0.44986  0.00000  0.10028

   Total alpha = 16.00000, Total beta = 16.00000, Total charge = -0.00000
