                              Psi4 1.0.54 Driver

  ==> Input File <==

--------------------------------------------------------------------------
set {
	reference rhf
	basis cc-pvtz
}

set_num_threads( 4 )
memory 2 gb

molecule MOL {
0 1

H	 -2.266619	 1.169943	 0.000098
O	 -1.438073	 1.611259	 0.000041
C	 -0.408657	 0.734701	 0.000005
C	 -0.720646	 -0.595027	 0.214239
C	 0.906255	 1.136391	 -0.204360
H	 -1.747073	 -0.864796	 0.367872
C	 0.279750	 -1.543714	 0.227189
C	 1.890896	 0.161877	 -0.186140
C	 1.245074	 2.587874	 -0.438027
H	 0.030033	 -2.574130	 0.394115
C	 1.594370	 -1.169602	 0.026577
H	 2.912127	 0.456181	 -0.342479
H	 0.953059	 3.210433	 0.403085
H	 2.309193	 2.713835	 -0.576682
H	 0.755273	 2.978288	 -1.325718
H	 2.377810	 -1.902073	 0.035318

	symmetry c1
}
set optking {
	frozen_dihedral = ("
		4 3 2 1
	")
}

ee,wfn = optimize('scf', return_wfn=True)
oeprop( wfn, 'DIPOLE', 'QUADRUPOLE', 'MULLIKEN_CHARGES')
f=open( 'psi4out.xyz', 'w' )
f.write( "16  " )
f.write( str(ee) + "\n" )
f.write( MOL.save_string_xyz() )
f.close()
--------------------------------------------------------------------------

    Molecular point group: c1
  Charge       = 0
  Multiplicity = 1
  Basis Set: CC-PVTZ
  Basis Set:
  @DF-RHF Final Energy:  -344.71785081389174
    Total Energy =                       -344.7178508138915731
    Molecular point group: c1
  Basis Set: CC-PVTZ
  Basis Set:
  Basis Set: CC-PVTZ
  Basis Set:
  @DF-RHF Final Energy:  -344.72002586387265
    Total Energy =                       -344.7200258638725927
  Basis Set: CC-PVTZ
  Basis Set:
  Basis Set: CC-PVTZ
  Basis Set:
  @DF-RHF Final Energy:  -344.72024755329949
    Total Energy =                       -344.7202475532994868
  Basis Set: CC-PVTZ
  Basis Set:
  Basis Set: CC-PVTZ
  Basis Set:
  @DF-RHF Final Energy:  -344.72026756499133
    Total Energy =                       -344.7202675649915591
  Basis Set: CC-PVTZ
  Basis Set:
  Basis Set: CC-PVTZ
  Basis Set:
  @DF-RHF Final Energy:  -344.72027248778454
    Total Energy =                       -344.7202724877848254
  Basis Set: CC-PVTZ
  Basis Set:
  Charge       = 0
  Multiplicity = 1
  Basis Set: CC-PVTZ
  Basis Set:

    Orbital Energies (a.u.)
    -----------------------

    Doubly Occupied:

       1A    -20.583093     2A    -11.291469     3A    -11.228930
       4A    -11.228756     5A    -11.225931     6A    -11.223621
       7A    -11.216778     8A    -11.212866     9A     -1.413215
      10A     -1.152864    11A     -1.047515    12A     -1.006248
      13A     -0.932001    14A     -0.848768    15A     -0.802498
      16A     -0.735831    17A     -0.675805    18A     -0.653730
      19A     -0.607522    20A     -0.601319    21A     -0.580654
      22A     -0.561078    23A     -0.551865    24A     -0.541857
      25A     -0.502355    26A     -0.483660    27A     -0.478114
      28A     -0.333821    29A     -0.308611

  @DF-RHF Final Energy:  -344.72027258442580

   => Energetics <=

    Nuclear Repulsion Energy =            351.0215020640483203
    One-Electron Energy =               -1163.4219915540645616
    Two-Electron Energy =                 467.6802169055905551
    DFT Exchange-Correlation Energy =       0.0000000000000000
    Empirical Dispersion Energy =           0.0000000000000000
    PCM Polarization Energy =               0.0000000000000000
    EFP Energy =                            0.0000000000000000
    Total Energy =                       -344.7202725844257429
    Molecular point group: c1
  Basis Set: CC-PVTZ
  Basis Set:

  -Total Gradient:
     Atom            X                  Y                   Z
    ------   -----------------  -----------------  -----------------
       1        0.000003650596    -0.000010708196    -0.000956696384
       2        0.000075638201     0.000037291638     0.001538111219
       3       -0.000174397970    -0.000107705090    -0.001232962548
       4        0.000093863649     0.000086228812     0.000691714231
       5        0.000003686548    -0.000015265419    -0.000028991658
       6       -0.000002648897    -0.000000491224    -0.000002545104
       7       -0.000017981958    -0.000004139463    -0.000009411360
       8       -0.000004065388    -0.000010249143    -0.000009608722
       9        0.000008549082     0.000005358244     0.000004497069
      10        0.000005612120     0.000001478854    -0.000000169529
      11        0.000018580811     0.000019369307     0.000003596746
      12       -0.000000725586     0.000004973452     0.000002793142
      13       -0.000001485727     0.000000315083    -0.000000647159
      14       -0.000003359859    -0.000000645150    -0.000000023508
      15       -0.000001422719     0.000001104431    -0.000001109497
      16       -0.000003492906    -0.000006916139     0.000001453063

  **** Optimization is complete! (in 6 steps) ****
    Final optimized geometry and variables:
    Molecular point group: c1

    Geometry (in Angstrom), charge = 0, multiplicity = 1:

    H           -2.600443166763     0.859233407002     0.039079488908
    O           -1.742228397644     1.242207066283     0.035318391508
    C           -0.787784438246     0.283079237367     0.046812035452
    C           -1.093567012424    -1.044404135236     0.265247879061
    C            0.527718359380     0.693392476349    -0.153428772520
    H           -2.115775031220    -1.336900902526     0.425784400047
    C           -0.087292699680    -1.994385147390     0.278820542839
    C            1.511747807946    -0.275036540202    -0.130741438893
    C            0.842225099287     2.148065946270    -0.383892423383
    H           -0.334287502334    -3.025186582631     0.446905076250
    C            1.220365110648    -1.613261945400     0.081292186961
    H            2.532399729595     0.022489384875    -0.284215838986
    H            0.528115474074     2.754243983751     0.457388684018
    H            1.904852200108     2.289483398213    -0.527965050341
    H            0.325240333667     2.525680794398    -1.257861066007
    H            2.008153039952    -2.341115739828     0.091418623739

  Mulliken Charges: (a.u.)
   Center  Symbol    Alpha    Beta     Spin     Total
       1     H     0.38987  0.38987  0.00000  0.22026
       2     O     4.17158  4.17158  0.00000 -0.34316
       3     C     2.86322  2.86322  0.00000  0.27356
       4     C     3.13292  3.13292  0.00000 -0.26583
       5     C     2.99658  2.99658  0.00000  0.00685
       6     H     0.43683  0.43683  0.00000  0.12633
       7     C     3.07198  3.07198  0.00000 -0.14395
       8     C     3.08212  3.08212  0.00000 -0.16424
       9     C     3.14391  3.14391  0.00000 -0.28782
      10     H     0.42262  0.42262  0.00000  0.15476
      11     C     3.09099  3.09099  0.00000 -0.18198
      12     H     0.42519  0.42519  0.00000  0.14962
      13     H     0.44624  0.44624  0.00000  0.10752
      14     H     0.45416  0.45416  0.00000  0.09168
      15     H     0.44686  0.44686  0.00000  0.10627
      16     H     0.42493  0.42493  0.00000  0.15014

   Total alpha = 29.00000, Total beta = 29.00000, Total charge = -0.00000

*** Psi4 exiting successfully. Buy a developer a beer!
