  ==> Input File <==

--------------------------------------------------------------------------
set {
	reference rhf
	basis 6-31G*
}

set_num_threads( 1 )
memory 2 gb

molecule MOL {
0 1

H	 2.149124	 -1.070450	 0.118839
C	 1.913450	 -0.116906	 -0.369027
C	 0.692068	 0.589600	 0.160137
O	 2.601814	 0.289786	 -1.248166
C	 -0.558097	 -0.297372	 0.091132
H	 0.558495	 1.505602	 -0.403403
H	 0.887141	 0.857751	 1.197862
C	 -1.850991	 0.512573	 -0.019058
H	 -0.476753	 -0.965681	 -0.762987
H	 -0.604799	 -0.930658	 0.975228
C	 -3.096943	 -0.368295	 -0.099594
H	 -1.800724	 1.150330	 -0.898172
H	 -1.931651	 1.177355	 0.838044
H	 -3.060452	 -1.020287	 -0.967456
H	 -3.996858	 0.233488	 -0.175704
H	 -3.191959	 -0.995686	 0.782074

	symmetry c1
}
set optking {
	frozen_dihedral = ("
		9 5 8 12,
		4 2 3 6
	")
}

ee = energy('scf')
oeprop('DIPOLE', 'QUADRUPOLE', 'MULLIKEN_CHARGES')
f=open( 'psi4out.xyz', 'w' )
f.write( "16  " )
f.write( str(ee) + "\n" )
f.write( MOL.save_string_xyz() )
f.close()
--------------------------------------------------------------------------

    Molecular point group: c1

    Geometry (in Angstrom), charge = 0, multiplicity = 1:

       Center              X                  Y                   Z               Mass
    ------------   -----------------  -----------------  -----------------  -----------------
           H          2.204292647473    -1.168176284786     0.375497300536     1.007825032070
           C          1.968618647473    -0.214632284786    -0.112368699464    12.000000000000
           C          0.747236647473     0.491873715214     0.416795300536    12.000000000000
           O          2.656982647473     0.192059715214    -0.991507699464    15.994914619560
           C         -0.502928352527    -0.395098284786     0.347790300536    12.000000000000
           H          0.613663647473     1.407875715214    -0.146744699464     1.007825032070
           H          0.942309647473     0.760024715214     1.454520300536     1.007825032070
           C         -1.795822352527     0.414846715214     0.237600300536    12.000000000000
           H         -0.421584352527    -1.063407284786    -0.506328699464     1.007825032070
           H         -0.549630352527    -1.028384284786     1.231886300536     1.007825032070
           C         -3.041774352527    -0.466021284786     0.157064300536    12.000000000000
           H         -1.745555352527     1.052603715214    -0.641513699464     1.007825032070
           H         -1.876482352527     1.079628715214     1.094702300536     1.007825032070
           H         -3.005283352527    -1.118013284786    -0.710797699464     1.007825032070
           H         -3.941689352527     0.135761715214     0.080954300536     1.007825032070
           H         -3.136790352527    -1.093412284786     1.038732300536     1.007825032070

  Charge       = 0
  Multiplicity = 1
  Basis Set: 6-31G*
  Basis Set:

    Orbital Energies (a.u.)
    -----------------------

    Doubly Occupied:

       1A    -20.562187     2A    -11.326547     3A    -11.236266
       4A    -11.234470     5A    -11.229070     6A    -11.217903
       7A     -1.402093     8A     -1.096288     9A     -1.018525
      10A     -0.905647    11A     -0.811987    12A     -0.793418
      13A     -0.678126    14A     -0.646738    15A     -0.629172
      16A     -0.602211    17A     -0.586907    18A     -0.543658
      19A     -0.525453    20A     -0.516134    21A     -0.485880
      22A     -0.482790    23A     -0.474273    24A     -0.408964

  @DF-RHF Final Energy:  -270.01742610469034

   => Energetics <=

    Nuclear Repulsion Energy =            229.3276280327122549
    One-Electron Energy =                -819.8606632680659914
    Two-Electron Energy =                 320.5156091306632788
    DFT Exchange-Correlation Energy =       0.0000000000000000
    Empirical Dispersion Energy =           0.0000000000000000
    PCM Polarization Energy =               0.0000000000000000
    EFP Energy =                            0.0000000000000000
    Total Energy =                       -270.0174261046904576

  Mulliken Charges: (a.u.)
   Center  Symbol    Alpha    Beta     Spin     Total
       1     H     0.43203  0.43203  0.00000  0.13594
       2     C     2.83108  2.83108  0.00000  0.33783
       3     C     3.20851  3.20851  0.00000 -0.41703
       4     O     4.23759  4.23759  0.00000 -0.47518
       5     C     3.16453  3.16453  0.00000 -0.32906
       6     H     0.39908  0.39908  0.00000  0.20183
       7     H     0.40824  0.40824  0.00000  0.18353
       8     C     3.15251  3.15251  0.00000 -0.30503
       9     H     0.41481  0.41481  0.00000  0.17038
      10     H     0.41718  0.41718  0.00000  0.16564
      11     C     3.24080  3.24080  0.00000 -0.48159
      12     H     0.41719  0.41719  0.00000  0.16562
      13     H     0.42009  0.42009  0.00000  0.15982
      14     H     0.41932  0.41932  0.00000  0.16136
      15     H     0.41631  0.41631  0.00000  0.16738
      16     H     0.42072  0.42072  0.00000  0.15855

   Total alpha = 24.00000, Total beta = 24.00000, Total charge = -0.00000
