  ==> Input File <==

--------------------------------------------------------------------------
set {
	reference rhf
	basis 6-31G*
}

set_num_threads( 4 )
memory 2 gb

molecule MOL {
0 1

H	 2.710944	 -0.061290	 -0.457088
C	 1.951159	 -0.223429	 0.317018
C	 0.692068	 0.589600	 0.160137
O	 2.151700	 -0.995852	 1.197515
C	 -0.558097	 -0.297372	 0.091132
H	 0.791645	 1.202255	 -0.728243
H	 0.616171	 1.253469	 1.020572
C	 -1.850991	 0.512573	 -0.019058
H	 -0.476753	 -0.965681	 -0.762987
H	 -0.604799	 -0.930658	 0.975228
C	 -3.096943	 -0.368295	 -0.099594
H	 -1.800724	 1.150330	 -0.898172
H	 -1.931651	 1.177355	 0.838044
H	 -3.060452	 -1.020287	 -0.967456
H	 -3.996858	 0.233488	 -0.175704
H	 -3.191959	 -0.995686	 0.782074

	symmetry c1
}
set optking {
	frozen_dihedral = ("
		4 2 3 6
	")
}

ee = optimize('scf')
oeprop('DIPOLE', 'QUADRUPOLE', 'MULLIKEN_CHARGES')
f=open( 'psi4out.xyz', 'w' )
f.write( "16  " )
f.write( str(ee) + "\n" )
f.write( MOL.save_string_xyz() )
f.close()
--------------------------------------------------------------------------

    Molecular point group: c1
  Charge       = 0
  Multiplicity = 1
  Basis Set: 6-31G*
  Basis Set:
  @DF-RHF Final Energy:  -270.01828496047540
    Total Energy =                       -270.0182849604753983
    Molecular point group: c1
  Basis Set: 6-31G*
  Basis Set:
  Basis Set: 6-31G*
  Basis Set:
  @DF-RHF Final Energy:  -270.01856403172337
    Total Energy =                       -270.0185640317234856
  Basis Set: 6-31G*
  Basis Set:
  Basis Set: 6-31G*
  Basis Set:
  @DF-RHF Final Energy:  -270.01841828038118
    Total Energy =                       -270.0184182803811836
  Basis Set: 6-31G*
  Basis Set:
  Basis Set: 6-31G*
  Basis Set:
  @DF-RHF Final Energy:  -270.01858211719036
    Total Energy =                       -270.0185821171903626
  Basis Set: 6-31G*
  Basis Set:
  Basis Set: 6-31G*
  Basis Set:
  @DF-RHF Final Energy:  -270.01854982897675
    Total Energy =                       -270.0185498289766883
  Basis Set: 6-31G*
  Basis Set:
  Basis Set: 6-31G*
  Basis Set:
  @DF-RHF Final Energy:  -270.01858915069238
    Total Energy =                       -270.0185891506922644
  Basis Set: 6-31G*
  Basis Set:
  Charge       = 0
  Multiplicity = 1
  Basis Set: 6-31G*
  Basis Set:

    Orbital Energies (a.u.)
    -----------------------

    Doubly Occupied:

       1A    -20.562740     2A    -11.327753     3A    -11.235295
       4A    -11.228773     5A    -11.224678     6A    -11.214449
       7A     -1.403137     8A     -1.090311     9A     -1.014528
      10A     -0.906010    11A     -0.813175    12A     -0.780586
      13A     -0.681092    14A     -0.646499    15A     -0.627856
      16A     -0.600140    17A     -0.579461    18A     -0.546402
      19A     -0.526669    20A     -0.504098    21A     -0.482249
      22A     -0.478743    23A     -0.472941    24A     -0.408732

  @DF-RHF Final Energy:  -270.01858934635698

   => Energetics <=

    Nuclear Repulsion Energy =            231.0737920888014116
    One-Electron Energy =                -823.4721228639311903
    Two-Electron Energy =                 322.3797414287723768
    DFT Exchange-Correlation Energy =       0.0000000000000000
    Empirical Dispersion Energy =           0.0000000000000000
    PCM Polarization Energy =               0.0000000000000000
    EFP Energy =                            0.0000000000000000
    Total Energy =                       -270.0185893463574303
    Molecular point group: c1
  Basis Set: 6-31G*
  Basis Set:

  -Total Gradient:
     Atom            X                  Y                   Z
    ------   -----------------  -----------------  -----------------
       1       -0.000040177423    -0.000011745853     0.000040005816
       2       -0.000338457401    -0.000712755926    -0.000512429762
       3       -0.000214057032    -0.000421772556    -0.000337250142
       4        0.000331489633     0.000577715091     0.000409289065
       5        0.000007484194     0.000007418882    -0.000032387725
       6        0.000273990725     0.000531615334     0.000423989295
       7       -0.000020801243     0.000004080058    -0.000012092584
       8       -0.000021860693     0.000013163197     0.000025261493
       9       -0.000009793957    -0.000012889692     0.000009689966
      10        0.000042559777     0.000014276445    -0.000004741708
      11        0.000003509598     0.000005163028    -0.000027489055
      12       -0.000005343547     0.000011945618     0.000013504593
      13       -0.000012851348    -0.000006984862     0.000009053330
      14        0.000000466641    -0.000009765436     0.000002669592
      15        0.000003732499    -0.000000907024    -0.000009604173
      16        0.000000109573     0.000011443697     0.000002531999

  **** Optimization is complete! (in 7 steps) ****
    Final optimized geometry and variables:
    Molecular point group: c1

    Geometry (in Angstrom), charge = 0, multiplicity = 1:

    H            2.878925532448     0.071259390598    -0.704825381050
    C            2.089663908484    -0.081117661763     0.038710719700
    C            0.822925456894     0.728534628634    -0.135625460627
    O            2.256290525152    -0.846504672086     0.933098170864
    C           -0.427926169580    -0.156686091922    -0.203172794669
    H            0.906420220472     1.352717267455    -1.020268004882
    H            0.750517042355     1.395566991806     0.720468353530
    C           -1.719814489478     0.655609291982    -0.299753958043
    H           -0.354170423865    -0.821752509623    -1.061160920543
    H           -0.451078702837    -0.788875780632     0.677983481092
    C           -2.966077826989    -0.225384685059    -0.376196693633
    H           -1.678928784591     1.300539777744    -1.174961063667
    H           -1.795095879552     1.314265140284     0.562647230256
    H           -2.936064248293    -0.872772473284    -1.247907810066
    H           -3.867222272682     0.376018625705    -0.441689356614
    H           -3.052612433925    -0.857982138711     0.502287852278

  Mulliken Charges: (a.u.)
   Center  Symbol    Alpha    Beta     Spin     Total
       1     H     0.42616  0.42616  0.00000  0.14769
       2     C     2.84388  2.84388  0.00000  0.31223
       3     C     3.20293  3.20293  0.00000 -0.40586
       4     O     4.23681  4.23681  0.00000 -0.47361
       5     C     3.15660  3.15660  0.00000 -0.31320
       6     H     0.41598  0.41598  0.00000  0.16804
       7     H     0.40117  0.40117  0.00000  0.19766
       8     C     3.15294  3.15294  0.00000 -0.30589
       9     H     0.41920  0.41920  0.00000  0.16160
      10     H     0.40400  0.40400  0.00000  0.19201
      11     C     3.24021  3.24021  0.00000 -0.48041
      12     H     0.42251  0.42251  0.00000  0.15499
      13     H     0.42054  0.42054  0.00000  0.15892
      14     H     0.42062  0.42062  0.00000  0.15875
      15     H     0.41771  0.41771  0.00000  0.16457
      16     H     0.41874  0.41874  0.00000  0.16251

   Total alpha = 24.00000, Total beta = 24.00000, Total charge = -0.00000
