  ==> Input File <==

--------------------------------------------------------------------------
set {
	reference rhf
	basis 6-31G*
}

set_num_threads( 4 )
memory 2 gb

molecule MOL {
0 1

O	 2.948497	 1.215988	 -0.553844
C	 2.843464	 0.164689	 -0.000222
C	 1.546494	 -0.624492	 -0.000609
C	 4.008208	 -0.454541	 0.744816
C	 0.291004	 0.242674	 0.000989
H	 1.557904	 -1.283758	 -0.867573
H	 1.558622	 -1.285963	 0.864672
C	 -0.994322	 -0.586602	 0.000262
H	 0.309117	 0.896430	 -0.865270
H	 0.309661	 0.894078	 0.869017
C	 -2.259874	 0.272531	 0.000494
H	 -1.004862	 -1.240012	 -0.870939
H	 -1.005220	 -1.241071	 0.870675
C	 -3.549786	 -0.549746	 -0.000374
H	 -2.250389	 0.926680	 -0.869574
H	 -2.250838	 0.925513	 0.871430
C	 -4.809590	 0.315458	 -0.000369
H	 -3.560515	 -1.202009	 -0.871156
H	 -3.561123	 -1.202955	 0.869711
H	 -4.844746	 0.956611	 -0.876632
H	 -5.706986	 -0.295590	 -0.001609
H	 -4.845960	 0.954827	 0.877144
H	 4.249896	 -1.428123	 0.328471
H	 4.871535	 0.192440	 0.674699
H	 3.752262	 -0.605449	 1.789494

	symmetry c1
}
set optking {
	frozen_dihedral = ("
		1 2 3 6
	")
}

ee = optimize('scf')
oeprop('DIPOLE', 'QUADRUPOLE', 'MULLIKEN_CHARGES')
f=open( 'psi4out.xyz', 'w' )
f.write( "25  " )
f.write( str(ee) + "\n" )
f.write( MOL.save_string_xyz() )
f.close()
--------------------------------------------------------------------------

    Molecular point group: c1
  Charge       = 0
  Multiplicity = 1
  Basis Set: 6-31G*
  Basis Set:
  @DF-RHF Final Energy:  -387.13522151382375
    Total Energy =                       -387.1352215138243764
    Molecular point group: c1
  Basis Set: 6-31G*
  Basis Set:
  Basis Set: 6-31G*
  Basis Set:
  @DF-RHF Final Energy:  -387.13448675311372
    Total Energy =                       -387.1344867531134923
  Basis Set: 6-31G*
  Basis Set:
  Basis Set: 6-31G*
  Basis Set:
  @DF-RHF Final Energy:  -387.13530984685036
    Total Energy =                       -387.1353098468498501
  Basis Set: 6-31G*
  Basis Set:
  Basis Set: 6-31G*
  Basis Set:
  @DF-RHF Final Energy:  -387.13571114146214
    Total Energy =                       -387.1357111414623660
  Basis Set: 6-31G*
  Basis Set:
  Basis Set: 6-31G*
  Basis Set:
  @DF-RHF Final Energy:  -387.13572116883398
    Total Energy =                       -387.1357211688336974
  Basis Set: 6-31G*
  Basis Set:
  Basis Set: 6-31G*
  Basis Set:
  @DF-RHF Final Energy:  -387.13572544093574
    Total Energy =                       -387.1357254409354027
  Basis Set: 6-31G*
  Basis Set:
  Charge       = 0
  Multiplicity = 1
  Basis Set: 6-31G*
  Basis Set:

    Orbital Energies (a.u.)
    -----------------------

    Doubly Occupied:

       1A    -20.549078     2A    -11.326204     3A    -11.231329
       4A    -11.228570     5A    -11.219015     6A    -11.217547
       7A    -11.215848     8A    -11.214225     9A    -11.208702
      10A     -1.394920    11A     -1.094209    12A     -1.056385
      13A     -1.014514    14A     -0.969637    15A     -0.891034
      16A     -0.814493    17A     -0.791502    18A     -0.730231
      19A     -0.663156    20A     -0.650069    21A     -0.633818
      22A     -0.619633    23A     -0.597489    24A     -0.584666
      25A     -0.567330    26A     -0.560742    27A     -0.540267
      28A     -0.529084    29A     -0.512517    30A     -0.491149
      31A     -0.486888    32A     -0.473392    33A     -0.464295
      34A     -0.463187    35A     -0.450771    36A     -0.397740

  @DF-RHF Final Energy:  -387.13572544819118

   => Energetics <=

    Nuclear Repulsion Energy =            438.2977776019300222
    One-Electron Energy =               -1393.1597319715133381
    Two-Electron Energy =                 567.7262289213913391
    DFT Exchange-Correlation Energy =       0.0000000000000000
    Empirical Dispersion Energy =           0.0000000000000000
    PCM Polarization Energy =               0.0000000000000000
    EFP Energy =                            0.0000000000000000
    Total Energy =                       -387.1357254481920336
    Molecular point group: c1
  Basis Set: 6-31G*
  Basis Set:

  -Total Gradient:
     Atom            X                  Y                   Z
    ------   -----------------  -----------------  -----------------
       1        0.000357996873    -0.000650258664    -0.001217821543
       2       -0.000623943495     0.001133545270     0.001565857463
       3        0.000914442562    -0.001476806941     0.000373335871
       4       -0.000002536998     0.000008426991    -0.000013438165
       5       -0.000014836517     0.000002588245    -0.000025726057
       6       -0.000639860414     0.000990795652    -0.000727198147
       7        0.000000778583     0.000005165958    -0.000004689860
       8       -0.000000785741     0.000000398108     0.000013748508
       9        0.000005153153     0.000010548627    -0.000000421018
      10       -0.000004178758    -0.000011378557    -0.000000004695
      11       -0.000000517562     0.000001345490    -0.000001992697
      12        0.000004908757    -0.000002359491     0.000005787113
      13       -0.000005372762     0.000002484142     0.000007821528
      14        0.000002465705    -0.000003010981     0.000009494061
      15        0.000001425016     0.000012115945     0.000005055449
      16       -0.000000569209    -0.000011649236     0.000006123011
      17        0.000003776530     0.000002585892    -0.000020684143
      18       -0.000000569309    -0.000007244441     0.000004645700
      19        0.000001014849     0.000006158978     0.000005414613
      20       -0.000001168011     0.000007356663     0.000002248291
      21        0.000001989151    -0.000000837601    -0.000007240273
      22        0.000000348856    -0.000006628704     0.000002399277
      23       -0.000000879932    -0.000001820628     0.000002358426
      24        0.000001200621    -0.000008411967     0.000006326514
      25       -0.000000281948    -0.000003108748     0.000008600774

  **** Optimization is complete! (in 7 steps) ****
    Final optimized geometry and variables:
    Molecular point group: c1

    Geometry (in Angstrom), charge = 0, multiplicity = 1:

    O            2.908356028819     1.220534085476    -0.555121127480
    C            2.843701305100     0.164428396737    -0.003964936854
    C            1.552635250239    -0.636558941906     0.038749746283
    C            4.055102931853    -0.461523502425     0.651477292710
    C            0.294557757926     0.232150015225     0.023144250054
    H            1.562866861373    -1.277914015762    -0.842587348036
    H            1.558058908299    -1.299796268676     0.899484401540
    C           -0.991123282897    -0.595626321509    -0.006248780635
    H            0.333944143491     0.890258582829    -0.837123168133
    H            0.293501093736     0.875561106409     0.899826642988
    C           -2.255717620092     0.264859693741    -0.018788415313
    H           -0.985907421667    -1.238639510973    -0.885053837719
    H           -1.017466108759    -1.259823434361     0.856342809929
    C           -3.545902179261    -0.556134866307    -0.056659508660
    H           -2.228314778622     0.931018455747    -0.879193057837
    H           -2.263818620924     0.905514798689     0.861408843821
    C           -4.804773348927     0.310284221574    -0.071180116420
    H           -3.539181663753    -1.196820437792    -0.935975600560
    H           -3.575484758253    -1.220694040046     0.804362077350
    H           -4.821058075349     0.963396251254    -0.939088809684
    H           -5.702313298408    -0.299840387577    -0.099666362453
    H           -4.859183237212     0.937558093490     0.814121344427
    H            4.191356254647    -1.483323007578     0.309248156680
    H            4.938202100693     0.121357360950     0.429770313395
    H            3.909628318073    -0.500203788813     1.727796943878

  Mulliken Charges: (a.u.)
   Center  Symbol    Alpha    Beta     Spin     Total
       1     O     4.26297  4.26297  0.00000 -0.52595
       2     C     2.73379  2.73379  0.00000  0.53243
       3     C     3.20994  3.20994  0.00000 -0.41988
       4     C     3.28790  3.28790  0.00000 -0.57580
       5     C     3.15211  3.15211  0.00000 -0.30423
       6     H     0.40465  0.40465  0.00000  0.19071
       7     H     0.41404  0.41404  0.00000  0.17191
       8     C     3.15346  3.15346  0.00000 -0.30692
       9     H     0.40426  0.40426  0.00000  0.19147
      10     H     0.41889  0.41889  0.00000  0.16222
      11     C     3.15095  3.15095  0.00000 -0.30190
      12     H     0.42368  0.42368  0.00000  0.15264
      13     H     0.42495  0.42495  0.00000  0.15010
      14     C     3.15158  3.15158  0.00000 -0.30316
      15     H     0.42172  0.42172  0.00000  0.15656
      16     H     0.42319  0.42319  0.00000  0.15361
      17     C     3.23937  3.23937  0.00000 -0.47873
      18     H     0.42313  0.42313  0.00000  0.15374
      19     H     0.42362  0.42362  0.00000  0.15275
      20     H     0.42112  0.42112  0.00000  0.15775
      21     H     0.41941  0.41941  0.00000  0.16118
      22     H     0.42160  0.42160  0.00000  0.15680
      23     H     0.40959  0.40959  0.00000  0.18082
      24     H     0.39703  0.39703  0.00000  0.20593
      25     H     0.40704  0.40704  0.00000  0.18591

   Total alpha = 36.00000, Total beta = 36.00000, Total charge =  0.00000
