                              Psi4 1.0.54 Driver

  ==> Input File <==

--------------------------------------------------------------------------
set {
	reference rhf
	basis cc-pvtz
}

set_num_threads( 4 )
memory 2 gb

molecule MOL {
0 1

H	 -3.780617	 -0.293352	 1.656854
C	 -2.767571	 -0.168911	 1.324548
C	 -2.317088	 1.080210	 0.936730
C	 -1.916938	 -1.257430	 1.285413
H	 -2.977906	 1.924651	 0.967370
C	 -1.015191	 1.239330	 0.509836
H	 -2.267259	 -2.225711	 1.586377
C	 -0.613055	 -1.099711	 0.858197
H	 -0.649947	 2.199205	 0.206034
C	 -0.158426	 0.150216	 0.468960
H	 0.048286	 -1.940642	 0.826692
C	 1.238974	 0.374429	 0.000004
O	 1.968286	 -0.725612	 -0.000027
O	 1.659262	 1.429493	 -0.339668
C	 3.373556	 -0.568203	 0.000011
H	 3.695416	 -0.031588	 -0.879663
H	 3.782700	 -1.565294	 -0.000152
H	 3.695405	 -0.031851	 0.879862

	symmetry c1
}
set optking {
	frozen_dihedral = ("
		10 12 13 15
	")
}

ee,wfn = optimize('scf', return_wfn=True)
oeprop( wfn, 'DIPOLE', 'QUADRUPOLE', 'MULLIKEN_CHARGES')
f=open( 'psi4out.xyz', 'w' )
f.write( "18  " )
f.write( str(ee) + "\n" )
f.write( MOL.save_string_xyz() )
f.close()
--------------------------------------------------------------------------

    Molecular point group: c1
  Charge       = 0
  Multiplicity = 1
  Basis Set: CC-PVTZ
  Basis Set:
  @DF-RHF Final Energy:  -457.50793760670996
    Total Energy =                       -457.5079376067097883
    Molecular point group: c1
  Basis Set: CC-PVTZ
  Basis Set:
  Basis Set: CC-PVTZ
  Basis Set:
  @DF-RHF Final Energy:  -457.50525079946226
    Total Energy =                       -457.5052507994624875
  Basis Set: CC-PVTZ
  Basis Set:
  Basis Set: CC-PVTZ
  Basis Set:
  @DF-RHF Final Energy:  -457.50809374766396
    Total Energy =                       -457.5080937476639065
  Basis Set: CC-PVTZ
  Basis Set:
  Basis Set: CC-PVTZ
  Basis Set:
  @DF-RHF Final Energy:  -457.50814980511836
    Total Energy =                       -457.5081498051176823
  Basis Set: CC-PVTZ
  Basis Set:
  Basis Set: CC-PVTZ
  Basis Set:
  @DF-RHF Final Energy:  -457.50815507732722
    Total Energy =                       -457.5081550773271601
  Basis Set: CC-PVTZ
  Basis Set:
  Charge       = 0
  Multiplicity = 1
  Basis Set: CC-PVTZ
  Basis Set:

    Orbital Energies (a.u.)
    -----------------------

    Doubly Occupied:

       1A    -20.598706     2A    -20.535358     3A    -11.372024
       4A    -11.281977     5A    -11.245256     6A    -11.243921
       7A    -11.243061     8A    -11.240425     9A    -11.236368
      10A    -11.235632    11A     -1.475553    12A     -1.368521
      13A     -1.171063    14A     -1.051575    15A     -1.029390
      16A     -0.979999    17A     -0.864077    18A     -0.838858
      19A     -0.781112    20A     -0.744766    21A     -0.687829
      22A     -0.680657    23A     -0.675962    24A     -0.634540
      25A     -0.630398    26A     -0.601793    27A     -0.590058
      28A     -0.563378    29A     -0.532115    30A     -0.520436
      31A     -0.509272    32A     -0.502524    33A     -0.463808
      34A     -0.449048    35A     -0.350565    36A     -0.346578

  @DF-RHF Final Energy:  -457.50815527754787

   => Energetics <=

    Nuclear Repulsion Energy =            494.1310163811680241
    One-Electron Energy =               -1602.7251347862361399
    Two-Electron Energy =                 651.0859631275202446
    DFT Exchange-Correlation Energy =       0.0000000000000000
    Empirical Dispersion Energy =           0.0000000000000000
    PCM Polarization Energy =               0.0000000000000000
    EFP Energy =                            0.0000000000000000
    Total Energy =                       -457.5081552775477576
    Molecular point group: c1
  Basis Set: CC-PVTZ
  Basis Set:

  -Total Gradient:
     Atom            X                  Y                   Z
    ------   -----------------  -----------------  -----------------
       1       -0.000001410209    -0.000000373575     0.000000468791
       2       -0.000006103661     0.000035436314    -0.000004529922
       3       -0.000022631538    -0.000014386390     0.000007396091
       4        0.000038780791    -0.000015316020    -0.000007491651
       5        0.000000639593     0.000004389366     0.000000635390
       6        0.000026028191    -0.000011353853     0.000002482735
       7        0.000000590050    -0.000000504610    -0.000002755940
       8       -0.000024795703    -0.000012833611     0.000005031601
       9       -0.000001270679     0.000005648132    -0.000003720699
      10        0.001223270394     0.000743014432     0.004166284575
      11        0.000010850946    -0.000006424572     0.000001005994
      12       -0.001767144847    -0.001163939048    -0.003559116246
      13        0.000567865943     0.000431252244    -0.005366038787
      14       -0.000031343288     0.000134813568    -0.000085670640
      15       -0.000052586267    -0.000118817258     0.004840552758
      16        0.000016331962     0.000016561601    -0.000033845114
      17        0.000008705087    -0.000048486492     0.000005421102
      18        0.000014223230     0.000021319776     0.000033889962

  **** Optimization is complete! (in 6 steps) ****
    Final optimized geometry and variables:
    Molecular point group: c1

    Geometry (in Angstrom), charge = 0, multiplicity = 1:

    H           -3.854586020711    -0.345640699546     1.168639801294
    C           -2.841507625054    -0.219947623533     0.836779193459
    C           -2.390740341550     1.031254273209     0.454938387558
    C           -1.991275986366    -1.308340971935     0.792161554916
    H           -3.051544571466     1.875621345423     0.489539900611
    C           -1.089065438465     1.192157913425     0.028825161062
    H           -2.341750591174    -2.278162131095     1.088032083539
    C           -0.686947337924    -1.148650152712     0.366101005343
    H           -0.723597444260     2.153687298173    -0.269674008025
    C           -0.231594524288     0.103251437667    -0.015151831189
    H           -0.025677402155    -1.989491099803     0.330391815614
    C            1.170789404802     0.331695404968    -0.467540462633
    O            1.898113567063    -0.772081312824    -0.491455633288
    O            1.609220880247     1.399210252404    -0.736187778439
    C            3.303913744976    -0.618543054037    -0.477090416707
    H            3.649430704699    -0.142807697432    -1.382203989272
    H            3.710365547954    -1.614005426157    -0.401685004334
    H            3.607391467507    -0.026081248960     0.373809456217

  Mulliken Charges: (a.u.)
   Center  Symbol    Alpha    Beta     Spin     Total
       1     H     0.42023  0.42023  0.00000  0.15954
       2     C     3.06944  3.06944  0.00000 -0.13887
       3     C     3.07566  3.07566  0.00000 -0.15131
       4     C     3.07532  3.07532  0.00000 -0.15063
       5     H     0.42040  0.42040  0.00000  0.15919
       6     C     3.07604  3.07604  0.00000 -0.15207
       7     H     0.42180  0.42180  0.00000  0.15640
       8     C     3.08355  3.08355  0.00000 -0.16710
       9     H     0.40670  0.40670  0.00000  0.18659
      10     C     3.01182  3.01182  0.00000 -0.02365
      11     H     0.41088  0.41088  0.00000  0.17824
      12     C     2.78236  2.78236  0.00000  0.43529
      13     O     4.15093  4.15093  0.00000 -0.30187
      14     O     4.20801  4.20801  0.00000 -0.41603
      15     C     3.03652  3.03652  0.00000 -0.07304
      16     H     0.44847  0.44847  0.00000  0.10306
      17     H     0.44543  0.44543  0.00000  0.10914
      18     H     0.45644  0.45644  0.00000  0.08712

   Total alpha = 36.00000, Total beta = 36.00000, Total charge = -0.00000

*** Psi4 exiting successfully. Buy a developer a beer!
