                              Psi4 1.0.54 Driver

  ==> Input File <==

--------------------------------------------------------------------------
set {
	reference rhf
	basis cc-pvtz
}

set_num_threads( 4 )
memory 2 gb

molecule MOL {
0 1

H	 -1.522468	 0.687575	 -2.228673
C	 -1.138848	 0.367045	 -1.283140
C	 -1.926483	 0.430001	 -0.089481
C	 0.104147	 -0.109592	 -1.179149
H	 -2.930203	 0.808452	 -0.139262
C	 -1.422559	 0.022809	 1.079635
H	 0.754434	 -0.187504	 -2.027793
N	 0.640204	 -0.530428	 -0.000115
H	 -1.982174	 0.055401	 1.991627
C	 -0.066978	 -0.496438	 1.189241
C	 2.006991	 -1.033007	 -0.000020
O	 0.420849	 -0.871627	 2.220503
H	 2.182444	 -1.636914	 -0.880881
H	 2.678769	 -0.195442	 -0.002236
H	 2.183828	 -1.633244	 0.883082

	symmetry c1
}
set optking {
	frozen_dihedral = ("
		10 8 11 13
	")
}

ee,wfn = optimize('scf', return_wfn=True)
oeprop( wfn, 'DIPOLE', 'QUADRUPOLE', 'MULLIKEN_CHARGES')
f=open( 'psi4out.xyz', 'w' )
f.write( "15  " )
f.write( str(ee) + "\n" )
f.write( MOL.save_string_xyz() )
f.close()
--------------------------------------------------------------------------

    Molecular point group: c1
  Charge       = 0
  Multiplicity = 1
  Basis Set: CC-PVTZ
  Basis Set:
  @DF-RHF Final Energy:  -360.72231165297364
    Total Energy =                       -360.7223116529735307
    Molecular point group: c1
  Basis Set: CC-PVTZ
  Basis Set:
  Basis Set: CC-PVTZ
  Basis Set:
  @DF-RHF Final Energy:  -360.72268484523255
    Total Energy =                       -360.7226848452320951
  Basis Set: CC-PVTZ
  Basis Set:
  Basis Set: CC-PVTZ
  Basis Set:
  @DF-RHF Final Energy:  -360.72269941049035
    Total Energy =                       -360.7226994104901223
  Basis Set: CC-PVTZ
  Basis Set:
  Basis Set: CC-PVTZ
  Basis Set:
  @DF-RHF Final Energy:  -360.72273890360390
    Total Energy =                       -360.7227389036034992
  Basis Set: CC-PVTZ
  Basis Set:
  Basis Set: CC-PVTZ
  Basis Set:
  @DF-RHF Final Energy:  -360.72274105237415
    Total Energy =                       -360.7227410523739763
  Basis Set: CC-PVTZ
  Basis Set:
  Charge       = 0
  Multiplicity = 1
  Basis Set: CC-PVTZ
  Basis Set:

    Orbital Energies (a.u.)
    -----------------------

    Doubly Occupied:

       1A    -20.501823     2A    -15.616774     3A    -11.339161
       4A    -11.293460     5A    -11.264020     6A    -11.258176
       7A    -11.230404     8A    -11.228229     9A     -1.390686
      10A     -1.285783    11A     -1.118793    12A     -1.028930
      13A     -0.972378    14A     -0.875872    15A     -0.838666
      16A     -0.719200    17A     -0.702820    18A     -0.663519
      19A     -0.652982    20A     -0.625415    21A     -0.611904
      22A     -0.574167    23A     -0.557013    24A     -0.550453
      25A     -0.529711    26A     -0.483232    27A     -0.420405
      28A     -0.410628    29A     -0.310786

  @DF-RHF Final Energy:  -360.72274117107878

   => Energetics <=

    Nuclear Repulsion Energy =            358.5283754154543772
    One-Electron Energy =               -1200.3914533332251722
    Two-Electron Energy =                 481.1403367466921850
    DFT Exchange-Correlation Energy =       0.0000000000000000
    Empirical Dispersion Energy =           0.0000000000000000
    PCM Polarization Energy =               0.0000000000000000
    EFP Energy =                            0.0000000000000000
    Total Energy =                       -360.7227411710786669
    Molecular point group: c1
  Basis Set: CC-PVTZ
  Basis Set:

  -Total Gradient:
     Atom            X                  Y                   Z
    ------   -----------------  -----------------  -----------------
       1       -0.000002983560    -0.000008405366    -0.000002371315
       2        0.000006135159    -0.000024654926    -0.000004305676
       3        0.000003497600     0.000017908419     0.000013438795
       4        0.000011206837     0.000049988500    -0.000003279911
       5       -0.000000222936    -0.000003451983    -0.000002611076
       6       -0.000002341150     0.000007400630     0.000002621477
       7       -0.000002516373    -0.000010987506    -0.000003185518
       8        0.000186314804     0.000559099430     0.000225883158
       9        0.000000087849    -0.000006508283     0.000000518852
      10       -0.000167360627    -0.000498789583    -0.000121034954
      11        0.000153885094     0.000412810948    -0.000444950361
      12       -0.000003567609     0.000003678005     0.000025996418
      13       -0.000186828193    -0.000500381566     0.000316546004
      14        0.000016243944     0.000001643898    -0.000002620554
      15       -0.000011550839     0.000000649383    -0.000000645342

  **** Optimization is complete! (in 6 steps) ****
    Final optimized geometry and variables:
    Molecular point group: c1

    Geometry (in Angstrom), charge = 0, multiplicity = 1:

    H           -1.415983753876     0.999686276356    -2.496388900178
    C           -1.030671091429     0.675684098266    -1.552724945917
    C           -1.817570358579     0.730321018589    -0.358364524486
    C            0.212301725281     0.196744910011    -1.454022925678
    H           -2.822484486102     1.105928810873    -0.405787572299
    C           -1.312129294639     0.318061407266     0.808525756792
    H            0.859668590725     0.121733870232    -2.304838606658
    N            0.747957837255    -0.233034598536    -0.278509856803
    H           -1.870601085927     0.345487986418     1.721481190862
    C            0.047523296534    -0.190145863596     0.914307469389
    C            2.117444461394    -0.726890304981    -0.266249717908
    O            0.549057697952    -0.549670882080     1.944475062511
    H            2.286970742149    -1.340335860710    -1.139864463657
    H            2.823674004840     0.094058142814    -0.260433448841
    H            2.263504949173    -1.316799228237     0.619841496551

  Mulliken Charges: (a.u.)
   Center  Symbol    Alpha    Beta     Spin     Total
       1     H     0.41396  0.41396  0.00000  0.17208
       2     C     3.10315  3.10315  0.00000 -0.20630
       3     C     3.06164  3.06164  0.00000 -0.12327
       4     C     3.03311  3.03311  0.00000 -0.06621
       5     H     0.41838  0.41838  0.00000  0.16325
       6     C     3.11706  3.11706  0.00000 -0.23411
       7     H     0.42123  0.42123  0.00000  0.15753
       8     N     3.51186  3.51186  0.00000 -0.02372
       9     H     0.40895  0.40895  0.00000  0.18210
      10     C     2.84525  2.84525  0.00000  0.30950
      11     C     3.10436  3.10436  0.00000 -0.20872
      12     O     4.23639  4.23639  0.00000 -0.47279
      13     H     0.45381  0.45381  0.00000  0.09239
      14     H     0.44702  0.44702  0.00000  0.10596
      15     H     0.42384  0.42384  0.00000  0.15232

   Total alpha = 29.00000, Total beta = 29.00000, Total charge = -0.00000

*** Psi4 exiting successfully. Buy a developer a beer!
