  ==> Input File <==

--------------------------------------------------------------------------
set {
	reference rhf
	basis 6-31G*
}

set_num_threads( 1 )
memory 2 gb

molecule MOL {
0 1

O	 3.225979	 0.970355	 -0.599647
C	 2.701189	 0.057885	 -0.047330
C	 1.245376	 -0.013843	 0.345420
O	 3.347903	 -1.046386	 0.304773
C	 0.455112	 1.231400	 -0.050772
H	 0.838542	 -0.913825	 -0.103701
H	 1.208210	 -0.175333	 1.419774
C	 -0.998893	 1.219485	 0.433193
H	 0.482531	 1.345121	 -1.130325
H	 0.957290	 2.103070	 0.354729
C	 -1.883438	 0.145884	 -0.207175
H	 -1.431207	 2.195402	 0.224832
H	 -1.019646	 1.105716	 1.516076
C	 -1.095999	 -1.091280	 -0.643484
H	 -2.655470	 -0.150750	 0.501200
H	 -2.402407	 0.554451	 -1.071303
C	 -1.968933	 -2.168659	 -1.289527
H	 -0.583863	 -1.514403	 0.219023
H	 -0.316905	 -0.793814	 -1.343645
C	 -1.175556	 -3.402313	 -1.718889
H	 -2.748615	 -2.466342	 -0.591585
H	 -2.478306	 -1.748814	 -2.154426
H	 -1.821424	 -4.147430	 -2.173049
H	 -0.681959	 -3.866128	 -0.869517
H	 -0.409206	 -3.142869	 -2.443920
C	 4.728119	 -1.109107	 -0.004993
H	 4.882018	 -1.033965	 -1.071845
H	 5.068212	 -2.067527	 0.355250
H	 5.265056	 -0.311663	 0.488280

	symmetry c1
}
set optking {
	frozen_dihedral = ("
		21 17 14 11,
		17 14 11 15,
		6 3 5 9,
		11 8 5 9,
		2 4 26 27,
		1 2 4 26,
		6 3 2 1
	")
}

ee = energy('scf')
oeprop('DIPOLE', 'QUADRUPOLE', 'MULLIKEN_CHARGES')
f=open( 'psi4out.xyz', 'w' )
f.write( "29  " )
f.write( str(ee) + "\n" )
f.write( MOL.save_string_xyz() )
f.close()
--------------------------------------------------------------------------

    Molecular point group: c1

    Geometry (in Angstrom), charge = 0, multiplicity = 1:

       Center              X                  Y                   Z               Mass
    ------------   -----------------  -----------------  -----------------  -----------------
           O          2.395007409985     1.463171395002    -0.278046308695    15.994914619560
           C          1.870217409985     0.550701395002     0.274270691305    12.000000000000
           C          0.414404409985     0.478973395002     0.667020691305    12.000000000000
           O          2.516931409985    -0.553569604998     0.626373691305    15.994914619560
           C         -0.375859590015     1.724216395002     0.270828691305    12.000000000000
           H          0.007570409985    -0.421008604998     0.217899691305     1.007825032070
           H          0.377238409985     0.317483395002     1.741374691305     1.007825032070
           C         -1.829864590015     1.712301395002     0.754793691305    12.000000000000
           H         -0.348440590015     1.837937395002    -0.808724308695     1.007825032070
           H          0.126318409985     2.595886395002     0.676329691305     1.007825032070
           C         -2.714409590015     0.638700395002     0.114425691305    12.000000000000
           H         -2.262178590015     2.688218395002     0.546432691305     1.007825032070
           H         -1.850617590015     1.598532395002     1.837676691305     1.007825032070
           C         -1.926970590015    -0.598463604998    -0.321883308695    12.000000000000
           H         -3.486441590015     0.342066395002     0.822800691305     1.007825032070
           H         -3.233378590015     1.047267395002    -0.749702308695     1.007825032070
           C         -2.799904590015    -1.675842604998    -0.967926308695    12.000000000000
           H         -1.414834590015    -1.021586604998     0.540623691305     1.007825032070
           H         -1.147876590015    -0.300997604998    -1.022044308695     1.007825032070
           C         -2.006527590015    -2.909496604998    -1.397288308695    12.000000000000
           H         -3.579586590015    -1.973525604998    -0.269984308695     1.007825032070
           H         -3.309277590015    -1.255997604998    -1.832825308695     1.007825032070
           H         -2.652395590015    -3.654613604998    -1.851448308695     1.007825032070
           H         -1.512930590015    -3.373311604998    -0.547916308695     1.007825032070
           H         -1.240177590015    -2.650052604998    -2.122319308695     1.007825032070
           C          3.897147409985    -0.616290604998     0.316607691305    12.000000000000
           H          4.051046409985    -0.541148604998    -0.750244308695     1.007825032070
           H          4.237240409985    -1.574710604998     0.676850691305     1.007825032070
           H          4.434084409985     0.181153395002     0.809880691305     1.007825032070

  Charge       = 0
  Multiplicity = 1
  Basis Set: 6-31G*
  Basis Set:

    Orbital Energies (a.u.)
    -----------------------

    Doubly Occupied:

       1A    -20.601048     2A    -20.541499     3A    -11.367695
       4A    -11.279175     5A    -11.223973     6A    -11.218440
       7A    -11.217553     8A    -11.217026     9A    -11.216637
      10A    -11.216024    11A    -11.210896    12A     -1.466306
      13A     -1.359512    14A     -1.107678    15A     -1.060222
      16A     -1.019454    17A     -0.973806    18A     -0.939150
      19A     -0.863451    20A     -0.813294    21A     -0.783516
      22A     -0.763155    23A     -0.694204    24A     -0.681545
      25A     -0.669637    26A     -0.655550    27A     -0.631237
      28A     -0.608570    29A     -0.593934    30A     -0.578559
      31A     -0.567635    32A     -0.555706    33A     -0.540840
      34A     -0.526732    35A     -0.520904    36A     -0.501237
      37A     -0.497117    38A     -0.484749    39A     -0.474245
      40A     -0.457579    41A     -0.454307    42A     -0.452748
      43A     -0.439382    44A     -0.423266

  @DF-RHF Final Energy:  -501.01107034851509

   => Energetics <=

    Nuclear Repulsion Energy =            647.0768832703089402
    One-Electron Energy =               -1965.2373679211063973
    Two-Electron Energy =                 817.1494143022828212
    DFT Exchange-Correlation Energy =       0.0000000000000000
    Empirical Dispersion Energy =           0.0000000000000000
    PCM Polarization Energy =               0.0000000000000000
    EFP Energy =                            0.0000000000000000
    Total Energy =                       -501.0110703485147496

  Mulliken Charges: (a.u.)
   Center  Symbol    Alpha    Beta     Spin     Total
       1     O     4.28787  4.28787  0.00000 -0.57573
       2     C     2.60346  2.60346  0.00000  0.79309
       3     C     3.21667  3.21667  0.00000 -0.43335
       4     O     4.30777  4.30777  0.00000 -0.61553
       5     C     3.16012  3.16012  0.00000 -0.32024
       6     H     0.39167  0.39167  0.00000  0.21666
       7     H     0.40282  0.40282  0.00000  0.19436
       8     C     3.15864  3.15864  0.00000 -0.31728
       9     H     0.41279  0.41279  0.00000  0.17442
      10     H     0.40690  0.40690  0.00000  0.18619
      11     C     3.14914  3.14914  0.00000 -0.29828
      12     H     0.41599  0.41599  0.00000  0.16802
      13     H     0.42251  0.42251  0.00000  0.15499
      14     C     3.17535  3.17535  0.00000 -0.35069
      15     H     0.41991  0.41991  0.00000  0.16017
      16     H     0.42014  0.42014  0.00000  0.15972
      17     C     3.14732  3.14732  0.00000 -0.29463
      18     H     0.41628  0.41628  0.00000  0.16745
      19     H     0.41625  0.41625  0.00000  0.16751
      20     C     3.24088  3.24088  0.00000 -0.48177
      21     H     0.42301  0.42301  0.00000  0.15397
      22     H     0.42277  0.42277  0.00000  0.15446
      23     H     0.41804  0.41804  0.00000  0.16392
      24     H     0.42187  0.42187  0.00000  0.15627
      25     H     0.42190  0.42190  0.00000  0.15620
      26     C     3.09202  3.09202  0.00000 -0.18405
      27     H     0.40955  0.40955  0.00000  0.18090
      28     H     0.40901  0.40901  0.00000  0.18197
      29     H     0.40935  0.40935  0.00000  0.18130

   Total alpha = 44.00000, Total beta = 44.00000, Total charge = -0.00000
