  ==> Input File <==

--------------------------------------------------------------------------
set {
	reference rhf
	basis 6-31G*
}

set_num_threads( 4 )
memory 2 gb

molecule MOL {
0 1

H	 2.340338	 -0.998228	 -0.853866
N	 2.434251	 -0.367735	 -0.081097
C	 1.267428	 0.496480	 0.024474
H	 3.259609	 0.175691	 -0.249583
C	 -0.016086	 -0.325158	 -0.029487
H	 1.288818	 1.183521	 -0.816092
H	 1.267576	 1.109062	 0.929528
C	 -1.282277	 0.529072	 0.046735
H	 -0.012495	 -0.908639	 -0.945788
H	 -0.015903	 -1.041248	 0.791956
C	 -2.563920	 -0.301775	 -0.006060
H	 -1.284084	 1.244622	 -0.773004
H	 -1.271387	 1.115393	 0.963286
H	 -2.621848	 -0.873522	 -0.927727
H	 -3.445135	 0.329952	 0.047812
H	 -2.609542	 -1.004582	 0.821105

	symmetry c1
}
set optking {
	frozen_dihedral = ("
		1 2 3 6
	")
}

ee = optimize('scf')
oeprop('DIPOLE', 'QUADRUPOLE', 'MULLIKEN_CHARGES')
f=open( 'psi4out.xyz', 'w' )
f.write( "16  " )
f.write( str(ee) + "\n" )
f.write( MOL.save_string_xyz() )
f.close()
--------------------------------------------------------------------------

    Molecular point group: c1
  Charge       = 0
  Multiplicity = 1
  Basis Set: 6-31G*
  Basis Set:
  @DF-RHF Final Energy:  -212.31426403788151
    Total Energy =                       -212.3142640378814576
    Molecular point group: c1
  Basis Set: 6-31G*
  Basis Set:
  Basis Set: 6-31G*
  Basis Set:
  @DF-RHF Final Energy:  -212.31634596835843
    Total Energy =                       -212.3163459683585188
  Basis Set: 6-31G*
  Basis Set:
  Basis Set: 6-31G*
  Basis Set:
  @DF-RHF Final Energy:  -212.31662260416454
    Total Energy =                       -212.3166226041646496
  Basis Set: 6-31G*
  Basis Set:
  Basis Set: 6-31G*
  Basis Set:
  @DF-RHF Final Energy:  -212.31662472808563
    Total Energy =                       -212.3166247280854577
  Basis Set: 6-31G*
  Basis Set:
  Basis Set: 6-31G*
  Basis Set:
  @DF-RHF Final Energy:  -212.31662724498187
    Total Energy =                       -212.3166272449818166
  Basis Set: 6-31G*
  Basis Set:
  Charge       = 0
  Multiplicity = 1
  Basis Set: 6-31G*
  Basis Set:

    Orbital Energies (a.u.)
    -----------------------

    Doubly Occupied:

       1A    -15.531450     2A    -11.239530     3A    -11.216159
       4A    -11.211944     5A    -11.208752     6A     -1.176069
       7A     -1.060461     8A     -0.959159     9A     -0.844367
      10A     -0.794030    11A     -0.659608    12A     -0.642673
      13A     -0.603650    14A     -0.575362    15A     -0.568519
      16A     -0.523812    17A     -0.503392    18A     -0.471082
      19A     -0.465904    20A     -0.461528    21A     -0.379402

  @DF-RHF Final Energy:  -212.31662776376439

   => Energetics <=

    Nuclear Repulsion Energy =            186.3400739219275408
    One-Electron Energy =                -655.1197022684489184
    Two-Electron Energy =                 256.4630005827569903
    DFT Exchange-Correlation Energy =       0.0000000000000000
    Empirical Dispersion Energy =           0.0000000000000000
    PCM Polarization Energy =               0.0000000000000000
    EFP Energy =                            0.0000000000000000
    Total Energy =                       -212.3166277637643589
    Molecular point group: c1
  Basis Set: 6-31G*
  Basis Set:

  -Total Gradient:
     Atom            X                  Y                   Z
    ------   -----------------  -----------------  -----------------
       1       -0.000948055359    -0.001289313096     0.001127388928
       2        0.001466423874     0.001968083501    -0.001088514221
       3       -0.001429134237    -0.001877047584    -0.001097954332
       4        0.000003139548    -0.000008174271    -0.000002669717
       5        0.000020692379     0.000028521692    -0.000006777375
       6        0.000902742138     0.001169868748     0.001057317334
       7       -0.000004561187     0.000003283036     0.000011175036
       8       -0.000014429253    -0.000005528348    -0.000015345274
       9        0.000000607717     0.000009571597     0.000011080600
      10        0.000006849736     0.000005784338    -0.000000619381
      11       -0.000008547422     0.000004291542     0.000009406592
      12        0.000007369191    -0.000003128894    -0.000001432752
      13        0.000000146134    -0.000004766711    -0.000002871306
      14        0.000000193822     0.000003773599    -0.000001637699
      15       -0.000004021738    -0.000002060183     0.000003861687
      16        0.000000584653    -0.000003158967    -0.000002408120

  **** Optimization is complete! (in 6 steps) ****
    Final optimized geometry and variables:
    Molecular point group: c1

    Geometry (in Angstrom), charge = 0, multiplicity = 1:

    H            2.391318264970    -0.998866352408    -0.804802844121
    N            2.436494343816    -0.368993795621    -0.026906095870
    C            1.268058462637     0.497925240311     0.003870968498
    H            3.280453548983     0.161717266591    -0.118327216989
    C           -0.015217399060    -0.324030113428    -0.025025774286
    H            1.255653392848     1.230931927583    -0.806629014031
    H            1.305140899240     1.068183299906     0.927775264416
    C           -1.280256135802     0.530194460555     0.068254086705
    H           -0.044898685721    -0.909229915613    -0.944005483452
    H            0.014265926575    -1.037045552141     0.794346451249
    C           -2.562214769495    -0.301261847704     0.037157684873
    H           -1.296150716691     1.246748531803    -0.750301478969
    H           -1.252991230810     1.114582240028     0.985396653558
    H           -2.637486683851    -0.871356427939    -0.884558809889
    H           -3.442376105790     0.330245726285     0.108065537184
    H           -2.592155570008    -1.005382586949     0.863650404334

  Mulliken Charges: (a.u.)
   Center  Symbol    Alpha    Beta     Spin     Total
       1     H     0.33517  0.33517  0.00000  0.32966
       2     N     3.92413  3.92413  0.00000 -0.84827
       3     C     3.05563  3.05563  0.00000 -0.11127
       4     H     0.33225  0.33225  0.00000  0.33550
       5     C     3.15519  3.15519  0.00000 -0.31038
       6     H     0.43514  0.43514  0.00000  0.12973
       7     H     0.42075  0.42075  0.00000  0.15851
       8     C     3.15508  3.15508  0.00000 -0.31016
       9     H     0.42802  0.42802  0.00000  0.14395
      10     H     0.41296  0.41296  0.00000  0.17408
      11     C     3.23893  3.23893  0.00000 -0.47787
      12     H     0.42330  0.42330  0.00000  0.15341
      13     H     0.42174  0.42174  0.00000  0.15653
      14     H     0.42196  0.42196  0.00000  0.15609
      15     H     0.41930  0.41930  0.00000  0.16140
      16     H     0.42045  0.42045  0.00000  0.15909

   Total alpha = 21.00000, Total beta = 21.00000, Total charge =  0.00000
