  ==> Input File <==

--------------------------------------------------------------------------
set {
	reference rhf
	basis 6-31G*
}

set_num_threads( 4 )
memory 2 gb

molecule MOL {
0 1

O	 0.234241	 0.914979	 0.891860
C	 0.486307	 0.169203	 0.000779
C	 1.608116	 -0.841643	 0.000302
O	 -0.198594	 0.128922	 -1.133635
C	 2.990107	 -0.200498	 -0.000684
H	 1.468623	 -1.481519	 -0.865924
H	 1.469683	 -1.481289	 0.866878
H	 3.129736	 0.423364	 -0.875135
H	 3.757882	 -0.966877	 -0.001197
H	 3.130964	 0.423383	 0.873533
C	 -1.290407	 1.031846	 -1.275316
C	 -1.901619	 0.794282	 -2.639975
H	 -0.925948	 2.044742	 -1.171409
H	 -2.002359	 0.851586	 -0.481451
H	 -1.174500	 0.973688	 -3.423728
H	 -2.741391	 1.464943	 -2.790464
H	 -2.256896	 -0.225971	 -2.730080

	symmetry c1
}
set optking {
	frozen_dihedral = ("
		4 2 3 6
	")
}

ee = optimize('scf')
oeprop('DIPOLE', 'QUADRUPOLE', 'MULLIKEN_CHARGES')
f=open( 'psi4out.xyz', 'w' )
f.write( "17  " )
f.write( str(ee) + "\n" )
f.write( MOL.save_string_xyz() )
f.close()
--------------------------------------------------------------------------

    Molecular point group: c1
  Charge       = 0
  Multiplicity = 1
  Basis Set: 6-31G*
  Basis Set:
  @DF-RHF Final Energy:  -344.90938977179860
    Total Energy =                       -344.9093897717986579
    Molecular point group: c1
  Basis Set: 6-31G*
  Basis Set:
  Basis Set: 6-31G*
  Basis Set:
  @DF-RHF Final Energy:  -344.90978305313632
    Total Energy =                       -344.9097830531362661
  Basis Set: 6-31G*
  Basis Set:
  Basis Set: 6-31G*
  Basis Set:
  @DF-RHF Final Energy:  -344.90857288032572
    Total Energy =                       -344.9085728803256643
  Basis Set: 6-31G*
  Basis Set:
  Basis Set: 6-31G*
  Basis Set:
  @DF-RHF Final Energy:  -344.91007716116684
    Total Energy =                       -344.9100771611667824
  Basis Set: 6-31G*
  Basis Set:
  Basis Set: 6-31G*
  Basis Set:
  @DF-RHF Final Energy:  -344.91008516256466
    Total Energy =                       -344.9100851625645987
  Basis Set: 6-31G*
  Basis Set:
  Charge       = 0
  Multiplicity = 1
  Basis Set: 6-31G*
  Basis Set:

    Orbital Energies (a.u.)
    -----------------------

    Doubly Occupied:

       1A    -20.603149     2A    -20.540915     3A    -11.370549
       4A    -11.284724     5A    -11.235930     6A    -11.224139
       7A    -11.222473     8A     -1.467711     9A     -1.360377
      10A     -1.070670    11A     -1.032311    12A     -0.909146
      13A     -0.851829    14A     -0.776470    15A     -0.694155
      16A     -0.685047    17A     -0.666320    18A     -0.618083
      19A     -0.596688    20A     -0.574322    21A     -0.555160
      22A     -0.533942    23A     -0.525933    24A     -0.509844
      25A     -0.501270    26A     -0.494344    27A     -0.451124
      28A     -0.432439

  @DF-RHF Final Energy:  -344.91008556514572

   => Energetics <=

    Nuclear Repulsion Energy =            315.4599616815254990
    One-Electron Energy =               -1095.1619657629676112
    Two-Electron Energy =                 434.7919185162966187
    DFT Exchange-Correlation Energy =       0.0000000000000000
    Empirical Dispersion Energy =           0.0000000000000000
    PCM Polarization Energy =               0.0000000000000000
    EFP Energy =                            0.0000000000000000
    Total Energy =                       -344.9100855651454367
    Molecular point group: c1
  Basis Set: 6-31G*
  Basis Set:

  -Total Gradient:
     Atom            X                  Y                   Z
    ------   -----------------  -----------------  -----------------
       1       -0.000016216343    -0.000044198085    -0.000062443965
       2       -0.000243096948    -0.000283201782     0.000319052297
       3        0.000314573242     0.000348314924    -0.000299766417
       4        0.000111114289     0.000177726273    -0.000121379516
       5       -0.000018413310     0.000011861697     0.000009227906
       6       -0.000200049099    -0.000224239581     0.000199460072
       7       -0.000000079882    -0.000005927025    -0.000021342217
       8       -0.000001333206    -0.000001805676     0.000008225072
       9        0.000001743679    -0.000014450608     0.000002176587
      10       -0.000000024802     0.000009993368    -0.000009788201
      11        0.000139194111     0.000077508604    -0.000057917813
      12       -0.000038106522    -0.000019024940     0.000012240014
      13       -0.000035987238    -0.000007505008    -0.000001553746
      14       -0.000012562557    -0.000020077390     0.000024408156
      15        0.000006123850     0.000002809929     0.000012417098
      16       -0.000002163077    -0.000003734526    -0.000000373017
      17       -0.000004716186    -0.000004050174    -0.000012642305

  **** Optimization is complete! (in 6 steps) ****
    Final optimized geometry and variables:
    Molecular point group: c1

    Geometry (in Angstrom), charge = 0, multiplicity = 1:

    O           -0.012459232113     0.591551708784     1.486709336362
    C            0.218944977619    -0.155014799304     0.589174069316
    C            1.343217983647    -1.163903749698     0.601737899352
    O           -0.472157589256    -0.173886114877    -0.539886391665
    C            2.706702976010    -0.464773313623     0.612169527371
    H            1.251287912468    -1.824806405008    -0.249779468934
    H            1.230554766762    -1.754016093062     1.504606839250
    H            2.852991015965     0.121465426426    -0.289323656118
    H            3.503644896121    -1.197992440452     0.666618008948
    H            2.789348176827     0.196242495290     1.466015078106
    C           -1.545852248779     0.753054592023    -0.667700579591
    C           -2.177931396488     0.531056661702    -2.025461926744
    H           -1.157871709104     1.757294453969    -0.565793304304
    H           -2.251568834003     0.586447332032     0.134521047553
    H           -1.456440905218     0.696291224616    -2.817548152786
    H           -3.004734295263     1.219937822035    -2.164965673444
    H           -2.556191861137    -0.481099159727    -2.113075838890

  Mulliken Charges: (a.u.)
   Center  Symbol    Alpha    Beta     Spin     Total
       1     O     4.28750  4.28750  0.00000 -0.57501
       2     C     2.61003  2.61003  0.00000  0.77994
       3     C     3.19951  3.19951  0.00000 -0.39901
       4     O     4.30946  4.30946  0.00000 -0.61891
       5     C     3.24903  3.24903  0.00000 -0.49806
       6     H     0.40160  0.40160  0.00000  0.19680
       7     H     0.40064  0.40064  0.00000  0.19873
       8     H     0.41447  0.41447  0.00000  0.17107
       9     H     0.41325  0.41325  0.00000  0.17349
      10     H     0.40308  0.40308  0.00000  0.19385
      11     C     3.00349  3.00349  0.00000 -0.00698
      12     C     3.24859  3.24859  0.00000 -0.49718
      13     H     0.40997  0.40997  0.00000  0.18006
      14     H     0.40955  0.40955  0.00000  0.18090
      15     H     0.41193  0.41193  0.00000  0.17614
      16     H     0.41619  0.41619  0.00000  0.16763
      17     H     0.41173  0.41173  0.00000  0.17655

   Total alpha = 28.00000, Total beta = 28.00000, Total charge =  0.00000
