                              Psi4 1.0.54 Driver

  ==> Input File <==

--------------------------------------------------------------------------
set {
	reference rhf
	basis cc-pvtz
}

set_num_threads( 4 )
memory 2 gb

molecule MOL {
0 1

O	 0.749774	 1.305622	 -0.000460
C	 0.576643	 0.134732	 -0.003900
C	 -0.765512	 -0.550477	 -0.002152
O	 1.564960	 -0.744581	 -0.000631
C	 -1.945382	 0.411083	 0.000603
H	 -0.794185	 -1.203761	 -0.868145
H	 -0.791411	 -1.205398	 0.862701
C	 -3.282771	 -0.321249	 0.002596
H	 -1.880156	 1.059157	 -0.864925
H	 -1.877063	 1.057923	 0.866807
H	 -3.388351	 -0.952724	 -0.873419
H	 -4.107667	 0.380895	 0.004116
H	 -3.385573	 -0.953252	 0.878571
C	 2.884483	 -0.237770	 0.002883
H	 3.064294	 0.362845	 -0.876312
H	 3.533199	 -1.098498	 0.004958
H	 3.059509	 0.363463	 0.882614

	symmetry c1
}
ee,wfn = energy('scf', return_wfn=True)
oeprop( wfn, 'DIPOLE', 'QUADRUPOLE', 'MULLIKEN_CHARGES')
oeprop( wfn, 'GRID_ESP')
f=open( 'psi4out.xyz', 'w' )
f.write( "17  " )
f.write( str(ee) + "\n" )
f.write( MOL.save_string_xyz() )
f.close()
--------------------------------------------------------------------------

    Molecular point group: c1

    Geometry (in Angstrom), charge = 0, multiplicity = 1:

       Center              X                  Y                   Z               Mass
    ------------   -----------------  -----------------  -----------------  -----------------
           O          0.749629875116     1.305591146484    -0.000460081393    15.994914619560
           C          0.576498875116     0.134701146484    -0.003900081393    12.000000000000
           C         -0.765656124884    -0.550507853516    -0.002152081393    12.000000000000
           O          1.564815875116    -0.744611853516    -0.000631081393    15.994914619560
           C         -1.945526124884     0.411052146484     0.000602918607    12.000000000000
           H         -0.794329124884    -1.203791853516    -0.868145081393     1.007825032070
           H         -0.791555124884    -1.205428853516     0.862700918607     1.007825032070
           C         -3.282915124884    -0.321279853516     0.002595918607    12.000000000000
           H         -1.880300124884     1.059126146484    -0.864925081393     1.007825032070
           H         -1.877207124884     1.057892146484     0.866806918607     1.007825032070
           H         -3.388495124884    -0.952754853516    -0.873419081393     1.007825032070
           H         -4.107811124884     0.380864146484     0.004115918607     1.007825032070
           H         -3.385717124884    -0.953282853516     0.878570918607     1.007825032070
           C          2.884338875116    -0.237800853516     0.002882918607    12.000000000000
           H          3.064149875116     0.362814146484    -0.876312081393     1.007825032070
           H          3.533054875116    -1.098528853516     0.004957918607     1.007825032070
           H          3.059364875116     0.363432146484     0.882613918607     1.007825032070

  Charge       = 0
  Multiplicity = 1
  Basis Set: CC-PVTZ
  Basis Set:

    Orbital Energies (a.u.)
    -----------------------

    Doubly Occupied:

       1A    -20.596708     2A    -20.534506     3A    -11.364922
       4A    -11.278762     5A    -11.234285     6A    -11.220075
       7A    -11.212692     8A     -1.472578     9A     -1.366232
      10A     -1.081765    11A     -1.002592    12A     -0.940366
      13A     -0.827870    14A     -0.769348    15A     -0.702664
      16A     -0.686748    17A     -0.676279    18A     -0.637771
      19A     -0.596864    20A     -0.575541    21A     -0.569816
      22A     -0.528821    23A     -0.523268    24A     -0.500438
      25A     -0.487749    26A     -0.479761    27A     -0.460102
      28A     -0.441494

  @DF-RHF Final Energy:  -345.03541323214063

   => Energetics <=

    Nuclear Repulsion Energy =            313.0299306688143588
    One-Electron Energy =               -1090.5904465587291270
    Two-Electron Energy =                 432.5251026577742550
    DFT Exchange-Correlation Energy =       0.0000000000000000
    Empirical Dispersion Energy =           0.0000000000000000
    PCM Polarization Energy =               0.0000000000000000
    EFP Energy =                            0.0000000000000000
    Total Energy =                       -345.0354132321405132

  Mulliken Charges: (a.u.)
   Center  Symbol    Alpha    Beta     Spin     Total
       1     O     4.19665  4.19665  0.00000 -0.39329
       2     C     2.80662  2.80662  0.00000  0.38676
       3     C     3.09577  3.09577  0.00000 -0.19155
       4     O     4.14694  4.14694  0.00000 -0.29388
       5     C     3.07857  3.07857  0.00000 -0.15715
       6     H     0.44105  0.44105  0.00000  0.11789
       7     H     0.44094  0.44094  0.00000  0.11813
       8     C     3.15135  3.15135  0.00000 -0.30271
       9     H     0.44681  0.44681  0.00000  0.10638
      10     H     0.44676  0.44676  0.00000  0.10648
      11     H     0.45585  0.45585  0.00000  0.08831
      12     H     0.44557  0.44557  0.00000  0.10885
      13     H     0.45583  0.45583  0.00000  0.08833
      14     C     3.03746  3.03746  0.00000 -0.07493
      15     H     0.45431  0.45431  0.00000  0.09138
      16     H     0.44525  0.44525  0.00000  0.10950
      17     H     0.45426  0.45426  0.00000  0.09148

   Total alpha = 28.00000, Total beta = 28.00000, Total charge = -0.00000

*** Psi4 exiting successfully. Buy a developer a beer!
