  ==> Input File <==

--------------------------------------------------------------------------
set {
	reference rhf
	basis 6-31G*
}

set_num_threads( 1 )
memory 2 gb

molecule MOL {
0 1

O	 1.362844	 2.139343	 0.060452
C	 0.274821	 2.607605	 0.160722
C	 -1.019475	 1.831308	 0.155185
O	 0.054167	 3.908960	 0.298285
C	 -0.823008	 0.326187	 0.001381
H	 -1.543836	 2.067792	 1.077050
H	 -1.634917	 2.231942	 -0.645716
C	 -2.149452	 -0.435131	 -0.000098
H	 -0.190640	 -0.035920	 0.805854
H	 -0.282856	 0.128253	 -0.919144
C	 -3.368779	 0.488503	 -0.000883
H	 -2.193746	 -1.087250	 -0.871175
H	 -2.195311	 -1.087803	 0.870418
C	 -4.693822	 -0.272754	 -0.001129
H	 -3.325798	 1.139422	 -0.871284
H	 -3.326423	 1.139959	 0.869145
H	 -4.781274	 -0.907928	 -0.878124
H	 -5.538651	 0.408946	 -0.001420
H	 -4.781694	 -0.907783	 0.875984
C	 1.189762	 4.754455	 0.321021
H	 1.836312	 4.500242	 1.148594
H	 0.808949	 5.757015	 0.438197
H	 1.744876	 4.670229	 -0.602159

	symmetry c1
}
set optking {
	frozen_dihedral = ("
		15 11 8 12,
		1 2 3 6,
		9 5 3 6,
		1 2 4 20
	")
}

ee = energy('scf')
oeprop('DIPOLE', 'QUADRUPOLE', 'MULLIKEN_CHARGES')
f=open( 'psi4out.xyz', 'w' )
f.write( "23  " )
f.write( str(ee) + "\n" )
f.write( MOL.save_string_xyz() )
f.close()
--------------------------------------------------------------------------

    Molecular point group: c1

    Geometry (in Angstrom), charge = 0, multiplicity = 1:

       Center              X                  Y                   Z               Mass
    ------------   -----------------  -----------------  -----------------  -----------------
           O          2.362220556306     0.398348791328    -0.052374968769    15.994914619560
           C          1.274197556306     0.866610791328     0.047895031231    12.000000000000
           C         -0.020098443694     0.090313791328     0.042358031231    12.000000000000
           O          1.053543556306     2.167965791328     0.185458031231    15.994914619560
           C          0.176368556306    -1.414807208672    -0.111445968769    12.000000000000
           H         -0.544459443694     0.326797791328     0.964223031231     1.007825032070
           H         -0.635540443694     0.490947791328    -0.758542968769     1.007825032070
           C         -1.150075443694    -2.176125208672    -0.112924968769    12.000000000000
           H          0.808736556306    -1.776914208672     0.693027031231     1.007825032070
           H          0.716520556306    -1.612741208672    -1.031970968769     1.007825032070
           C         -2.369402443694    -1.252491208672    -0.113709968769    12.000000000000
           H         -1.194369443694    -2.828244208672    -0.984001968769     1.007825032070
           H         -1.195934443694    -2.828797208672     0.757591031231     1.007825032070
           C         -3.694445443694    -2.013748208672    -0.113955968769    12.000000000000
           H         -2.326421443694    -0.601572208672    -0.984110968769     1.007825032070
           H         -2.327046443694    -0.601035208672     0.756318031231     1.007825032070
           H         -3.781897443694    -2.648922208672    -0.990950968769     1.007825032070
           H         -4.539274443694    -1.332048208672    -0.114246968769     1.007825032070
           H         -3.782317443694    -2.648777208672     0.763157031231     1.007825032070
           C          2.189138556306     3.013460791328     0.208194031231    12.000000000000
           H          2.835688556306     2.759247791328     1.035767031231     1.007825032070
           H          1.808325556306     4.016020791328     0.325370031231     1.007825032070
           H          2.744252556306     2.929234791328    -0.714985968769     1.007825032070

  Charge       = 0
  Multiplicity = 1
  Basis Set: 6-31G*
  Basis Set:

    Orbital Energies (a.u.)
    -----------------------

    Doubly Occupied:

       1A    -20.602756     2A    -20.543959     3A    -11.370471
       4A    -11.280300     5A    -11.233314     6A    -11.218749
       7A    -11.217701     8A    -11.216343     9A    -11.210600
      10A     -1.468251    11A     -1.361557    12A     -1.099024
      13A     -1.037909    14A     -0.986619    15A     -0.932704
      16A     -0.856545    17A     -0.793859    18A     -0.755958
      19A     -0.698880    20A     -0.684052    21A     -0.669716
      22A     -0.654258    23A     -0.604486    24A     -0.602241
      25A     -0.579689    26A     -0.561770    27A     -0.551528
      28A     -0.525599    29A     -0.522249    30A     -0.511273
      31A     -0.500474    32A     -0.468908    33A     -0.456366
      34A     -0.454878    35A     -0.446931    36A     -0.435852

  @DF-RHF Final Energy:  -422.96119013942547

   => Energetics <=

    Nuclear Repulsion Energy =            462.9645058135253635
    One-Electron Energy =               -1493.6198900984156808
    Two-Electron Energy =                 607.6941941454613243
    DFT Exchange-Correlation Energy =       0.0000000000000000
    Empirical Dispersion Energy =           0.0000000000000000
    PCM Polarization Energy =               0.0000000000000000
    EFP Energy =                            0.0000000000000000
    Total Energy =                       -422.9611901394289362

  Mulliken Charges: (a.u.)
   Center  Symbol    Alpha    Beta     Spin     Total
       1     O     4.28622  4.28622  0.00000 -0.57244
       2     C     2.60167  2.60167  0.00000  0.79666
       3     C     3.21859  3.21859  0.00000 -0.43719
       4     O     4.30729  4.30729  0.00000 -0.61457
       5     C     3.15474  3.15474  0.00000 -0.30947
       6     H     0.39912  0.39912  0.00000  0.20176
       7     H     0.39850  0.39850  0.00000  0.20300
       8     C     3.15607  3.15607  0.00000 -0.31215
       9     H     0.40890  0.40890  0.00000  0.18221
      10     H     0.40941  0.40941  0.00000  0.18118
      11     C     3.16034  3.16034  0.00000 -0.32068
      12     H     0.41858  0.41858  0.00000  0.16284
      13     H     0.41938  0.41938  0.00000  0.16124
      14     C     3.23607  3.23607  0.00000 -0.47214
      15     H     0.42211  0.42211  0.00000  0.15578
      16     H     0.42170  0.42170  0.00000  0.15659
      17     H     0.42136  0.42136  0.00000  0.15728
      18     H     0.41928  0.41928  0.00000  0.16144
      19     H     0.42142  0.42142  0.00000  0.15716
      20     C     3.09227  3.09227  0.00000 -0.18453
      21     H     0.40917  0.40917  0.00000  0.18166
      22     H     0.40859  0.40859  0.00000  0.18282
      23     H     0.40922  0.40922  0.00000  0.18156

   Total alpha = 36.00000, Total beta = 36.00000, Total charge =  0.00000
