  ==> Input File <==

--------------------------------------------------------------------------
set {
	reference rhf
	basis cc-pvtz
}

set_num_threads( 4 )
memory 2 gb

molecule MOL {
0 1

H	 -2.816458	 -0.841657	 -0.064679
N	 -1.878861	 -0.711874	 0.250184
C	 -1.341419	 0.551458	 -0.220231
H	 -1.333674	 -1.468530	 -0.105118
C	 -0.174469	 0.983375	 0.637861
H	 -1.012461	 0.522787	 -1.258262
H	 -2.115307	 1.307440	 -0.145128
O	 0.863652	 0.063768	 0.481865
H	 0.157280	 1.976403	 0.337843
H	 -0.483536	 1.027495	 1.679715
C	 1.976595	 0.311258	 1.275166
H	 2.709099	 -0.455721	 1.068849
H	 2.415338	 1.281780	 1.053160
H	 1.725877	 0.281135	 2.332897

	symmetry c1
}
set optking {
	frozen_dihedral = ("
		6 3 2 4
	")
}

ee = optimize('scf')
oeprop('DIPOLE', 'QUADRUPOLE', 'MULLIKEN_CHARGES')
f=open( 'psi4out.xyz', 'w' )
f.write( "14  " )
f.write( str(ee) + "\n" )
f.write( MOL.save_string_xyz() )
f.close()
--------------------------------------------------------------------------

    Molecular point group: c1
  Charge       = 0
  Multiplicity = 1
  Basis Set: CC-PVTZ
  Basis Set:
  @DF-RHF Final Energy:  -248.22487734454722
    Total Energy =                       -248.2248773445472807
    Molecular point group: c1
  Basis Set: CC-PVTZ
  Basis Set:
  Basis Set: CC-PVTZ
  Basis Set:
  @DF-RHF Final Energy:  -248.22500681138169
    Total Energy =                       -248.2250068113816610
  Basis Set: CC-PVTZ
  Basis Set:
  Basis Set: CC-PVTZ
  Basis Set:
  @DF-RHF Final Energy:  -248.22502032688925
    Total Energy =                       -248.2250203268891369
  Basis Set: CC-PVTZ
  Basis Set:
  Charge       = 0
  Multiplicity = 1
  Basis Set: CC-PVTZ
  Basis Set:

    Orbital Energies (a.u.)
    -----------------------

    Doubly Occupied:

       1A    -20.547333     2A    -15.525661     3A    -11.261023
       4A    -11.260511     5A    -11.240593     6A     -1.381514
       7A     -1.176589     8A     -0.999785     9A     -0.905220
      10A     -0.814219    11A     -0.682509    12A     -0.676611
      13A     -0.642648    14A     -0.616718    15A     -0.606676
      16A     -0.535915    17A     -0.526614    18A     -0.499639
      19A     -0.473632    20A     -0.417037    21A     -0.385707

  @DF-RHF Final Energy:  -248.22502115759860

   => Energetics <=

    Nuclear Repulsion Energy =            194.3340438823051102
    One-Electron Energy =                -722.7658174706180034
    Two-Electron Energy =                 280.2067524307141184
    DFT Exchange-Correlation Energy =       0.0000000000000000
    Empirical Dispersion Energy =           0.0000000000000000
    PCM Polarization Energy =               0.0000000000000000
    EFP Energy =                            0.0000000000000000
    Total Energy =                       -248.2250211575988033
    Molecular point group: c1
  Basis Set: CC-PVTZ
  Basis Set:

  -Total Gradient:
     Atom            X                  Y                   Z
    ------   -----------------  -----------------  -----------------
       1        0.000002650301    -0.000011609762     0.000002603756
       2        0.003171791281     0.000060782870     0.003574184541
       3       -0.004129915718     0.001002194701    -0.001856986354
       4       -0.001888052603    -0.000231419083    -0.002684876210
       5        0.000056711052     0.000038604047    -0.000053020414
       6        0.002811803071    -0.000827588699     0.001008567967
       7        0.000008650684    -0.000009535870    -0.000000848409
       8       -0.000015113775    -0.000026296430     0.000018291901
       9       -0.000016523598     0.000014625307    -0.000002364320
      10       -0.000004733879    -0.000006064075    -0.000006973780
      11       -0.000002421806    -0.000007544351     0.000001052412
      12        0.000001876487     0.000000152094     0.000000209454
      13        0.000001641464     0.000003501761     0.000001191511
      14        0.000001637039     0.000000197491    -0.000001032054

  **** Optimization is complete! (in 4 steps) ****
    Final optimized geometry and variables:
    Molecular point group: c1

    Geometry (in Angstrom), charge = 0, multiplicity = 1:

    H           -2.709111334921    -1.073086718578    -0.578012727532
    N           -1.788387127309    -0.934369648136    -0.219133862533
    C           -1.238390619583     0.322188194277    -0.701752109586
    H           -1.238509898551    -1.702173388949    -0.540926624058
    C           -0.069733350001     0.759131647015     0.154030580564
    H           -0.884197570421     0.267355499237    -1.729473411469
    H           -2.006759363471     1.084247396592    -0.649479100967
    O            0.973480785744    -0.150114107948    -0.020737002584
    H            0.253067240902     1.758179915671    -0.139097647275
    H           -0.372964012083     0.789947773346     1.197731330616
    C            2.080613488427     0.080826839789     0.784556350798
    H            2.819615122002    -0.674451948373     0.558710459494
    H            2.514166306753     1.060764236642     0.594739901906
    H            1.825423803818     0.016614797019     1.839690091224

  Mulliken Charges: (a.u.)
   Center  Symbol    Alpha    Beta     Spin     Total
       1     H     0.42987  0.42987  0.00000  0.14027
       2     N     3.68999  3.68999  0.00000 -0.37999
       3     C     3.03135  3.03135  0.00000 -0.06270
       4     H     0.42459  0.42459  0.00000  0.15082
       5     C     2.96153  2.96153  0.00000  0.07694
       6     H     0.46207  0.46207  0.00000  0.07586
       7     H     0.45632  0.45632  0.00000  0.08736
       8     O     4.17911  4.17911  0.00000 -0.35822
       9     H     0.47243  0.47243  0.00000  0.05514
      10     H     0.47111  0.47111  0.00000  0.05777
      11     C     3.03093  3.03093  0.00000 -0.06185
      12     H     0.44807  0.44807  0.00000  0.10386
      13     H     0.47268  0.47268  0.00000  0.05464
      14     H     0.46995  0.46995  0.00000  0.06011

   Total alpha = 21.00000, Total beta = 21.00000, Total charge = -0.00000
