  ==> Input File <==

--------------------------------------------------------------------------
set {
	reference rhf
	basis 6-31G*
}

set_num_threads( 1 )
memory 2 gb

molecule MOL {
0 1

O	 2.402608	 1.278533	 2.011302
C	 2.230595	 0.239080	 1.460839
C	 1.245376	 -0.013843	 0.345420
O	 2.902775	 -0.863870	 1.766299
C	 0.455112	 1.231400	 -0.050772
H	 1.806725	 -0.421855	 -0.488610
H	 0.582135	 -0.809765	 0.674535
C	 -0.998893	 1.219485	 0.433193
H	 0.482531	 1.345121	 -1.130325
H	 0.957290	 2.103070	 0.354729
C	 -1.883438	 0.145884	 -0.207175
H	 -1.431207	 2.195402	 0.224832
H	 -1.019646	 1.105716	 1.516076
C	 -3.347647	 0.245583	 0.225435
H	 -1.822183	 0.231698	 -1.291012
H	 -1.510341	 -0.844814	 0.042401
C	 -4.239992	 -0.825570	 -0.404234
H	 -3.732888	 1.230466	 -0.033079
H	 -3.408585	 0.170602	 1.310038
C	 -5.701275	 -0.716658	 0.029921
H	 -4.179496	 -0.752714	 -1.488058
H	 -3.859041	 -1.810759	 -0.143352
H	 -6.308102	 -1.488908	 -0.432678
H	 -6.122175	 0.245478	 -0.248167
H	 -5.799072	 -0.820114	 1.106957
C	 3.862462	 -0.765165	 2.802707
H	 4.626214	 -0.045174	 2.546192
H	 4.293899	 -1.749223	 2.900170
H	 3.392164	 -0.469055	 3.729354

	symmetry c1
}
set optking {
	frozen_dihedral = ("
		21 17 14 11,
		17 14 11 15,
		15 11 8 5,
		11 8 5 9,
		2 4 26 27,
		1 2 4 26,
		6 3 2 1
	")
}

ee = energy('scf')
oeprop('DIPOLE', 'QUADRUPOLE', 'MULLIKEN_CHARGES')
f=open( 'psi4out.xyz', 'w' )
f.write( "29  " )
f.write( str(ee) + "\n" )
f.write( MOL.save_string_xyz() )
f.close()
--------------------------------------------------------------------------

    Molecular point group: c1

    Geometry (in Angstrom), charge = 0, multiplicity = 1:

       Center              X                  Y                   Z               Mass
    ------------   -----------------  -----------------  -----------------  -----------------
           O          2.648641286129     1.182628479760     1.219121661092    15.994914619560
           C          2.476628286129     0.143175479760     0.668658661092    12.000000000000
           C          1.491409286129    -0.109747520240    -0.446760338908    12.000000000000
           O          3.148808286129    -0.959774520240     0.974118661092    15.994914619560
           C          0.701145286129     1.135495479760    -0.842952338908    12.000000000000
           H          2.052758286129    -0.517759520240    -1.280790338908     1.007825032070
           H          0.828168286129    -0.905669520240    -0.117645338908     1.007825032070
           C         -0.752859713871     1.123580479760    -0.358987338908    12.000000000000
           H          0.728564286129     1.249216479760    -1.922505338908     1.007825032070
           H          1.203323286129     2.007165479760    -0.437451338908     1.007825032070
           C         -1.637404713871     0.049979479760    -0.999355338908    12.000000000000
           H         -1.185173713871     2.099497479760    -0.567348338908     1.007825032070
           H         -0.773612713871     1.009811479760     0.723895661092     1.007825032070
           C         -3.101613713871     0.149678479760    -0.566745338908    12.000000000000
           H         -1.576149713871     0.135793479760    -2.083192338908     1.007825032070
           H         -1.264307713871    -0.940718520240    -0.749779338908     1.007825032070
           C         -3.993958713871    -0.921474520240    -1.196414338908    12.000000000000
           H         -3.486854713871     1.134561479760    -0.825259338908     1.007825032070
           H         -3.162551713871     0.074697479760     0.517857661092     1.007825032070
           C         -5.455241713871    -0.812562520240    -0.762259338908    12.000000000000
           H         -3.933462713871    -0.848618520240    -2.280238338908     1.007825032070
           H         -3.613007713871    -1.906663520240    -0.935532338908     1.007825032070
           H         -6.062068713871    -1.584812520240    -1.224858338908     1.007825032070
           H         -5.876141713871     0.149573479760    -1.040347338908     1.007825032070
           H         -5.553038713871    -0.916018520240     0.314776661092     1.007825032070
           C          4.108495286129    -0.861069520240     2.010526661092    12.000000000000
           H          4.872247286129    -0.141078520240     1.754011661092     1.007825032070
           H          4.539932286129    -1.845127520240     2.107989661092     1.007825032070
           H          3.638197286129    -0.564959520240     2.937173661092     1.007825032070

  Charge       = 0
  Multiplicity = 1
  Basis Set: 6-31G*
  Basis Set:

    Orbital Energies (a.u.)
    -----------------------

    Doubly Occupied:

       1A    -20.604093     2A    -20.546097     3A    -11.372468
       4A    -11.281066     5A    -11.233325     6A    -11.215534
       7A    -11.215198     8A    -11.215024     9A    -11.214505
      10A    -11.213430    11A    -11.208430    12A     -1.469795
      13A     -1.363577    14A     -1.096971    15A     -1.066003
      16A     -1.018300    17A     -0.976951    18A     -0.927298
      19A     -0.861163    20A     -0.800044    21A     -0.790188
      22A     -0.762276    23A     -0.701514    24A     -0.682162
      25A     -0.672501    26A     -0.652894    27A     -0.622494
      28A     -0.610783    29A     -0.590579    30A     -0.580411
      31A     -0.564790    32A     -0.549950    33A     -0.535609
      34A     -0.526537    35A     -0.516997    36A     -0.503642
      37A     -0.500278    38A     -0.474399    39A     -0.468915
      40A     -0.460012    41A     -0.457480    42A     -0.457099
      43A     -0.440041    44A     -0.436460

  @DF-RHF Final Energy:  -501.03983021131342

   => Energetics <=

    Nuclear Repulsion Energy =            615.9350258701898611
    One-Electron Energy =               -1903.0348537622730873
    Two-Electron Energy =                 786.0599976807693565
    DFT Exchange-Correlation Energy =       0.0000000000000000
    Empirical Dispersion Energy =           0.0000000000000000
    PCM Polarization Energy =               0.0000000000000000
    EFP Energy =                            0.0000000000000000
    Total Energy =                       -501.0398302113139835

  Mulliken Charges: (a.u.)
   Center  Symbol    Alpha    Beta     Spin     Total
       1     O     4.28503  4.28503  0.00000 -0.57007
       2     C     2.61041  2.61041  0.00000  0.77917
       3     C     3.21048  3.21048  0.00000 -0.42095
       4     O     4.30602  4.30602  0.00000 -0.61203
       5     C     3.16492  3.16492  0.00000 -0.32985
       6     H     0.39712  0.39712  0.00000  0.20575
       7     H     0.39784  0.39784  0.00000  0.20432
       8     C     3.15699  3.15699  0.00000 -0.31398
       9     H     0.41980  0.41980  0.00000  0.16040
      10     H     0.39313  0.39313  0.00000  0.21374
      11     C     3.15430  3.15430  0.00000 -0.30861
      12     H     0.41932  0.41932  0.00000  0.16136
      13     H     0.42008  0.42008  0.00000  0.15984
      14     C     3.15021  3.15021  0.00000 -0.30043
      15     H     0.42377  0.42377  0.00000  0.15246
      16     H     0.42474  0.42474  0.00000  0.15051
      17     C     3.15140  3.15140  0.00000 -0.30279
      18     H     0.42320  0.42320  0.00000  0.15361
      19     H     0.42361  0.42361  0.00000  0.15277
      20     C     3.23931  3.23931  0.00000 -0.47863
      21     H     0.42314  0.42314  0.00000  0.15372
      22     H     0.42357  0.42357  0.00000  0.15286
      23     H     0.41944  0.41944  0.00000  0.16111
      24     H     0.42158  0.42158  0.00000  0.15683
      25     H     0.42169  0.42169  0.00000  0.15662
      26     C     3.09228  3.09228  0.00000 -0.18456
      27     H     0.40900  0.40900  0.00000  0.18200
      28     H     0.40846  0.40846  0.00000  0.18307
      29     H     0.40914  0.40914  0.00000  0.18173

   Total alpha = 44.00000, Total beta = 44.00000, Total charge =  0.00000
