  ==> Input File <==

--------------------------------------------------------------------------
set {
	reference rhf
	basis 6-31G*
}

set_num_threads( 4 )
memory 2 gb

molecule MOL {
0 1

H	 -4.075394	 0.946172	 -0.443367
O	 -3.358756	 0.374771	 -0.679662
C	 -2.306886	 0.532354	 0.237577
C	 -1.177863	 -0.397191	 -0.171080
H	 -1.956590	 1.563636	 0.245292
H	 -2.639601	 0.293494	 1.246828
C	 0.198102	 0.111031	 0.262842
H	 -1.208843	 -0.518759	 -1.250427
H	 -1.368741	 -1.376554	 0.258909
C	 1.331804	 -0.827780	 -0.158768
H	 0.361943	 1.100838	 -0.156218
H	 0.217265	 0.229072	 1.345532
C	 2.723619	 -0.410569	 0.329459
H	 1.342964	 -0.912588	 -1.244120
H	 1.116806	 -1.824343	 0.220779
C	 3.243875	 0.895854	 -0.272975
H	 3.424222	 -1.207124	 0.091250
H	 2.714788	 -0.329854	 1.414619
H	 3.251977	 0.848779	 -1.358681
H	 2.637085	 1.747371	 0.016682
H	 4.259473	 1.094070	 0.055697

	symmetry c1
}
set optking {
	frozen_dihedral = ("
		2 3 4 8
	")
}

ee = optimize('scf')
oeprop('DIPOLE', 'QUADRUPOLE', 'MULLIKEN_CHARGES')
f=open( 'psi4out.xyz', 'w' )
f.write( "21  " )
f.write( str(ee) + "\n" )
f.write( MOL.save_string_xyz() )
f.close()
--------------------------------------------------------------------------

    Molecular point group: c1
  Charge       = 0
  Multiplicity = 1
  Basis Set: 6-31G*
  Basis Set:
  @DF-RHF Final Energy:  -310.21008141114265
    Total Energy =                       -310.2100814111428235
    Molecular point group: c1
  Basis Set: 6-31G*
  Basis Set:
  Basis Set: 6-31G*
  Basis Set:
  @DF-RHF Final Energy:  -310.21030997971081
    Total Energy =                       -310.2103099797105301
  Basis Set: 6-31G*
  Basis Set:
  Basis Set: 6-31G*
  Basis Set:
  @DF-RHF Final Energy:  -310.21037270195501
    Total Energy =                       -310.2103727019548955
  Basis Set: 6-31G*
  Basis Set:
  Basis Set: 6-31G*
  Basis Set:
  @DF-RHF Final Energy:  -310.21037579062977
    Total Energy =                       -310.2103757906299961
  Basis Set: 6-31G*
  Basis Set:
  Basis Set: 6-31G*
  Basis Set:
  @DF-RHF Final Energy:  -310.21038077771038
    Total Energy =                       -310.2103807777101565
  Basis Set: 6-31G*
  Basis Set:
  Charge       = 0
  Multiplicity = 1
  Basis Set: 6-31G*
  Basis Set:

    Orbital Energies (a.u.)
    -----------------------

    Doubly Occupied:

       1A    -20.551752     2A    -11.267186     3A    -11.215439
       4A    -11.214959     5A    -11.213242     6A    -11.210412
       7A    -11.207746     8A     -1.358260     9A     -1.085624
      10A     -1.032169    11A     -0.953808    12A     -0.875749
      13A     -0.807610    14A     -0.778965    15A     -0.696012
      16A     -0.654723    17A     -0.619994    18A     -0.608874
      19A     -0.588225    20A     -0.565477    21A     -0.539027
      22A     -0.519895    23A     -0.508640    24A     -0.490030
      25A     -0.478035    26A     -0.459785    27A     -0.455840
      28A     -0.443187    29A     -0.431276

  @DF-RHF Final Energy:  -310.21038134770708

   => Energetics <=

    Nuclear Repulsion Energy =            312.4453744653595777
    One-Electron Energy =               -1039.6476347074390105
    Two-Electron Energy =                 416.9918788943726327
    DFT Exchange-Correlation Energy =       0.0000000000000000
    Empirical Dispersion Energy =           0.0000000000000000
    PCM Polarization Energy =               0.0000000000000000
    EFP Energy =                            0.0000000000000000
    Total Energy =                       -310.2103813477068002
    Molecular point group: c1
  Basis Set: 6-31G*
  Basis Set:

  -Total Gradient:
     Atom            X                  Y                   Z
    ------   -----------------  -----------------  -----------------
       1       -0.000063295498     0.000000224007    -0.000047167107
       2        0.001262163735     0.002600487690    -0.001745763353
       3       -0.002005060779    -0.004148015089     0.002477709809
       4        0.003500977888     0.005039120342    -0.000987353183
       5       -0.000047762779    -0.000007157942     0.000005115594
       6       -0.000086085080    -0.000005124567    -0.000020111898
       7       -0.000089015879    -0.000029988647    -0.000078749288
       8       -0.002514350541    -0.003487670918     0.000336675740
       9       -0.000034636579     0.000037975739     0.000070546198
      10        0.000039065177     0.000035995181    -0.000027833154
      11       -0.000007300509    -0.000038026890    -0.000003816797
      12       -0.000017954165    -0.000002323643    -0.000004671700
      13       -0.000002098873     0.000010901580     0.000028105959
      14       -0.000001902705     0.000005765286     0.000008325894
      15        0.000006352897     0.000005116383    -0.000001505849
      16        0.000018345917    -0.000005387195    -0.000005056240
      17        0.000013223559     0.000004802198     0.000003768993
      18       -0.000006201893     0.000000304710     0.000001936996
      19       -0.000006032548     0.000005323611    -0.000009288538
      20        0.000040129347    -0.000014497378     0.000006426207
      21        0.000001439315    -0.000007824457    -0.000007294282

  **** Optimization is complete! (in 6 steps) ****
    Final optimized geometry and variables:
    Molecular point group: c1

    Geometry (in Angstrom), charge = 0, multiplicity = 1:

    H           -4.151769561526     0.811764457775    -0.287316906179
    O           -3.406513423817     0.310588090762    -0.586595791163
    C           -2.341431233267     0.462701674475     0.317460774072
    C           -1.194712764728    -0.436625937298    -0.131405653304
    H           -2.014588623375     1.501875294631     0.330166092456
    H           -2.650706290509     0.209322354956     1.329589465602
    C            0.178337142190     0.059006656238     0.321109282019
    H           -1.246110286076    -0.525757536033    -1.212212082881
    H           -1.365884804325    -1.440659934524     0.250212277463
    C            1.310289516201    -0.892794155437    -0.073850946811
    H            0.354849468645     1.044204022034    -0.102250801501
    H            0.180651555262     0.185565321335     1.403616401643
    C            2.699871775900    -0.476771643687     0.422064049808
    H            1.331442665570    -0.994198560879    -1.157666352094
    H            1.085805935380    -1.882302751532     0.318578570423
    C            3.237828898475     0.813287666579    -0.199799732554
    H            3.396705153439    -1.283265310832     0.207368798728
    H            2.679530867776    -0.374907981560     1.505336938933
    H            3.255643580212     0.745598905909    -1.284262974197
    H            2.636404864587     1.675670058379     0.067860009078
    H            4.252119041516     1.008280214032     0.134829215665

  Mulliken Charges: (a.u.)
   Center  Symbol    Alpha    Beta     Spin     Total
       1     H     0.28154  0.28154  0.00000  0.43692
       2     O     4.37175  4.37175  0.00000 -0.74350
       3     C     2.99108  2.99108  0.00000  0.01783
       4     C     3.16260  3.16260  0.00000 -0.32520
       5     H     0.43216  0.43216  0.00000  0.13568
       6     H     0.43135  0.43135  0.00000  0.13729
       7     C     3.16151  3.16151  0.00000 -0.32302
       8     H     0.40806  0.40806  0.00000  0.18389
       9     H     0.41911  0.41911  0.00000  0.16179
      10     C     3.15242  3.15242  0.00000 -0.30485
      11     H     0.41948  0.41948  0.00000  0.16104
      12     H     0.42519  0.42519  0.00000  0.14962
      13     C     3.15248  3.15248  0.00000 -0.30495
      14     H     0.42244  0.42244  0.00000  0.15512
      15     H     0.42162  0.42162  0.00000  0.15676
      16     C     3.24111  3.24111  0.00000 -0.48221
      17     H     0.42073  0.42073  0.00000  0.15854
      18     H     0.42379  0.42379  0.00000  0.15241
      19     H     0.42170  0.42170  0.00000  0.15659
      20     H     0.42050  0.42050  0.00000  0.15901
      21     H     0.41939  0.41939  0.00000  0.16123

   Total alpha = 29.00000, Total beta = 29.00000, Total charge =  0.00000
