                              Psi4 1.0.54 Driver

  ==> Input File <==

--------------------------------------------------------------------------
set {
	reference rhf
	basis cc-pvtz
}

set_num_threads( 4 )
memory 2 gb

molecule MOL {
0 1

O	 -1.627493	 -0.686410	 -0.523475
C	 -1.081510	 0.147522	 0.122720
C	 0.327029	 -0.064006	 0.641890
C	 -1.762721	 1.447972	 0.476345
C	 1.349460	 -0.017068	 -0.500215
H	 0.399029	 -1.014606	 1.159950
H	 0.538021	 0.726928	 1.350471
C	 2.779782	 -0.209014	 -0.009215
H	 1.115007	 -0.782959	 -1.233891
H	 1.259071	 0.936707	 -1.006644
H	 3.481860	 -0.160270	 -0.833072
H	 2.903471	 -1.171535	 0.475559
H	 3.052569	 0.559584	 0.705428
H	 -1.686616	 1.642896	 1.540285
H	 -2.799577	 1.417502	 0.178858
H	 -1.262460	 2.263884	 -0.035396

	symmetry c1
}
set optking {
	frozen_dihedral = ("
		4 2 3 5
	")
}

ee,wfn = optimize('scf', return_wfn=True)
oeprop( wfn, 'DIPOLE', 'QUADRUPOLE', 'MULLIKEN_CHARGES')
f=open( 'psi4out.xyz', 'w' )
f.write( "16  " )
f.write( str(ee) + "\n" )
f.write( MOL.save_string_xyz() )
f.close()
--------------------------------------------------------------------------

    Molecular point group: c1
  Charge       = 0
  Multiplicity = 1
  Basis Set: CC-PVTZ
  Basis Set:
  @DF-RHF Final Energy:  -270.12832665478868
    Total Energy =                       -270.1283266547885660
    Molecular point group: c1
  Basis Set: CC-PVTZ
  Basis Set:
  Basis Set: CC-PVTZ
  Basis Set:
  @DF-RHF Final Energy:  -270.12553381694300
    Total Energy =                       -270.1255338169427205
  Basis Set: CC-PVTZ
  Basis Set:
  Basis Set: CC-PVTZ
  Basis Set:
  @DF-RHF Final Energy:  -270.12903033106454
    Total Energy =                       -270.1290303310646550
  Basis Set: CC-PVTZ
  Basis Set:
  Basis Set: CC-PVTZ
  Basis Set:
  @DF-RHF Final Energy:  -270.12847667070196
    Total Energy =                       -270.1284766707017866
  Basis Set: CC-PVTZ
  Basis Set:
  Basis Set: CC-PVTZ
  Basis Set:
  @DF-RHF Final Energy:  -270.12931632093648
    Total Energy =                       -270.1293163209363684
  Basis Set: CC-PVTZ
  Basis Set:
  Basis Set: CC-PVTZ
  Basis Set:
  @DF-RHF Final Energy:  -270.12933269252676
    Total Energy =                       -270.1293326925267024
  Basis Set: CC-PVTZ
  Basis Set:
  Basis Set: CC-PVTZ
  Basis Set:
  @DF-RHF Final Energy:  -270.12928503724720
    Total Energy =                       -270.1292850372474277
  Basis Set: CC-PVTZ
  Basis Set:
  Charge       = 0
  Multiplicity = 1
  Basis Set: CC-PVTZ
  Basis Set:

    Orbital Energies (a.u.)
    -----------------------

    Doubly Occupied:

       1A    -20.537342     2A    -11.320260     3A    -11.228857
       4A    -11.228247     5A    -11.227676     6A    -11.215995
       7A     -1.397865     8A     -1.081868     9A     -1.015260
      10A     -0.949772    11A     -0.827803    12A     -0.736048
      13A     -0.660672    14A     -0.650833    15A     -0.615382
      16A     -0.607325    17A     -0.575245    18A     -0.561028
      19A     -0.541364    20A     -0.516348    21A     -0.501998
      22A     -0.483629    23A     -0.473706    24A     -0.400657

  @DF-RHF Final Energy:  -270.12935618885444

   => Energetics <=

    Nuclear Repulsion Energy =            237.4472074793610545
    One-Electron Energy =                -836.4427757746972247
    Two-Electron Energy =                 328.8662121064818393
    DFT Exchange-Correlation Energy =       0.0000000000000000
    Empirical Dispersion Energy =           0.0000000000000000
    PCM Polarization Energy =               0.0000000000000000
    EFP Energy =                            0.0000000000000000
    Total Energy =                       -270.1293561888543309
    Molecular point group: c1
  Basis Set: CC-PVTZ
  Basis Set:

  -Total Gradient:
     Atom            X                  Y                   Z
    ------   -----------------  -----------------  -----------------
       1       -0.000019440237     0.000067484638    -0.000001214616
       2       -0.000106469181    -0.000149801821    -0.000242209373
       3        0.000114541176     0.000249180175    -0.000011119940
       4       -0.000074868807     0.000016879071     0.000203307434
       5       -0.000075233152    -0.000068403956     0.000040530558
       6       -0.000054360908    -0.000040498704     0.000047468137
       7        0.000036133985     0.000046535925     0.000017765989
       8       -0.000013729960     0.000020120326     0.000014623510
       9        0.000024123430     0.000029821868     0.000024691719
      10        0.000061203759    -0.000059855222     0.000024896941
      11        0.000003325248    -0.000003711635    -0.000010751990
      12       -0.000037910656     0.000047567941    -0.000037248601
      13       -0.000028046236    -0.000031044661    -0.000019199361
      14        0.000077945253    -0.000023616147    -0.000096426412
      15        0.000125608932    -0.000020558018    -0.000004610048
      16       -0.000032822646    -0.000080099781     0.000049496053

  **** Optimization is complete! (in 8 steps) ****
    Final optimized geometry and variables:
    Molecular point group: c1

    Geometry (in Angstrom), charge = 0, multiplicity = 1:

    O           -1.624713263710    -0.894887338411    -0.346728939236
    C           -1.084633624508     0.050101847763     0.128830139931
    C            0.349804715681    -0.037318724715     0.617685785769
    C           -1.783365979261     1.380817590331     0.261103645953
    C            1.328286349752    -0.189303212187    -0.551344154543
    H            0.418781933073    -0.906229505503     1.262397560968
    H            0.605805906059     0.836473097248     1.206681399647
    C            2.774982497301    -0.315690936297    -0.088661093821
    H            1.045260560814    -1.061614260204    -1.126887022058
    H            1.235751971539     0.665449883517    -1.215611966970
    H            3.443890444280    -0.423579498473    -0.934238064299
    H            2.905122433562    -1.182411570363     0.550022301422
    H            3.087845293800     0.558856054522     0.471789747358
    H           -1.871003337292     1.641016841587     1.310822977780
    H           -2.763858371552     1.334185241536    -0.186779485383
    H           -1.195422394235     2.159879045056    -0.212478336878

  Mulliken Charges: (a.u.)
   Center  Symbol    Alpha    Beta     Spin     Total
       1     O     4.17707  4.17707  0.00000 -0.35413
       2     C     2.85761  2.85761  0.00000  0.28478
       3     C     3.09990  3.09990  0.00000 -0.19979
       4     C     3.15398  3.15398  0.00000 -0.30797
       5     C     3.08829  3.08829  0.00000 -0.17658
       6     H     0.44106  0.44106  0.00000  0.11787
       7     H     0.44941  0.44941  0.00000  0.10118
       8     C     3.14917  3.14917  0.00000 -0.29833
       9     H     0.43973  0.43973  0.00000  0.12053
      10     H     0.45373  0.45373  0.00000  0.09254
      11     H     0.44624  0.44624  0.00000  0.10752
      12     H     0.45259  0.45259  0.00000  0.09482
      13     H     0.45551  0.45551  0.00000  0.08897
      14     H     0.44870  0.44870  0.00000  0.10260
      15     H     0.43632  0.43632  0.00000  0.12735
      16     H     0.45069  0.45069  0.00000  0.09863

   Total alpha = 24.00000, Total beta = 24.00000, Total charge = -0.00000

*** Psi4 exiting successfully. Buy a developer a beer!
