  ==> Input File <==

--------------------------------------------------------------------------
set {
	reference rhf
	basis 6-31G*
}

set_num_threads( 1 )
memory 2 gb

molecule MOL {
0 1

O	 0.714334	 -1.000082	 -1.782940
C	 1.248301	 -1.079404	 -0.723861
C	 1.245376	 -0.013843	 0.345420
O	 1.935420	 -2.146543	 -0.335645
C	 0.455112	 1.231400	 -0.050772
H	 0.857416	 -0.471298	 1.249529
H	 2.282427	 0.232475	 0.558842
C	 -0.998893	 1.219485	 0.433193
H	 0.482531	 1.345121	 -1.130325
H	 0.957290	 2.103070	 0.354729
C	 -1.883438	 0.145884	 -0.207175
H	 -1.431207	 2.195402	 0.224832
H	 -1.019646	 1.105716	 1.516076
C	 -3.347647	 0.245583	 0.225435
H	 -1.822183	 0.231698	 -1.291012
H	 -1.510341	 -0.844814	 0.042401
C	 -4.239992	 -0.825570	 -0.404234
H	 -3.732888	 1.230466	 -0.033079
H	 -3.408585	 0.170602	 1.310038
C	 -5.701275	 -0.716658	 0.029921
H	 -4.179496	 -0.752714	 -1.488058
H	 -3.859041	 -1.810759	 -0.143352
H	 -6.308102	 -1.488908	 -0.432678
H	 -6.122175	 0.245478	 -0.248167
H	 -5.799072	 -0.820114	 1.106957
C	 2.019006	 -3.224481	 -1.249946
H	 1.034278	 -3.605503	 -1.479374
H	 2.608367	 -3.983064	 -0.758813
H	 2.500309	 -2.910409	 -2.164955

	symmetry c1
}
set optking {
	frozen_dihedral = ("
		21 17 14 11,
		17 14 11 15,
		15 11 8 5,
		11 8 5 9,
		2 4 26 27,
		1 2 4 26,
		6 3 2 1
	")
}

ee = energy('scf')
oeprop('DIPOLE', 'QUADRUPOLE', 'MULLIKEN_CHARGES')
f=open( 'psi4out.xyz', 'w' )
f.write( "29  " )
f.write( str(ee) + "\n" )
f.write( MOL.save_string_xyz() )
f.close()
--------------------------------------------------------------------------

    Molecular point group: c1

    Geometry (in Angstrom), charge = 0, multiplicity = 1:

       Center              X                  Y                   Z               Mass
    ------------   -----------------  -----------------  -----------------  -----------------
           O          1.477953739912    -0.402917349893    -1.429187119821    15.994914619560
           C          2.011920739912    -0.482239349893    -0.370108119821    12.000000000000
           C          2.008995739912     0.583321650107     0.699172880179    12.000000000000
           O          2.699039739912    -1.549378349893     0.018107880179    15.994914619560
           C          1.218731739912     1.828564650107     0.302980880179    12.000000000000
           H          1.621035739912     0.125866650107     1.603281880179     1.007825032070
           H          3.046046739912     0.829639650107     0.912594880179     1.007825032070
           C         -0.235273260088     1.816649650107     0.786945880179    12.000000000000
           H          1.246150739912     1.942285650107    -0.776572119821     1.007825032070
           H          1.720909739912     2.700234650107     0.708481880179     1.007825032070
           C         -1.119818260088     0.743048650107     0.146577880179    12.000000000000
           H         -0.667587260088     2.792566650107     0.578584880179     1.007825032070
           H         -0.256026260088     1.702880650107     1.869828880179     1.007825032070
           C         -2.584027260088     0.842747650107     0.579187880179    12.000000000000
           H         -1.058563260088     0.828862650107    -0.937259119821     1.007825032070
           H         -0.746721260088    -0.247649349893     0.396153880179     1.007825032070
           C         -3.476372260088    -0.228405349893    -0.050481119821    12.000000000000
           H         -2.969268260088     1.827630650107     0.320673880179     1.007825032070
           H         -2.644965260088     0.767766650107     1.663790880179     1.007825032070
           C         -4.937655260088    -0.119493349893     0.383673880179    12.000000000000
           H         -3.415876260088    -0.155549349893    -1.134305119821     1.007825032070
           H         -3.095421260088    -1.213594349893     0.210400880179     1.007825032070
           H         -5.544482260088    -0.891743349893    -0.078925119821     1.007825032070
           H         -5.358555260088     0.842642650107     0.105585880179     1.007825032070
           H         -5.035452260088    -0.222949349893     1.460709880179     1.007825032070
           C          2.782625739912    -2.627316349893    -0.896193119821    12.000000000000
           H          1.797897739912    -3.008338349893    -1.125621119821     1.007825032070
           H          3.371986739912    -3.385899349893    -0.405060119821     1.007825032070
           H          3.263928739912    -2.313244349893    -1.811202119821     1.007825032070

  Charge       = 0
  Multiplicity = 1
  Basis Set: 6-31G*
  Basis Set:

    Orbital Energies (a.u.)
    -----------------------

    Doubly Occupied:

       1A    -20.604523     2A    -20.546402     3A    -11.372681
       4A    -11.281414     5A    -11.234629     6A    -11.217124
       7A    -11.213247     8A    -11.210193     9A    -11.208094
      10A    -11.206134    11A    -11.204831    12A     -1.470289
      13A     -1.364038    14A     -1.094191    15A     -1.063262
      16A     -1.015819    17A     -0.975666    18A     -0.925612
      19A     -0.858945    20A     -0.797387    21A     -0.784201
      22A     -0.762123    23A     -0.702797    24A     -0.682676
      25A     -0.673510    26A     -0.645661    27A     -0.620922
      28A     -0.608587    29A     -0.589767    30A     -0.576960
      31A     -0.563477    32A     -0.545543    33A     -0.534454
      34A     -0.527925    35A     -0.516042    36A     -0.501357
      37A     -0.496338    38A     -0.474468    39A     -0.466462
      40A     -0.459377    41A     -0.455643    42A     -0.450399
      43A     -0.439889    44A     -0.430932

  @DF-RHF Final Energy:  -501.04107411432403

   => Energetics <=

    Nuclear Repulsion Energy =            636.0663492309466847
    One-Electron Energy =               -1943.4672429331099011
    Two-Electron Energy =                 806.3598195878392971
    DFT Exchange-Correlation Energy =       0.0000000000000000
    Empirical Dispersion Energy =           0.0000000000000000
    PCM Polarization Energy =               0.0000000000000000
    EFP Energy =                            0.0000000000000000
    Total Energy =                       -501.0410741143238056

  Mulliken Charges: (a.u.)
   Center  Symbol    Alpha    Beta     Spin     Total
       1     O     4.28603  4.28603  0.00000 -0.57205
       2     C     2.60764  2.60764  0.00000  0.78472
       3     C     3.20866  3.20866  0.00000 -0.41732
       4     O     4.30658  4.30658  0.00000 -0.61317
       5     C     3.16124  3.16124  0.00000 -0.32247
       6     H     0.39873  0.39873  0.00000  0.20255
       7     H     0.39744  0.39744  0.00000  0.20513
       8     C     3.15581  3.15581  0.00000 -0.31162
       9     H     0.40049  0.40049  0.00000  0.19901
      10     H     0.41805  0.41805  0.00000  0.16389
      11     C     3.15199  3.15199  0.00000 -0.30398
      12     H     0.42091  0.42091  0.00000  0.15818
      13     H     0.42569  0.42569  0.00000  0.14861
      14     C     3.15093  3.15093  0.00000 -0.30186
      15     H     0.41173  0.41173  0.00000  0.17654
      16     H     0.42752  0.42752  0.00000  0.14495
      17     C     3.15081  3.15081  0.00000 -0.30162
      18     H     0.42481  0.42481  0.00000  0.15039
      19     H     0.42657  0.42657  0.00000  0.14685
      20     C     3.23911  3.23911  0.00000 -0.47823
      21     H     0.42144  0.42144  0.00000  0.15712
      22     H     0.42394  0.42394  0.00000  0.15211
      23     H     0.41996  0.41996  0.00000  0.16007
      24     H     0.42216  0.42216  0.00000  0.15568
      25     H     0.42276  0.42276  0.00000  0.15448
      26     C     3.09246  3.09246  0.00000 -0.18492
      27     H     0.40912  0.40912  0.00000  0.18176
      28     H     0.40837  0.40837  0.00000  0.18326
      29     H     0.40904  0.40904  0.00000  0.18192

   Total alpha = 44.00000, Total beta = 44.00000, Total charge = -0.00000
