  ==> Input File <==

--------------------------------------------------------------------------
set {
	reference rhf
	basis 6-31G*
}

set_num_threads( 1 )
memory 2 gb

molecule MOL {
0 1

O	 0.749854	 1.307668	 -0.000040
C	 0.576249	 0.131685	 -0.000108
C	 -0.766779	 -0.556801	 -0.000461
O	 1.568443	 -0.749345	 -0.000005
C	 -1.945214	 0.412366	 0.000161
H	 -0.796911	 -1.211249	 -0.867467
H	 -0.796854	 -1.212390	 0.865687
C	 -3.287791	 -0.317055	 0.000105
H	 -1.876087	 1.060580	 -0.866812
H	 -1.875822	 1.059691	 0.867761
H	 -3.394745	 -0.949193	 -0.877058
H	 -4.111778	 0.388953	 0.000015
H	 -3.394954	 -0.949187	 0.877259
C	 1.261656	 -2.062707	 0.431470
H	 0.906673	 -2.054173	 1.451987
H	 2.183126	 -2.619258	 0.360688
H	 0.507323	 -2.504828	 -0.203369

	symmetry c1
}
set optking {
	frozen_dihedral = ("
		1 2 3 6,
		9 5 3 6
	")
}

ee = energy('scf')
oeprop('DIPOLE', 'QUADRUPOLE', 'MULLIKEN_CHARGES')
f=open( 'psi4out.xyz', 'w' )
f.write( "17  " )
f.write( str(ee) + "\n" )
f.write( MOL.save_string_xyz() )
f.close()
--------------------------------------------------------------------------

    Molecular point group: c1

    Geometry (in Angstrom), charge = 0, multiplicity = 1:

       Center              X                  Y                   Z               Mass
    ------------   -----------------  -----------------  -----------------  -----------------
           O          1.000770852901     1.590236504229    -0.066608934351    15.994914619560
           C          0.827165852901     0.414253504229    -0.066676934351    12.000000000000
           C         -0.515862147099    -0.274232495771    -0.067029934351    12.000000000000
           O          1.819359852901    -0.466776495771    -0.066573934351    15.994914619560
           C         -1.694297147099     0.694934504229    -0.066407934351    12.000000000000
           H         -0.545994147099    -0.928680495771    -0.934035934351     1.007825032070
           H         -0.545937147099    -0.929821495771     0.799118065649     1.007825032070
           C         -3.036874147099    -0.034486495771    -0.066463934351    12.000000000000
           H         -1.625170147099     1.343148504229    -0.933380934351     1.007825032070
           H         -1.624905147099     1.342259504229     0.801192065649     1.007825032070
           H         -3.143828147099    -0.666624495771    -0.943626934351     1.007825032070
           H         -3.860861147099     0.671521504229    -0.066553934351     1.007825032070
           H         -3.144037147099    -0.666618495771     0.810690065649     1.007825032070
           C          1.512572852901    -1.780138495771     0.364901065649    12.000000000000
           H          1.157589852901    -1.771604495771     1.385418065649     1.007825032070
           H          2.434042852901    -2.336689495771     0.294119065649     1.007825032070
           H          0.758239852901    -2.222259495771    -0.269937934351     1.007825032070

  Charge       = 0
  Multiplicity = 1
  Basis Set: 6-31G*
  Basis Set:

    Orbital Energies (a.u.)
    -----------------------

    Doubly Occupied:

       1A    -20.606462     2A    -20.545221     3A    -11.375202
       4A    -11.297883     5A    -11.242778     6A    -11.225942
       7A    -11.218997     8A     -1.468542     9A     -1.369671
      10A     -1.084359    11A     -0.989697    12A     -0.977511
      13A     -0.844194    14A     -0.763539    15A     -0.706883
      16A     -0.697751    17A     -0.678044    18A     -0.638695
      19A     -0.605758    20A     -0.579987    21A     -0.570432
      22A     -0.553160    23A     -0.534117    24A     -0.499123
      25A     -0.490811    26A     -0.484587    27A     -0.451796
      28A     -0.430593

  @DF-RHF Final Energy:  -344.88055682121899

   => Energetics <=

    Nuclear Repulsion Energy =            317.3664314790254366
    One-Electron Energy =               -1098.6305695035316603
    Two-Electron Energy =                 436.3835812032884860
    DFT Exchange-Correlation Energy =       0.0000000000000000
    Empirical Dispersion Energy =           0.0000000000000000
    PCM Polarization Energy =               0.0000000000000000
    EFP Energy =                            0.0000000000000000
    Total Energy =                       -344.8805568212177377

  Mulliken Charges: (a.u.)
   Center  Symbol    Alpha    Beta     Spin     Total
       1     O     4.27164  4.27164  0.00000 -0.54327
       2     C     2.59047  2.59047  0.00000  0.81905
       3     C     3.24441  3.24441  0.00000 -0.48882
       4     O     4.30046  4.30046  0.00000 -0.60092
       5     C     3.14754  3.14754  0.00000 -0.29507
       6     H     0.39949  0.39949  0.00000  0.20102
       7     H     0.40335  0.40335  0.00000  0.19330
       8     C     3.24285  3.24285  0.00000 -0.48570
       9     H     0.40856  0.40856  0.00000  0.18288
      10     H     0.40953  0.40953  0.00000  0.18095
      11     H     0.42211  0.42211  0.00000  0.15579
      12     H     0.41367  0.41367  0.00000  0.17266
      13     H     0.42280  0.42280  0.00000  0.15441
      14     C     3.10341  3.10341  0.00000 -0.20683
      15     H     0.41106  0.41106  0.00000  0.17787
      16     H     0.39564  0.39564  0.00000  0.20872
      17     H     0.41302  0.41302  0.00000  0.17395

   Total alpha = 28.00000, Total beta = 28.00000, Total charge =  0.00000
