  ==> Input File <==

--------------------------------------------------------------------------
set {
	reference rhf
	basis cc-pvtz
}

set_num_threads( 4 )
memory 2 gb

molecule MOL {
0 1

H	 2.230918	 -0.934777	 -2.142358
C	 1.507491	 -1.132948	 -1.362190
C	 1.322304	 0.099773	 -0.484271
H	 0.577028	 -1.421349	 -1.838040
H	 1.865257	 -1.977952	 -0.784857
C	 0.308557	 -0.162619	 0.622645
H	 0.980755	 0.935562	 -1.082212
H	 2.266383	 0.383251	 -0.035614
N	 -1.069352	 -0.004081	 0.085342
H	 0.371632	 -1.172932	 0.991288
H	 0.400391	 0.548875	 1.426218
O	 -1.584901	 -0.965470	 -0.377818
O	 -1.548033	 1.079343	 0.130056

	symmetry c1
}
set optking {
	frozen_dihedral = ("
		7 3 6 9
	")
}

ee = optimize('scf')
oeprop('DIPOLE', 'QUADRUPOLE', 'MULLIKEN_CHARGES')
f=open( 'psi4out.xyz', 'w' )
f.write( "13  " )
f.write( str(ee) + "\n" )
f.write( MOL.save_string_xyz() )
f.close()
--------------------------------------------------------------------------

    Molecular point group: c1
  Charge       = 0
  Multiplicity = 1
  Basis Set: CC-PVTZ
  Basis Set:
  @DF-RHF Final Energy:  -321.85889522927039
    Total Energy =                       -321.8588952292700469
    Molecular point group: c1
  Basis Set: CC-PVTZ
  Basis Set:
  Basis Set: CC-PVTZ
  Basis Set:
  @DF-RHF Final Energy:  -321.85913979171414
    Total Energy =                       -321.8591397917144263
  Basis Set: CC-PVTZ
  Basis Set:
  Basis Set: CC-PVTZ
  Basis Set:
  @DF-RHF Final Energy:  -321.84869455253681
    Total Energy =                       -321.8486945525366991
  Basis Set: CC-PVTZ
  Basis Set:
  Basis Set: CC-PVTZ
  Basis Set:
  @DF-RHF Final Energy:  -321.85895835115150
    Total Energy =                       -321.8589583511513865
  Basis Set: CC-PVTZ
  Basis Set:
  @DF-RHF Final Energy:  -321.85956842875623
    Total Energy =                       -321.8595684287562335
  @DF-RHF Final Energy:  -321.85961120105935
    Total Energy =                       -321.8596112010598063
  @DF-RHF Final Energy:  -321.85966903465749
    Total Energy =                       -321.8596690346573723
  @DF-RHF Final Energy:  -321.85971851389468
    Total Energy =                       -321.8597185138945065
  Basis Set: CC-PVTZ
  Basis Set:
  @DF-RHF Final Energy:  -321.85972791291886
    Total Energy =                       -321.8597279129189701
  Basis Set: CC-PVTZ
  Basis Set:
  Basis Set: CC-PVTZ
  Basis Set:
  @DF-RHF Final Energy:  -321.85973347771665
    Total Energy =                       -321.8597334777167021
  Basis Set: CC-PVTZ
  Basis Set:
  Basis Set: CC-PVTZ
  Basis Set:
  @DF-RHF Final Energy:  -321.85974205840205
    Total Energy =                       -321.8597420584018778
  Basis Set: CC-PVTZ
  Basis Set:
  Charge       = 0
  Multiplicity = 1
  Basis Set: CC-PVTZ
  Basis Set:

    Orbital Energies (a.u.)
    -----------------------

    Doubly Occupied:

       1A    -20.592978     2A    -20.589284     3A    -15.837529
       4A    -11.297754     5A    -11.252623     6A    -11.229946
       7A     -1.636651     8A     -1.420861     9A     -1.132138
      10A     -1.022689    11A     -0.890987    12A     -0.826791
      13A     -0.763223    14A     -0.740628    15A     -0.728707
      16A     -0.643587    17A     -0.628184    18A     -0.596460
      19A     -0.530462    20A     -0.518495    21A     -0.514711
      22A     -0.487286    23A     -0.475303    24A     -0.453512

  @DF-RHF Final Energy:  -321.85974273496078

   => Energetics <=

    Nuclear Repulsion Energy =            251.6849163461201329
    One-Electron Energy =                -937.4677427637199116
    Two-Electron Energy =                 363.9230836826392874
    DFT Exchange-Correlation Energy =       0.0000000000000000
    Empirical Dispersion Energy =           0.0000000000000000
    PCM Polarization Energy =               0.0000000000000000
    EFP Energy =                            0.0000000000000000
    Total Energy =                       -321.8597427349605482
    Molecular point group: c1
  Basis Set: CC-PVTZ
  Basis Set:

  -Total Gradient:
     Atom            X                  Y                   Z
    ------   -----------------  -----------------  -----------------
       1       -0.000004469562     0.000005539291     0.000005110189
       2        0.000003815995    -0.000019523263     0.000009141783
       3        0.002309670530     0.003798928422     0.003170384091
       4       -0.000004212280    -0.000003647031    -0.000004689231
       5       -0.000000924472    -0.000005759259    -0.000003649071
       6       -0.000486643972    -0.004163319371    -0.001544133383
       7       -0.001882631309    -0.002301529032    -0.002369972023
       8       -0.000009268819    -0.000001838769     0.000003067570
       9        0.000024784963     0.002542435538     0.000772149841
      10        0.000005519035    -0.000006975164     0.000001997964
      11        0.000001163705    -0.000000807194    -0.000010222006
      12        0.000052245856     0.000064546609    -0.000002942094
      13       -0.000009049673     0.000091949223    -0.000026243632

  **** Optimization is complete! (in 12 steps) ****
    Final optimized geometry and variables:
    Molecular point group: c1

    Geometry (in Angstrom), charge = 0, multiplicity = 1:

    H            2.492995973376    -0.669098414265    -1.943045437124
    C            1.766286649713    -0.919137919464    -1.180300342189
    C            1.545803670294     0.267291893518    -0.245416275763
    H            0.847674319321    -1.205603465887    -1.678650646570
    H            2.134173903617    -1.783423945901    -0.638948846025
    C            0.513369155719    -0.011086892204     0.844509025722
    H            1.218129443880     1.123445214002    -0.819117095793
    H            2.474150789018     0.533672392465     0.244010054362
    N           -0.873171167444     0.174212503630     0.326713760016
    H            0.562755717140    -1.017088573782     1.223270608687
    H            0.597928590159     0.701341855651     1.649972847188
    O           -1.559372241580    -0.787253065168     0.233977412935
    O           -1.196944903703     1.278069567978     0.039694529575

  Mulliken Charges: (a.u.)
   Center  Symbol    Alpha    Beta     Spin     Total
       1     H     0.44529  0.44529  0.00000  0.10942
       2     C     3.14389  3.14389  0.00000 -0.28779
       3     C     3.09757  3.09757  0.00000 -0.19513
       4     H     0.44625  0.44625  0.00000  0.10750
       5     H     0.45429  0.45429  0.00000  0.09143
       6     C     3.04711  3.04711  0.00000 -0.09423
       7     H     0.43566  0.43566  0.00000  0.12869
       8     H     0.44550  0.44550  0.00000  0.10900
       9     N     3.27794  3.27794  0.00000  0.44412
      10     H     0.43399  0.43399  0.00000  0.13201
      11     H     0.42828  0.42828  0.00000  0.14344
      12     O     4.16992  4.16992  0.00000 -0.33985
      13     O     4.17430  4.17430  0.00000 -0.34860

   Total alpha = 24.00000, Total beta = 24.00000, Total charge =  0.00000
