  ==> Input File <==

--------------------------------------------------------------------------
set {
	reference rhf
	basis 6-31G*
}

set_num_threads( 4 )
memory 2 gb

molecule MOL {
0 1

O	 0.749854	 1.307668	 -0.000040
C	 0.576249	 0.131685	 -0.000108
C	 -0.766779	 -0.556801	 -0.000461
O	 1.568443	 -0.749345	 -0.000005
C	 -1.945214	 0.412366	 0.000161
H	 -0.796911	 -1.211249	 -0.867467
H	 -0.796854	 -1.212390	 0.865687
C	 -3.287791	 -0.317055	 0.000105
H	 -1.876087	 1.060580	 -0.866812
H	 -1.875822	 1.059691	 0.867761
H	 -3.394745	 -0.949193	 -0.877058
H	 -4.111778	 0.388953	 0.000015
H	 -3.394954	 -0.949187	 0.877259
C	 2.194660	 -1.012176	 -1.242575
H	 1.481341	 -1.407394	 -1.951462
H	 2.961981	 -1.742295	 -1.037605
H	 2.633448	 -0.110607	 -1.645250

	symmetry c1
}
set optking {
	frozen_dihedral = ("
		14 4 2 1
	")
}

ee = optimize('scf')
oeprop('DIPOLE', 'QUADRUPOLE', 'MULLIKEN_CHARGES')
f=open( 'psi4out.xyz', 'w' )
f.write( "17  " )
f.write( str(ee) + "\n" )
f.write( MOL.save_string_xyz() )
f.close()
--------------------------------------------------------------------------

    Molecular point group: c1
  Charge       = 0
  Multiplicity = 1
  Basis Set: 6-31G*
  Basis Set:
  @DF-RHF Final Energy:  -344.88684617593407
    Total Energy =                       -344.8868461759336697
    Molecular point group: c1
  Basis Set: 6-31G*
  Basis Set:
  Basis Set: 6-31G*
  Basis Set:
  @DF-RHF Final Energy:  -344.88508290757068
    Total Energy =                       -344.8850829075709044
  Basis Set: 6-31G*
  Basis Set:
  Basis Set: 6-31G*
  Basis Set:
  @DF-RHF Final Energy:  -344.88783352489423
    Total Energy =                       -344.8878335248940630
  Basis Set: 6-31G*
  Basis Set:
  Basis Set: 6-31G*
  Basis Set:
  @DF-RHF Final Energy:  -344.88811928710857
    Total Energy =                       -344.8881192871084522
  Basis Set: 6-31G*
  Basis Set:
  Basis Set: 6-31G*
  Basis Set:
  @DF-RHF Final Energy:  -344.88812696113712
    Total Energy =                       -344.8881269611372886
  Basis Set: 6-31G*
  Basis Set:
  Charge       = 0
  Multiplicity = 1
  Basis Set: 6-31G*
  Basis Set:

    Orbital Energies (a.u.)
    -----------------------

    Doubly Occupied:

       1A    -20.586016     2A    -20.557626     3A    -11.375459
       4A    -11.290900     5A    -11.239675     6A    -11.224515
       7A    -11.216803     8A     -1.459690     9A     -1.367307
      10A     -1.081280    11A     -0.992875    12A     -0.949885
      13A     -0.833469    14A     -0.765449    15A     -0.699160
      16A     -0.678632    17A     -0.672907    18A     -0.633684
      19A     -0.617076    20A     -0.578551    21A     -0.565827
      22A     -0.538069    23A     -0.518575    24A     -0.495458
      25A     -0.492236    26A     -0.481366    27A     -0.453493
      28A     -0.435621

  @DF-RHF Final Energy:  -344.88812790743992

   => Energetics <=

    Nuclear Repulsion Energy =            312.1813451108781123
    One-Electron Energy =               -1088.5357406633638675
    Two-Electron Energy =                 431.4662676450456047
    DFT Exchange-Correlation Energy =       0.0000000000000000
    Empirical Dispersion Energy =           0.0000000000000000
    PCM Polarization Energy =               0.0000000000000000
    EFP Energy =                            0.0000000000000000
    Total Energy =                       -344.8881279074402073
    Molecular point group: c1
  Basis Set: 6-31G*
  Basis Set:

  -Total Gradient:
     Atom            X                  Y                   Z
    ------   -----------------  -----------------  -----------------
       1       -0.000255147727    -0.000144823663     0.005099436594
       2       -0.000794167633    -0.001288206990    -0.007855412761
       3        0.000027673325     0.000042601565     0.000016562966
       4        0.003635982982     0.004402115172     0.003684634838
       5       -0.000015765436     0.000002503863    -0.000002324875
       6        0.000005042891    -0.000002834506    -0.000012975624
       7        0.000006044418     0.000005827743    -0.000012044871
       8       -0.000007289472     0.000005219312    -0.000001739808
       9        0.000001064488    -0.000003415144     0.000002751295
      10        0.000003288545    -0.000003194247     0.000001136811
      11       -0.000000752834    -0.000002436936    -0.000002695819
      12       -0.000001685336    -0.000002936742    -0.000001130991
      13       -0.000001025442     0.000001480308     0.000003995533
      14       -0.002623408671    -0.003006492439    -0.000918393861
      15        0.000010947138    -0.000010945523    -0.000012361439
      16       -0.000000438265     0.000008105914    -0.000000243137
      17        0.000009637024    -0.000002567682     0.000010805148

  **** Optimization is complete! (in 6 steps) ****
    Final optimized geometry and variables:
    Molecular point group: c1

    Geometry (in Angstrom), charge = 0, multiplicity = 1:

    O            0.856375783546     1.399465930306     0.202189595585
    C            0.668844876613     0.233193069301     0.160521808802
    C           -0.686016071098    -0.429579330184     0.178714408799
    O            1.687798309939    -0.656930040414     0.179518948403
    C           -1.855477724501     0.549687327018     0.193113210027
    H           -0.740760359330    -1.093932363907    -0.681408563629
    H           -0.705514081212    -1.081177081160     1.048814660908
    C           -3.205457529222    -0.165383220026     0.220757294960
    H           -1.795467821478     1.192814943035    -0.678782817900
    H           -1.763330836013     1.200753201431     1.055625586992
    H           -3.335065802732    -0.801223943061    -0.650760437666
    H           -4.021808285651     0.549240385989     0.231395318270
    H           -3.303252454034    -0.791314364157     1.103312122428
    C            2.361827150056    -0.871828313968    -1.042643250324
    H            1.694357478975    -1.302322664996    -1.782267631410
    H            3.159205900902    -1.568577580372    -0.836415061198
    H            2.776019395467     0.054360825370    -1.420042935540

  Mulliken Charges: (a.u.)
   Center  Symbol    Alpha    Beta     Spin     Total
       1     O     4.25455  4.25455  0.00000 -0.50909
       2     C     2.61325  2.61325  0.00000  0.77351
       3     C     3.20987  3.20987  0.00000 -0.41974
       4     O     4.31610  4.31610  0.00000 -0.63219
       5     C     3.15263  3.15263  0.00000 -0.30525
       6     H     0.40788  0.40788  0.00000  0.18423
       7     H     0.39790  0.39790  0.00000  0.20419
       8     C     3.24266  3.24266  0.00000 -0.48531
       9     H     0.41241  0.41241  0.00000  0.17518
      10     H     0.40891  0.40891  0.00000  0.18218
      11     H     0.42203  0.42203  0.00000  0.15595
      12     H     0.41461  0.41461  0.00000  0.17078
      13     H     0.42056  0.42056  0.00000  0.15888
      14     C     3.09335  3.09335  0.00000 -0.18670
      15     H     0.42260  0.42260  0.00000  0.15480
      16     H     0.40317  0.40317  0.00000  0.19366
      17     H     0.40753  0.40753  0.00000  0.18495

   Total alpha = 28.00000, Total beta = 28.00000, Total charge =  0.00000
