  ==> Input File <==

--------------------------------------------------------------------------
set {
	reference rhf
	basis 6-31G*
}

set_num_threads( 1 )
memory 2 gb

molecule MOL {
0 1

O	 -0.988096	 -1.408613	 0.050699
C	 -0.676749	 -0.249230	 -0.009274
C	 -1.746085	 0.827156	 -0.009539
N	 0.623947	 0.147590	 -0.102813
H	 -1.701500	 1.431508	 -0.908902
H	 -2.703425	 0.330732	 0.036390
H	 -1.647323	 1.487769	 0.845106
C	 1.667331	 -0.835070	 0.115375
C	 1.054714	 1.527795	 -0.061359
H	 2.484431	 -0.653419	 -0.574094
H	 1.271363	 -1.821556	 -0.051941
H	 2.056331	 -0.779681	 1.129787
H	 1.947539	 1.638589	 -0.665202
H	 0.304735	 2.190059	 -0.463693
H	 1.292650	 1.848930	 0.951099

	symmetry c1
}
set optking {
	frozen_dihedral = ("
		2 4 8 10
	")
}

ee = energy('scf')
oeprop('DIPOLE', 'QUADRUPOLE', 'MULLIKEN_CHARGES')
f=open( 'psi4out.xyz', 'w' )
f.write( "15  " )
f.write( str(ee) + "\n" )
f.write( MOL.save_string_xyz() )
f.close()
--------------------------------------------------------------------------

    Molecular point group: c1

    Geometry (in Angstrom), charge = 0, multiplicity = 1:

       Center              X                  Y                   Z               Mass
    ------------   -----------------  -----------------  -----------------  -----------------
           O         -0.986417527182    -1.414369426123     0.049613068975    15.994914619560
           C         -0.675070527182    -0.254986426123    -0.010359931025    12.000000000000
           C         -1.744406527182     0.821399573877    -0.010624931025    12.000000000000
           N          0.625625472818     0.141833573877    -0.103898931025    14.003074004780
           H         -1.699821527182     1.425751573877    -0.909987931025     1.007825032070
           H         -2.701746527182     0.324975573877     0.035304068975     1.007825032070
           H         -1.645644527182     1.482012573877     0.844020068975     1.007825032070
           C          1.669009472818    -0.840826426123     0.114289068975    12.000000000000
           C          1.056392472818     1.522038573877    -0.062444931025    12.000000000000
           H          2.486109472818    -0.659175426123    -0.575179931025     1.007825032070
           H          1.273041472818    -1.827312426123    -0.053026931025     1.007825032070
           H          2.058009472818    -0.785437426123     1.128701068975     1.007825032070
           H          1.949217472818     1.632832573877    -0.666287931025     1.007825032070
           H          0.306413472818     2.184302573877    -0.464778931025     1.007825032070
           H          1.294328472818     1.843173573877     0.950013068975     1.007825032070

  Charge       = 0
  Multiplicity = 1
  Basis Set: 6-31G*
  Basis Set:

    Orbital Energies (a.u.)
    -----------------------

    Doubly Occupied:

       1A    -20.513882     2A    -15.584003     3A    -11.341700
       4A    -11.266341     5A    -11.248055     6A    -11.228394
       7A     -1.383934     8A     -1.243856     9A     -1.014270
      10A     -0.972725    11A     -0.919423    12A     -0.737988
      13A     -0.681152    14A     -0.659456    15A     -0.651326
      16A     -0.588971    17A     -0.575748    18A     -0.567593
      19A     -0.561924    20A     -0.547410    21A     -0.529695
      22A     -0.503835    23A     -0.409931    24A     -0.366226

  @DF-RHF Final Energy:  -286.02952109609794

   => Energetics <=

    Nuclear Repulsion Energy =            252.3911066658293123
    One-Electron Energy =                -888.6453419838023819
    Two-Electron Energy =                 350.2247142218749332
    DFT Exchange-Correlation Energy =       0.0000000000000000
    Empirical Dispersion Energy =           0.0000000000000000
    PCM Polarization Energy =               0.0000000000000000
    EFP Energy =                            0.0000000000000000
    Total Energy =                       -286.0295210960981649

  Mulliken Charges: (a.u.)
   Center  Symbol    Alpha    Beta     Spin     Total
       1     O     4.30472  4.30472  0.00000 -0.60945
       2     C     2.62322  2.62322  0.00000  0.75356
       3     C     3.29873  3.29873  0.00000 -0.59747
       4     N     3.82374  3.82374  0.00000 -0.64747
       5     H     0.40694  0.40694  0.00000  0.18612
       6     H     0.39045  0.39045  0.00000  0.21911
       7     H     0.40749  0.40749  0.00000  0.18503
       8     C     3.14611  3.14611  0.00000 -0.29222
       9     C     3.14110  3.14110  0.00000 -0.28220
      10     H     0.41860  0.41860  0.00000  0.16281
      11     H     0.38378  0.38378  0.00000  0.23245
      12     H     0.42010  0.42010  0.00000  0.15981
      13     H     0.41015  0.41015  0.00000  0.17970
      14     H     0.40767  0.40767  0.00000  0.18467
      15     H     0.41721  0.41721  0.00000  0.16557

   Total alpha = 24.00000, Total beta = 24.00000, Total charge =  0.00000
