                              Psi4 1.0.54 Driver

  ==> Input File <==

--------------------------------------------------------------------------
set {
	reference rhf
	basis cc-pvtz
}

set_num_threads( 4 )
memory 2 gb

molecule MOL {
0 1

H	 -2.578849	 -0.537770	 -0.255961
N	 -1.838933	 0.131625	 -0.253462
C	 -0.561396	 -0.500007	 0.035200
H	 -2.062818	 0.815784	 0.438737
C	 0.575129	 0.507849	 -0.048832
H	 -0.401951	 -1.279409	 -0.702585
H	 -0.537741	 -0.984838	 1.012336
C	 1.951750	 -0.141983	 0.035101
H	 0.478254	 1.061643	 -0.975981
H	 0.467676	 1.231891	 0.755499
H	 2.101550	 -0.848142	 -0.774949
H	 2.738260	 0.600794	 -0.026526
H	 2.078939	 -0.679792	 0.968824

	symmetry c1
}
set optking {
	frozen_dihedral = ("
		6 3 5 9
	")
}

ee,wfn = optimize('scf', return_wfn=True)
oeprop( wfn, 'DIPOLE', 'QUADRUPOLE', 'MULLIKEN_CHARGES')
f=open( 'psi4out.xyz', 'w' )
f.write( "13  " )
f.write( str(ee) + "\n" )
f.write( MOL.save_string_xyz() )
f.close()
--------------------------------------------------------------------------

    Molecular point group: c1
  Charge       = 0
  Multiplicity = 1
  Basis Set: CC-PVTZ
  Basis Set:
  @DF-RHF Final Energy:  -173.35235238882737
    Total Energy =                       -173.3523523888274269
    Molecular point group: c1
  Basis Set: CC-PVTZ
  Basis Set:
  Basis Set: CC-PVTZ
  Basis Set:
  @DF-RHF Final Energy:  -173.35238486022786
    Total Energy =                       -173.3523848602277155
  Basis Set: CC-PVTZ
  Basis Set:
  Basis Set: CC-PVTZ
  Basis Set:
  @DF-RHF Final Energy:  -173.35239358070589
    Total Energy =                       -173.3523935807059786
  Basis Set: CC-PVTZ
  Basis Set:
  Charge       = 0
  Multiplicity = 1
  Basis Set: CC-PVTZ
  Basis Set:

    Orbital Energies (a.u.)
    -----------------------

    Doubly Occupied:

       1A    -15.527007     2A    -11.238309     3A    -11.210401
       4A    -11.207217     5A     -1.178679     6A     -1.036464
       7A     -0.899475     8A     -0.800562     9A     -0.660918
      10A     -0.634021    11A     -0.603149    12A     -0.565926
      13A     -0.532075    14A     -0.493093    15A     -0.476922
      16A     -0.468879    17A     -0.384446

  @DF-RHF Final Energy:  -173.35239373276414

   => Energetics <=

    Nuclear Repulsion Energy =            131.9723870232219838
    One-Electron Energy =                -494.8144704112296495
    Two-Electron Energy =                 189.4896896552434100
    DFT Exchange-Correlation Energy =       0.0000000000000000
    Empirical Dispersion Energy =           0.0000000000000000
    PCM Polarization Energy =               0.0000000000000000
    EFP Energy =                            0.0000000000000000
    Total Energy =                       -173.3523937327642557
    Molecular point group: c1
  Basis Set: CC-PVTZ
  Basis Set:

  -Total Gradient:
     Atom            X                  Y                   Z
    ------   -----------------  -----------------  -----------------
       1       -0.000012432283    -0.000010064075    -0.000002329348
       2       -0.000024930303     0.000023352211    -0.000011488521
       3       -0.001231417134     0.001324115606    -0.001190797305
       4       -0.000010164623     0.000005628795     0.000012409619
       5        0.001342712248    -0.001588768525    -0.000683107834
       6        0.000859784543    -0.000876680473     0.001105235134
       7        0.000000906848     0.000001560742     0.000002267394
       8        0.000016546524    -0.000004861888    -0.000005569225
       9       -0.000926352455     0.001116521123     0.000769863361
      10       -0.000002806942     0.000000344646    -0.000000391088
      11       -0.000004444706     0.000006276839     0.000007419432
      12       -0.000000474349    -0.000003315436     0.000000441728
      13       -0.000006927365     0.000005890433    -0.000003953347

  **** Optimization is complete! (in 4 steps) ****
    Final optimized geometry and variables:
    Molecular point group: c1

    Geometry (in Angstrom), charge = 0, multiplicity = 1:

    H           -2.586911725815    -0.527015251864    -0.168151283306
    N           -1.845055481446     0.140026152857    -0.189291397202
    C           -0.564002288047    -0.493517315756     0.076274304203
    H           -2.050926297962     0.830054965944     0.502894577658
    C            0.574690275366     0.512113724119    -0.012691836253
    H           -0.410843166776    -1.274478510025    -0.661315133785
    H           -0.526555636283    -0.983689613340     1.050708287505
    C            1.950926367518    -0.135458705403     0.082462560398
    H            0.475177499422     1.065707000740    -0.939730032627
    H            0.463942249860     1.241182193917     0.787169571064
    H            2.112137388212    -0.833399228171    -0.732232634300
    H            2.736681373275     0.609362509971     0.038963326505
    H            2.066539373261    -0.681837131249     1.012841164150

  Mulliken Charges: (a.u.)
   Center  Symbol    Alpha    Beta     Spin     Total
       1     H     0.42996  0.42996  0.00000  0.14008
       2     N     3.68905  3.68905  0.00000 -0.37810
       3     C     3.02159  3.02159  0.00000 -0.04318
       4     H     0.43088  0.43088  0.00000  0.13824
       5     C     3.07976  3.07976  0.00000 -0.15952
       6     H     0.45868  0.45868  0.00000  0.08264
       7     H     0.46959  0.46959  0.00000  0.06082
       8     C     3.15207  3.15207  0.00000 -0.30414
       9     H     0.44885  0.44885  0.00000  0.10229
      10     H     0.46010  0.46010  0.00000  0.07981
      11     H     0.45468  0.45468  0.00000  0.09064
      12     H     0.44787  0.44787  0.00000  0.10426
      13     H     0.45693  0.45693  0.00000  0.08615

   Total alpha = 17.00000, Total beta = 17.00000, Total charge = -0.00000

*** Psi4 exiting successfully. Buy a developer a beer!
