                              Psi4 1.0.54 Driver

  ==> Input File <==

--------------------------------------------------------------------------
set {
	reference rhf
	basis cc-pvtz
}

set_num_threads( 4 )
memory 2 gb

molecule MOL {
0 1

H	 1.166964	 -1.062386	 0.758429
O	 1.324748	 -0.612467	 -0.052206
C	 0.706474	 0.636793	 -0.025501
C	 0.456264	 1.240266	 -1.378588
H	 1.359480	 1.290123	 0.541108
H	 -0.235005	 0.591994	 0.518843
C	 0.858307	 0.744849	 -2.528036
H	 -0.103845	 2.160746	 -1.362978
H	 1.432690	 -0.160138	 -2.583305
H	 0.634687	 1.240118	 -3.453650

	symmetry c1
}
set optking {
	frozen_dihedral = ("
		5 3 2 1
	")
}

ee,wfn = optimize('scf', return_wfn=True)
oeprop( wfn, 'DIPOLE', 'QUADRUPOLE', 'MULLIKEN_CHARGES')
f=open( 'psi4out.xyz', 'w' )
f.write( "10  " )
f.write( str(ee) + "\n" )
f.write( MOL.save_string_xyz() )
f.close()
--------------------------------------------------------------------------

    Molecular point group: c1
  Charge       = 0
  Multiplicity = 1
  Basis Set: CC-PVTZ
  Basis Set:
  @DF-RHF Final Energy:  -191.99581710235475
    Total Energy =                       -191.9958171023548346
    Molecular point group: c1
  Basis Set: CC-PVTZ
  Basis Set:
  Basis Set: CC-PVTZ
  Basis Set:
  @DF-RHF Final Energy:  -191.88843979434253
    Total Energy =                       -191.8884397943425881
  Basis Set: CC-PVTZ
  Basis Set:
  Basis Set: CC-PVTZ
  Basis Set:
  @DF-RHF Final Energy:  -191.98186443231521
    Total Energy =                       -191.9818644323153194
  Basis Set: CC-PVTZ
  Basis Set:
  Basis Set: CC-PVTZ
  Basis Set:
  @DF-RHF Final Energy:  -191.99718220058671
    Total Energy =                       -191.9971822005867637
  Basis Set: CC-PVTZ
  Basis Set:
  Basis Set: CC-PVTZ
  Basis Set:
  @DF-RHF Final Energy:  -191.99742210136469
    Total Energy =                       -191.9974221013646059
  Basis Set: CC-PVTZ
  Basis Set:
  Basis Set: CC-PVTZ
  Basis Set:
  @DF-RHF Final Energy:  -191.99751196122315
    Total Energy =                       -191.9975119612233243
  Basis Set: CC-PVTZ
  Basis Set:
  Basis Set: CC-PVTZ
  Basis Set:
  @DF-RHF Final Energy:  -191.99751348716043
    Total Energy =                       -191.9975134871603757
  Basis Set: CC-PVTZ
  Basis Set:
  Charge       = 0
  Multiplicity = 1
  Basis Set: CC-PVTZ
  Basis Set:

    Orbital Energies (a.u.)
    -----------------------

    Doubly Occupied:

       1A    -20.553771     2A    -11.278161     3A    -11.223609
       4A    -11.207693     5A     -1.373945     6A     -1.058430
       7A     -0.926109     8A     -0.756647     9A     -0.713601
      10A     -0.642676    11A     -0.617770    12A     -0.592272
      13A     -0.517501    14A     -0.490233    15A     -0.457515
      16A     -0.360382

  @DF-RHF Final Energy:  -191.99751377285082

   => Energetics <=

    Nuclear Repulsion Energy =            119.6330908744082109
    One-Electron Energy =                -497.7205831819126161
    Two-Electron Energy =                 186.0899785346536817
    DFT Exchange-Correlation Energy =       0.0000000000000000
    Empirical Dispersion Energy =           0.0000000000000000
    PCM Polarization Energy =               0.0000000000000000
    EFP Energy =                            0.0000000000000000
    Total Energy =                       -191.9975137728507377
    Molecular point group: c1
  Basis Set: CC-PVTZ
  Basis Set:

  -Total Gradient:
     Atom            X                  Y                   Z
    ------   -----------------  -----------------  -----------------
       1       -0.000545880871    -0.000182750661    -0.000705263507
       2        0.000848521752     0.000313057785     0.000760438868
       3       -0.000800055645    -0.000630459191     0.000287045476
       4       -0.000036404309    -0.000009121166     0.000014423755
       5        0.000521957911     0.000485723971    -0.000334383325
       6       -0.000007490587     0.000019314717    -0.000007292957
       7       -0.000020433440    -0.000017714474    -0.000037897463
       8        0.000013294023     0.000007833791     0.000003960595
       9        0.000013466842     0.000008388131     0.000010861924
      10        0.000013024324     0.000005727098     0.000008106635

  **** Optimization is complete! (in 8 steps) ****
    Final optimized geometry and variables:
    Molecular point group: c1

    Geometry (in Angstrom), charge = 0, multiplicity = 1:

    H            0.002920971470    -2.054002118141     0.904616990697
    O            0.325166912043    -1.284787242297     0.474152749753
    C           -0.456675685041    -0.179648963502     0.819385113995
    C           -0.304941770907     0.922060460092    -0.184584271975
    H           -0.166529738910     0.202287957606     1.796778835633
    H           -1.508541120981    -0.451324009450     0.882428713972
    C            0.418389326393     0.868027730220    -1.279682616753
    H           -0.850318539001     1.819573443576     0.055004387642
    H            0.974511342988    -0.010432379058    -1.540983884958
    H            0.474080760525     1.709179008720    -1.944496452758

  Mulliken Charges: (a.u.)
   Center  Symbol    Alpha    Beta     Spin     Total
       1     H     0.39372  0.39372  0.00000  0.21255
       2     O     4.19247  4.19247  0.00000 -0.38494
       3     C     2.93886  2.93886  0.00000  0.12228
       4     C     3.08159  3.08159  0.00000 -0.16318
       5     H     0.47328  0.47328  0.00000  0.05345
       6     H     0.47493  0.47493  0.00000  0.05015
       7     C     3.17051  3.17051  0.00000 -0.34102
       8     H     0.42411  0.42411  0.00000  0.15179
       9     H     0.42025  0.42025  0.00000  0.15950
      10     H     0.43029  0.43029  0.00000  0.13942

   Total alpha = 16.00000, Total beta = 16.00000, Total charge = -0.00000

*** Psi4 exiting successfully. Buy a developer a beer!
