                              Psi4 1.0.54 Driver

  ==> Input File <==

--------------------------------------------------------------------------
set {
	reference rhf
	basis cc-pvtz
}

set_num_threads( 4 )
memory 2 gb

molecule MOL {
0 1

H	 -0.000105	 1.988529	 0.748933
O	 -0.000098	 1.879786	 -0.188206
C	 -0.000014	 0.545691	 -0.532416
C	 0.794729	 0.333006	 -1.821961
C	 -1.432682	 0.011581	 -0.576733
H	 0.513951	 0.001959	 0.246594
F	 2.027505	 0.739335	 -1.643019
F	 0.834314	 -0.925443	 -2.180362
F	 0.286330	 1.026951	 -2.817625
F	 -1.986930	 0.160017	 0.601246
F	 -1.480618	 -1.259494	 -0.886221
F	 -2.163627	 0.673423	 -1.447974

	symmetry c1
}
set optking {
	frozen_dihedral = ("
		6 3 2 1
	")
}

ee,wfn = optimize('scf', return_wfn=True)
oeprop( wfn, 'DIPOLE', 'QUADRUPOLE', 'MULLIKEN_CHARGES')
f=open( 'psi4out.xyz', 'w' )
f.write( "12  " )
f.write( str(ee) + "\n" )
f.write( MOL.save_string_xyz() )
f.close()
--------------------------------------------------------------------------

    Molecular point group: c1
  Charge       = 0
  Multiplicity = 1
  Basis Set: CC-PVTZ
  Basis Set:
  @DF-RHF Final Energy:  -786.58590965891369
    Total Energy =                       -786.5859096589142609
    Molecular point group: c1
  Basis Set: CC-PVTZ
  Basis Set:
  Basis Set: CC-PVTZ
  Basis Set:
  @DF-RHF Final Energy:  -786.58750591155956
    Total Energy =                       -786.5875059115589920
  Basis Set: CC-PVTZ
  Basis Set:
  Basis Set: CC-PVTZ
  Basis Set:
  @DF-RHF Final Energy:  -786.58780664440997
    Total Energy =                       -786.5878066444098522
  Basis Set: CC-PVTZ
  Basis Set:
  Basis Set: CC-PVTZ
  Basis Set:
  @DF-RHF Final Energy:  -786.58785655505119
    Total Energy =                       -786.5878565550506210
  Basis Set: CC-PVTZ
  Basis Set:
  Basis Set: CC-PVTZ
  Basis Set:
  @DF-RHF Final Energy:  -786.58786648865384
    Total Energy =                       -786.5878664886538445
  Basis Set: CC-PVTZ
  Basis Set:
  Basis Set: CC-PVTZ
  Basis Set:
  @DF-RHF Final Energy:  -786.58786755488416
    Total Energy =                       -786.5878675548831325
  Basis Set: CC-PVTZ
  Basis Set:
  Charge       = 0
  Multiplicity = 1
  Basis Set: CC-PVTZ
  Basis Set:

    Orbital Energies (a.u.)
    -----------------------

    Doubly Occupied:

       1A    -26.353879     2A    -26.353226     3A    -26.351600
       4A    -26.351105     5A    -26.348858     6A    -26.348081
       7A    -20.609671     8A    -11.515684     9A    -11.515630
      10A    -11.351750    11A     -1.767056    12A     -1.761249
      13A     -1.661614    14A     -1.660030    15A     -1.656772
      16A     -1.655905    17A     -1.439595    18A     -1.103502
      19A     -0.997699    20A     -0.939522    21A     -0.868795
      22A     -0.861964    23A     -0.857677    24A     -0.846690
      25A     -0.836047    26A     -0.786570    27A     -0.768703
      28A     -0.733066    29A     -0.727152    30A     -0.723473
      31A     -0.720480    32A     -0.686390    33A     -0.682154
      34A     -0.673915    35A     -0.673090    36A     -0.663710
      37A     -0.658183    38A     -0.629402    39A     -0.622709
      40A     -0.557743    41A     -0.509235

  @DF-RHF Final Energy:  -786.58786800510870

   => Energetics <=

    Nuclear Repulsion Energy =            670.3680091481157888
    One-Electron Energy =               -2428.2525922744703166
    Two-Electron Energy =                 971.2967151212458248
    DFT Exchange-Correlation Energy =       0.0000000000000000
    Empirical Dispersion Energy =           0.0000000000000000
    PCM Polarization Energy =               0.0000000000000000
    EFP Energy =                            0.0000000000000000
    Total Energy =                       -786.5878680051087031
    Molecular point group: c1
  Basis Set: CC-PVTZ
  Basis Set:

  -Total Gradient:
     Atom            X                  Y                   Z
    ------   -----------------  -----------------  -----------------
       1        0.000883619373    -0.000026440269     0.000024829872
       2       -0.001314385529     0.000077818393     0.000095250519
       3        0.001100282525     0.000077594971    -0.000484484985
       4       -0.000000264417     0.000030818977    -0.000017381949
       5        0.000038126138     0.000022349876    -0.000040175364
       6       -0.000693143226    -0.000071030571     0.000346970636
       7        0.000031117864    -0.000007911506     0.000016135981
       8       -0.000015783090    -0.000034767075    -0.000003039374
       9       -0.000012405468    -0.000012558360     0.000024419357
      10       -0.000012847071     0.000007954252     0.000043073027
      11       -0.000012960211    -0.000050234681    -0.000016971953
      12        0.000008643112    -0.000013594013     0.000011374229

  **** Optimization is complete! (in 7 steps) ****
    Final optimized geometry and variables:
    Molecular point group: c1

    Geometry (in Angstrom), charge = 0, multiplicity = 1:

    H            0.382948227494     1.732075473627     1.843547914897
    O            0.380855430404     1.573567971708     0.917061465801
    C            0.329277304054     0.222582960837     0.642631223851
    C            1.122099494168    -0.008167215526    -0.641848208050
    C           -1.127981247169    -0.237969317773     0.577515805377
    H            0.801688739662    -0.381316220647     1.408027979427
    F            2.380253726448     0.298319215534    -0.430734797618
    F            1.073668745365    -1.268288398326    -1.006822673707
    F            0.687502997019     0.721608745878    -1.634174435247
    F           -1.711674864332     0.074425719871     1.716868698684
    F           -1.217303625448    -1.538394600834     0.432183001729
    F           -1.800201821505     0.330751552420    -0.387162783648

  Mulliken Charges: (a.u.)
   Center  Symbol    Alpha    Beta     Spin     Total
       1     H     0.38188  0.38188  0.00000  0.23625
       2     O     4.18591  4.18591  0.00000 -0.37181
       3     C     3.00111  3.00111  0.00000 -0.00222
       4     C     2.67697  2.67697  0.00000  0.64606
       5     C     2.68074  2.68074  0.00000  0.63853
       6     H     0.44451  0.44451  0.00000  0.11097
       7     F     4.60512  4.60512  0.00000 -0.21024
       8     F     4.60544  4.60544  0.00000 -0.21088
       9     F     4.60104  4.60104  0.00000 -0.20207
      10     F     4.61156  4.61156  0.00000 -0.22311
      11     F     4.60519  4.60519  0.00000 -0.21038
      12     F     4.60055  4.60055  0.00000 -0.20110

   Total alpha = 41.00000, Total beta = 41.00000, Total charge = -0.00000

*** Psi4 exiting successfully. Buy a developer a beer!
