  ==> Input File <==

--------------------------------------------------------------------------
set {
	reference rhf
	basis 6-31G*
}

set_num_threads( 4 )
memory 2 gb

molecule MOL {
0 1

H	 -0.976136	 0.000292	 -1.062391
N	 -0.712432	 0.000013	 -0.096310
C	 0.734192	 -0.000004	 0.040609
H	 -1.106273	 -0.825150	 0.312166
H	 1.139899	 -0.873598	 -0.456463
H	 1.139939	 0.873831	 -0.456100
H	 1.096456	 -0.000300	 1.069655

	symmetry c1
}
set optking {
	frozen_dihedral = ("
		1 2 3 7
	")
}

ee = optimize('scf')
oeprop('DIPOLE', 'QUADRUPOLE', 'MULLIKEN_CHARGES')
f=open( 'psi4out.xyz', 'w' )
f.write( "7  " )
f.write( str(ee) + "\n" )
f.write( MOL.save_string_xyz() )
f.close()
--------------------------------------------------------------------------

    Molecular point group: c1
  Charge       = 0
  Multiplicity = 1
  Basis Set: 6-31G*
  Basis Set:
  @DF-RHF Final Energy:   -95.20761949620106
    Total Energy =                        -95.2076194962010618
    Molecular point group: c1
  Basis Set: 6-31G*
  Basis Set:
  Basis Set: 6-31G*
  Basis Set:
  @DF-RHF Final Energy:   -95.20953305288452
    Total Energy =                        -95.2095330528844670
  Basis Set: 6-31G*
  Basis Set:
  Basis Set: 6-31G*
  Basis Set:
  @DF-RHF Final Energy:   -95.20979220178316
    Total Energy =                        -95.2097922017831593
  Basis Set: 6-31G*
  Basis Set:
  Charge       = 0
  Multiplicity = 1
  Basis Set: 6-31G*
  Basis Set:

    Orbital Energies (a.u.)
    -----------------------

    Doubly Occupied:

       1A    -15.534898     2A    -11.237453     3A     -1.171096
       4A     -0.896551     5A     -0.664650     6A     -0.603029
       7A     -0.557048     8A     -0.517532     9A     -0.383930

  @DF-RHF Final Energy:   -95.20979449606465

   => Energetics <=

    Nuclear Repulsion Energy =             42.3389322553751271
    One-Electron Energy =                -211.9650786385118124
    Two-Electron Energy =                  74.4163518870721248
    DFT Exchange-Correlation Energy =       0.0000000000000000
    Empirical Dispersion Energy =           0.0000000000000000
    PCM Polarization Energy =               0.0000000000000000
    EFP Energy =                            0.0000000000000000
    Total Energy =                        -95.2097944960645748
    Molecular point group: c1
  Basis Set: 6-31G*
  Basis Set:

  -Total Gradient:
     Atom            X                  Y                   Z
    ------   -----------------  -----------------  -----------------
       1        0.000094467390    -0.000076699619    -0.000000038091
       2        0.000132297159     0.000142077741     0.000085173412
       3       -0.000024540098     0.000047349287    -0.000116474981
       4        0.000060032679    -0.000025303993     0.000014180755
       5       -0.000066032264    -0.000034813843    -0.000018744210
       6       -0.000079139806     0.000007747855     0.000001125722
       7       -0.000117085059    -0.000060357428     0.000034777393

  **** Optimization is complete! (in 4 steps) ****
    Final optimized geometry and variables:
    Molecular point group: c1

    Geometry (in Angstrom), charge = 0, multiplicity = 1:

    H           -1.006012660308     0.031969681531    -0.992690991503
    N           -0.717073773744     0.038478960306    -0.033859659575
    C            0.732436982766     0.011160041172     0.063825707202
    H           -1.114597983825    -0.774914214676     0.394266592817
    H            1.205967557717    -0.850672749076    -0.408601799022
    H            1.137822599199     0.907291044732    -0.391615599709
    H            1.019092992456     0.018805386696     1.109138006248

  Mulliken Charges: (a.u.)
   Center  Symbol    Alpha    Beta     Spin     Total
       1     H     0.33390  0.33390  0.00000  0.33221
       2     N     3.91649  3.91649  0.00000 -0.83298
       3     C     3.14793  3.14793  0.00000 -0.29587
       4     H     0.33390  0.33390  0.00000  0.33221
       5     H     0.43353  0.43353  0.00000  0.13294
       6     H     0.41708  0.41708  0.00000  0.16584
       7     H     0.41717  0.41717  0.00000  0.16566

   Total alpha =  9.00000, Total beta =  9.00000, Total charge = -0.00000
