  ==> Input File <==

--------------------------------------------------------------------------
set {
	reference rhf
	basis 6-31G*
}

set_num_threads( 1 )
memory 2 gb

molecule MOL {
0 1

O	 2.996827	 0.228511	 -1.470465
C	 2.578714	 -0.338223	 -0.512835
C	 1.138596	 -0.358030	 -0.060666
O	 3.347903	 -1.046386	 0.304773
C	 0.210637	 0.434548	 -0.978724
H	 0.843266	 -1.399255	 0.015640
H	 1.112992	 0.032851	 0.953362
C	 -1.235344	 0.511781	 -0.477060
H	 0.232198	 -0.001089	 -1.973145
H	 0.604279	 1.439742	 -1.083859
C	 -1.983368	 -0.824305	 -0.455988
H	 -1.777591	 1.203377	 -1.117675
H	 -1.250303	 0.949734	 0.519928
C	 -3.452203	 -0.677524	 -0.053521
H	 -1.924904	 -1.282549	 -1.442098
H	 -1.498489	 -1.514382	 0.230785
C	 -4.208336	 -2.007005	 -0.023969
H	 -3.948397	 0.001826	 -0.744542
H	 -3.511628	 -0.209534	 0.927883
C	 -5.675356	 -1.851212	 0.375133
H	 -4.149106	 -2.476484	 -1.003624
H	 -3.716383	 -2.685892	 0.669482
H	 -6.184172	 -2.810155	 0.387039
H	 -6.204157	 -1.204936	 -0.319772
H	 -5.767993	 -1.415390	 1.365966
C	 4.728119	 -1.109107	 -0.004993
H	 4.882018	 -1.033965	 -1.071845
H	 5.068212	 -2.067527	 0.355250
H	 5.265056	 -0.311663	 0.488280

	symmetry c1
}
set optking {
	frozen_dihedral = ("
		21 17 14 11,
		17 14 11 15,
		15 11 8 5,
		6 3 5 9,
		11 8 5 9,
		1 2 4 26,
		6 3 2 1
	")
}

ee = energy('scf')
oeprop('DIPOLE', 'QUADRUPOLE', 'MULLIKEN_CHARGES')
f=open( 'psi4out.xyz', 'w' )
f.write( "29  " )
f.write( str(ee) + "\n" )
f.write( MOL.save_string_xyz() )
f.close()
--------------------------------------------------------------------------

    Molecular point group: c1

    Geometry (in Angstrom), charge = 0, multiplicity = 1:

       Center              X                  Y                   Z               Mass
    ------------   -----------------  -----------------  -----------------  -----------------
           O          3.094187891700     0.877415762124    -1.168045436611    15.994914619560
           C          2.676074891700     0.310681762124    -0.210415436611    12.000000000000
           C          1.235956891700     0.290874762124     0.241753563389    12.000000000000
           O          3.445263891700    -0.397481237876     0.607192563389    15.994914619560
           C          0.307997891700     1.083452762124    -0.676304436611    12.000000000000
           H          0.940626891700    -0.750350237876     0.318059563389     1.007825032070
           H          1.210352891700     0.681755762124     1.255781563389     1.007825032070
           C         -1.137983108300     1.160685762124    -0.174640436611    12.000000000000
           H          0.329558891700     0.647815762124    -1.670725436611     1.007825032070
           H          0.701639891700     2.088646762124    -0.781439436611     1.007825032070
           C         -1.886007108300    -0.175400237876    -0.153568436611    12.000000000000
           H         -1.680230108300     1.852281762124    -0.815255436611     1.007825032070
           H         -1.152942108300     1.598638762124     0.822347563389     1.007825032070
           C         -3.354842108300    -0.028619237876     0.248898563389    12.000000000000
           H         -1.827543108300    -0.633644237876    -1.139678436611     1.007825032070
           H         -1.401128108300    -0.865477237876     0.533204563389     1.007825032070
           C         -4.110975108300    -1.358100237876     0.278450563389    12.000000000000
           H         -3.851036108300     0.650730762124    -0.442122436611     1.007825032070
           H         -3.414267108300     0.439370762124     1.230302563389     1.007825032070
           C         -5.577995108300    -1.202307237876     0.677552563389    12.000000000000
           H         -4.051745108300    -1.827579237876    -0.701204436611     1.007825032070
           H         -3.619022108300    -2.036987237876     0.971901563389     1.007825032070
           H         -6.086811108300    -2.161250237876     0.689458563389     1.007825032070
           H         -6.106796108300    -0.556031237876    -0.017352436611     1.007825032070
           H         -5.670632108300    -0.766485237876     1.668385563389     1.007825032070
           C          4.825479891700    -0.460202237876     0.297426563389    12.000000000000
           H          4.979378891700    -0.385060237876    -0.769425436611     1.007825032070
           H          5.165572891700    -1.418622237876     0.657669563389     1.007825032070
           H          5.362416891700     0.337241762124     0.790699563389     1.007825032070

  Charge       = 0
  Multiplicity = 1
  Basis Set: 6-31G*
  Basis Set:

    Orbital Energies (a.u.)
    -----------------------

    Doubly Occupied:

       1A    -20.603324     2A    -20.544720     3A    -11.372639
       4A    -11.278199     5A    -11.234982     6A    -11.219189
       7A    -11.217710     8A    -11.216052     9A    -11.215891
      10A    -11.214496    11A    -11.209098    12A     -1.469255
      13A     -1.362602    14A     -1.098175    15A     -1.066917
      16A     -1.019527    17A     -0.976903    18A     -0.928380
      19A     -0.861579    20A     -0.799246    21A     -0.790486
      22A     -0.763598    23A     -0.702314    24A     -0.681616
      25A     -0.672493    26A     -0.650855    27A     -0.628963
      28A     -0.604382    29A     -0.595235    30A     -0.579750
      31A     -0.567324    32A     -0.550228    33A     -0.533552
      34A     -0.526263    35A     -0.516886    36A     -0.511717
      37A     -0.496549    38A     -0.477919    39A     -0.470241
      40A     -0.462481    41A     -0.458911    42A     -0.454357
      43A     -0.441628    44A     -0.435354

  @DF-RHF Final Energy:  -501.04267051841475

   => Energetics <=

    Nuclear Repulsion Energy =            610.2574334466344226
    One-Electron Energy =               -1891.6362333687632145
    Two-Electron Energy =                 780.3361294037126754
    DFT Exchange-Correlation Energy =       0.0000000000000000
    Empirical Dispersion Energy =           0.0000000000000000
    PCM Polarization Energy =               0.0000000000000000
    EFP Energy =                            0.0000000000000000
    Total Energy =                       -501.0426705184161165

  Mulliken Charges: (a.u.)
   Center  Symbol    Alpha    Beta     Spin     Total
       1     O     4.28635  4.28635  0.00000 -0.57269
       2     C     2.60472  2.60472  0.00000  0.79055
       3     C     3.21015  3.21015  0.00000 -0.42030
       4     O     4.30728  4.30728  0.00000 -0.61456
       5     C     3.15381  3.15381  0.00000 -0.30761
       6     H     0.39875  0.39875  0.00000  0.20251
       7     H     0.40104  0.40104  0.00000  0.19792
       8     C     3.15663  3.15663  0.00000 -0.31326
       9     H     0.41309  0.41309  0.00000  0.17382
      10     H     0.40869  0.40869  0.00000  0.18262
      11     C     3.15507  3.15507  0.00000 -0.31015
      12     H     0.41821  0.41821  0.00000  0.16358
      13     H     0.42385  0.42385  0.00000  0.15230
      14     C     3.15029  3.15029  0.00000 -0.30059
      15     H     0.42261  0.42261  0.00000  0.15477
      16     H     0.42361  0.42361  0.00000  0.15279
      17     C     3.15146  3.15146  0.00000 -0.30292
      18     H     0.42332  0.42332  0.00000  0.15336
      19     H     0.42396  0.42396  0.00000  0.15208
      20     C     3.23935  3.23935  0.00000 -0.47871
      21     H     0.42280  0.42280  0.00000  0.15439
      22     H     0.42342  0.42342  0.00000  0.15315
      23     H     0.41922  0.41922  0.00000  0.16155
      24     H     0.42154  0.42154  0.00000  0.15692
      25     H     0.42182  0.42182  0.00000  0.15636
      26     C     3.09712  3.09712  0.00000 -0.19423
      27     H     0.39812  0.39812  0.00000  0.20377
      28     H     0.41041  0.41041  0.00000  0.17917
      29     H     0.41330  0.41330  0.00000  0.17339

   Total alpha = 44.00000, Total beta = 44.00000, Total charge = -0.00000
