                              Psi4 1.0.54 Driver

  ==> Input File <==

--------------------------------------------------------------------------
set {
	reference rhf
	basis cc-pvtz
}

set_num_threads( 4 )
memory 2 gb

molecule MOL {
0 1

H	 -2.644180	 -0.653737	 1.272255
C	 -2.092774	 -0.380414	 0.391915
O	 -0.808934	 -0.154049	 0.752536
F	 -2.163230	 -1.351640	 -0.507133
F	 -2.627232	 0.691260	 -0.169301
C	 0.085006	 0.250800	 -0.215074
C	 1.370439	 -0.548013	 -0.012993
Cl	 0.421658	 1.987697	 -0.091007
H	 -0.272219	 0.063284	 -1.212508
F	 1.446944	 -1.521184	 -0.884835
F	 1.358626	 -1.079822	 1.186322
F	 2.437195	 0.195441	 -0.120500

	symmetry c1
}
set optking {
	frozen_dihedral = ("
		10 7 6 9
	")
}

ee,wfn = optimize('scf', return_wfn=True)
oeprop( wfn, 'DIPOLE', 'QUADRUPOLE', 'MULLIKEN_CHARGES')
f=open( 'psi4out.xyz', 'w' )
f.write( "12  " )
f.write( str(ee) + "\n" )
f.write( MOL.save_string_xyz() )
f.close()
--------------------------------------------------------------------------

    Molecular point group: c1
  Charge       = 0
  Multiplicity = 1
  Basis Set: CC-PVTZ
  Basis Set:
  @DF-RHF Final Energy: -1146.61063570571559
    Total Energy =                      -1146.6106357057151399
    Molecular point group: c1
  Basis Set: CC-PVTZ
  Basis Set:
  Basis Set: CC-PVTZ
  Basis Set:
  @DF-RHF Final Energy: -1146.61085155490400
    Total Energy =                      -1146.6108515549037747
  Basis Set: CC-PVTZ
  Basis Set:
  Basis Set: CC-PVTZ
  Basis Set:
  @DF-RHF Final Energy: -1146.61306128636602
    Total Energy =                      -1146.6130612863657916
  Basis Set: CC-PVTZ
  Basis Set:
  Basis Set: CC-PVTZ
  Basis Set:
  @DF-RHF Final Energy: -1146.61315400107605
    Total Energy =                      -1146.6131540010765093
  Basis Set: CC-PVTZ
  Basis Set:
  Basis Set: CC-PVTZ
  Basis Set:
  @DF-RHF Final Energy: -1146.61316960007616
    Total Energy =                      -1146.6131696000761622
  Basis Set: CC-PVTZ
  Basis Set:
  Basis Set: CC-PVTZ
  Basis Set:
  @DF-RHF Final Energy: -1146.61317190079308
    Total Energy =                      -1146.6131719007921674
  Basis Set: CC-PVTZ
  Basis Set:
  Charge       = 0
  Multiplicity = 1
  Basis Set: CC-PVTZ
  Basis Set:

    Orbital Energies (a.u.)
    -----------------------

    Doubly Occupied:

       1A   -104.856842     2A    -26.354723     3A    -26.353452
       4A    -26.351874     5A    -26.342713     6A    -26.342451
       7A    -20.638881     8A    -11.522114     9A    -11.482850
      10A    -11.401809    11A    -10.582435    12A     -8.049231
      13A     -8.047231    14A     -8.047165    15A     -1.768370
      16A     -1.723907    17A     -1.663611    18A     -1.659436
      19A     -1.644063    20A     -1.484965    21A     -1.176501
      22A     -1.051085    23A     -0.989775    24A     -0.923931
      25A     -0.862788    26A     -0.857897    27A     -0.851666
      28A     -0.829996    29A     -0.817894    30A     -0.795318
      31A     -0.731448    32A     -0.731005    33A     -0.711329
      34A     -0.708221    35A     -0.683446    36A     -0.681319
      37A     -0.665118    38A     -0.662968    39A     -0.650198
      40A     -0.635865    41A     -0.597697    42A     -0.580367
      43A     -0.524845    44A     -0.477192    45A     -0.470063

  @DF-RHF Final Energy: -1146.61317262959892

   => Energetics <=

    Nuclear Repulsion Energy =            736.1638919253605309
    One-Electron Energy =               -3055.5820220725854597
    Two-Electron Energy =                1172.8049575176266899
    DFT Exchange-Correlation Energy =       0.0000000000000000
    Empirical Dispersion Energy =           0.0000000000000000
    PCM Polarization Energy =               0.0000000000000000
    EFP Energy =                            0.0000000000000000
    Total Energy =                      -1146.6131726295982389
    Molecular point group: c1
  Basis Set: CC-PVTZ
  Basis Set:

  -Total Gradient:
     Atom            X                  Y                   Z
    ------   -----------------  -----------------  -----------------
       1       -0.000001469203    -0.000004382814    -0.000017337025
       2        0.000040854555    -0.000031838434     0.000000375582
       3       -0.000013082126    -0.000011257300     0.000009011413
       4       -0.000016608583     0.000039564740     0.000014658095
       5       -0.000044418126    -0.000042552605    -0.000018846023
       6        0.004923601082     0.007346242851    -0.003556081574
       7       -0.004009579195    -0.005406472869     0.004945262438
       8        0.000049195489     0.000053772316     0.000024739356
       9       -0.003515654236    -0.005308622400     0.002174260817
      10        0.002514767154     0.003324510922    -0.003498256306
      11        0.000050471864     0.000047667115    -0.000115428927
      12        0.000021921331    -0.000006631407     0.000037642151

  **** Optimization is complete! (in 7 steps) ****
    Final optimized geometry and variables:
    Molecular point group: c1

    Geometry (in Angstrom), charge = 0, multiplicity = 1:

    H           -2.649557348053    -0.788899268218     1.187070125502
    C           -2.085333601542    -0.450537848651     0.337894138964
    O           -0.819119082097    -0.208042796130     0.742765505756
    F           -2.103548165020    -1.374141299830    -0.614260450577
    F           -2.642358771939     0.632031381984    -0.179328168977
    C            0.084560827231     0.287634433657    -0.180454169279
    C            1.395660209443    -0.522629174661    -0.027161101769
    CL           0.330937388085     2.021442333951     0.060276524881
    H           -0.280605435247     0.122080260444    -1.177639228651
    F            1.412073386640    -1.456647574701    -0.954536467742
    F            1.492227877068    -1.091946531516     1.139977229520
    F            2.459746105974     0.213526233555    -0.210927445085

  Mulliken Charges: (a.u.)
   Center  Symbol    Alpha    Beta     Spin     Total
       1     H     0.45207  0.45207  0.00000  0.09587
       2     C     2.73964  2.73964  0.00000  0.52072
       3     O     4.15283  4.15283  0.00000 -0.30566
       4     F     4.61896  4.61896  0.00000 -0.23792
       5     F     4.61531  4.61531  0.00000 -0.23062
       6     C     2.95604  2.95604  0.00000  0.08793
       7     C     2.66518  2.66518  0.00000  0.66963
       8    CL     8.56743  8.56743  0.00000 -0.13486
       9     H     0.43138  0.43138  0.00000  0.13724
      10     F     4.60688  4.60688  0.00000 -0.21376
      11     F     4.59606  4.59606  0.00000 -0.19211
      12     F     4.59823  4.59823  0.00000 -0.19645

   Total alpha = 45.00000, Total beta = 45.00000, Total charge = -0.00000

*** Psi4 exiting successfully. Buy a developer a beer!
