  ==> Input File <==

--------------------------------------------------------------------------
set {
	reference rhf
	basis 6-31G*
}

set_num_threads( 4 )
memory 2 gb

molecule MOL {
0 1

H	 2.591676	 2.013956	 0.335017
O	 3.341076	 1.666752	 -0.126416
C	 3.569581	 0.339145	 0.272707
C	 2.539767	 -0.640285	 -0.279495
H	 4.553106	 0.084646	 -0.100901
H	 3.608576	 0.269204	 1.359154
C	 1.115811	 -0.397273	 0.226630
H	 2.556196	 -0.582511	 -1.364741
H	 2.852081	 -1.648031	 -0.010655
C	 0.056510	 -0.627210	 -0.854955
H	 1.038293	 0.620071	 0.599949
H	 0.913856	 -1.057305	 1.070380
C	 -1.393097	 -0.480286	 -0.378095
H	 0.234521	 0.057989	 -1.681793
H	 0.186130	 -1.629083	 -1.258874
C	 -1.792781	 0.936783	 0.042198
H	 -2.051617	 -0.802058	 -1.182228
H	 -1.570420	 -1.165541	 0.449443
C	 -3.273744	 1.054479	 0.408711
H	 -1.568298	 1.628465	 -0.768538
H	 -1.194410	 1.258129	 0.891311
C	 -3.673943	 2.466559	 0.834782
H	 -3.880216	 0.748844	 -0.441152
H	 -3.502093	 0.357105	 1.212086
H	 -3.488048	 3.183394	 0.039915
H	 -4.728865	 2.517925	 1.086051
H	 -3.110674	 2.787973	 1.706438

	symmetry c1
}
set optking {
	frozen_dihedral = ("
		10 7 4 8
	")
}

ee = optimize('scf')
oeprop('DIPOLE', 'QUADRUPOLE', 'MULLIKEN_CHARGES')
f=open( 'psi4out.xyz', 'w' )
f.write( "27  " )
f.write( str(ee) + "\n" )
f.write( MOL.save_string_xyz() )
f.close()
--------------------------------------------------------------------------

    Molecular point group: c1
  Charge       = 0
  Multiplicity = 1
  Basis Set: 6-31G*
  Basis Set:
  @DF-RHF Final Energy:  -388.27752022551368
    Total Energy =                       -388.2775202255140812
    Molecular point group: c1
  Basis Set: 6-31G*
  Basis Set:
  Basis Set: 6-31G*
  Basis Set:
  @DF-RHF Final Energy:  -388.27772864184141
    Total Energy =                       -388.2777286418419180
  Basis Set: 6-31G*
  Basis Set:
  Basis Set: 6-31G*
  Basis Set:
  @DF-RHF Final Energy:  -388.27792955422183
    Total Energy =                       -388.2779295542209184
  Basis Set: 6-31G*
  Basis Set:
  Basis Set: 6-31G*
  Basis Set:
  @DF-RHF Final Energy:  -388.27794266096396
    Total Energy =                       -388.2779426609632765
  Basis Set: 6-31G*
  Basis Set:
  Basis Set: 6-31G*
  Basis Set:
  @DF-RHF Final Energy:  -388.27794018145698
    Total Energy =                       -388.2779401814572111
  Basis Set: 6-31G*
  Basis Set:
  Basis Set: 6-31G*
  Basis Set:
  @DF-RHF Final Energy:  -388.27794654822520
    Total Energy =                       -388.2779465482258274
  Basis Set: 6-31G*
  Basis Set:
  Basis Set: 6-31G*
  Basis Set:
  @DF-RHF Final Energy:  -388.27794783809344
    Total Energy =                       -388.2779478380932687
  Basis Set: 6-31G*
  Basis Set:
  Charge       = 0
  Multiplicity = 1
  Basis Set: 6-31G*
  Basis Set:

    Orbital Energies (a.u.)
    -----------------------

    Doubly Occupied:

       1A    -20.551786     2A    -11.267190     3A    -11.220907
       4A    -11.217130     5A    -11.216524     6A    -11.215656
       7A    -11.215300     8A    -11.214946     9A    -11.209908
      10A     -1.358755    11A     -1.094884    12A     -1.060742
      13A     -1.011423    14A     -0.948939    15A     -0.888043
      16A     -0.820817    17A     -0.803297    18A     -0.778356
      19A     -0.692156    20A     -0.652934    21A     -0.640950
      22A     -0.612309    23A     -0.595330    24A     -0.583617
      25A     -0.579205    26A     -0.554456    27A     -0.540375
      28A     -0.535388    29A     -0.509036    30A     -0.492095
      31A     -0.487206    32A     -0.469731    33A     -0.467933
      34A     -0.460167    35A     -0.453593    36A     -0.440933
      37A     -0.423996

  @DF-RHF Final Energy:  -388.27794795500756

   => Energetics <=

    Nuclear Repulsion Energy =            461.5973055522003961
    One-Electron Energy =               -1441.1784831125480650
    Two-Electron Energy =                 591.3032296053398795
    DFT Exchange-Correlation Energy =       0.0000000000000000
    Empirical Dispersion Energy =           0.0000000000000000
    PCM Polarization Energy =               0.0000000000000000
    EFP Energy =                            0.0000000000000000
    Total Energy =                       -388.2779479550077895
    Molecular point group: c1
  Basis Set: 6-31G*
  Basis Set:

  -Total Gradient:
     Atom            X                  Y                   Z
    ------   -----------------  -----------------  -----------------
       1       -0.000011241642     0.000022717229     0.000003631299
       2       -0.000053581276    -0.000034126721     0.000022078694
       3        0.000142943299    -0.000062692212    -0.000060215005
       4        0.001054954157     0.005380388787    -0.000201012353
       5        0.000025266957     0.000009887581     0.000014671042
       6       -0.000019027818     0.000008937823    -0.000007641253
       7       -0.000585138824    -0.004372374899     0.001093945418
       8       -0.000646823352    -0.003589731101    -0.000073971368
       9        0.000041138497     0.000044245327    -0.000047947446
      10        0.000169406338     0.002546306795    -0.000737996779
      11       -0.000060972089    -0.000018302954     0.000007953721
      12       -0.000049275554     0.000076562819    -0.000002040832
      13       -0.000016836227    -0.000015958961    -0.000015164847
      14       -0.000011692380     0.000000074497    -0.000010675145
      15        0.000030040222     0.000003081494     0.000016579904
      16        0.000005765142    -0.000009339092    -0.000002397454
      17       -0.000011058452     0.000013481061     0.000004165651
      18       -0.000008921126    -0.000007954762    -0.000003530118
      19       -0.000001046964     0.000002276729    -0.000006374987
      20       -0.000004975628    -0.000010110728    -0.000005349301
      21        0.000008141336     0.000011008522     0.000003744268
      22        0.000001839643    -0.000002189725     0.000012929903
      23        0.000001342708     0.000005862126    -0.000003195577
      24       -0.000000887765    -0.000002103775    -0.000006121912
      25       -0.000002259047    -0.000003947109    -0.000001192713
      26        0.000001186832    -0.000000434045     0.000004316122
      27        0.000001713005     0.000004435296     0.000000811069

  **** Optimization is complete! (in 8 steps) ****
    Final optimized geometry and variables:
    Molecular point group: c1

    Geometry (in Angstrom), charge = 0, multiplicity = 1:

    H            2.600955776247     1.522466341034     0.162597575474
    O            3.363331126589     1.111499088278    -0.218088491132
    C            3.492094587033    -0.199832024022     0.268580934781
    C            2.436368503052    -1.149480631454    -0.283972555094
    H            4.476242138318    -0.529750758015    -0.038019021619
    H            3.472806842517    -0.207315861163     1.357765678840
    C            1.000796167169    -0.870402956004     0.202800882948
    H            2.475287733462    -1.124795247549    -1.369226465259
    H            2.715875854588    -2.163776693419    -0.005464344404
    C           -0.054263001921    -1.114638956139    -0.880196408419
    H            0.919463270398     0.161407176321     0.537000407702
    H            0.782269582385    -1.480015478982     1.076154840826
    C           -1.506767200198    -0.983721025985    -0.409027819469
    H            0.123709465983    -0.427834884253    -1.705326594969
    H            0.087268005568    -2.115215187003    -1.284415792008
    C           -1.916488086234     0.423582453386     0.034108990188
    H           -2.159210922684    -1.295109619581    -1.222134325858
    H           -1.684765793074    -1.683740895464     0.405847250154
    C           -3.402034231280     0.529255962296     0.385426313104
    H           -1.685200017057     1.132082628213    -0.760260457486
    H           -1.329731029352     0.729375828951     0.897158287868
    C           -3.811487224121     1.930361189539     0.838052875865
    H           -3.997268625200     0.241011025913    -0.478287834324
    H           -3.637694347127    -0.186465667015     1.170283551360
    H           -3.618682025134     2.665242198210     0.061493544314
    H           -4.869402948360     1.973151068029     1.077962566203
    H           -3.259552851281     2.233809475792     1.723328778918

  Mulliken Charges: (a.u.)
   Center  Symbol    Alpha    Beta     Spin     Total
       1     H     0.27949  0.27949  0.00000  0.44102
       2     O     4.37125  4.37125  0.00000 -0.74250
       3     C     2.99845  2.99845  0.00000  0.00310
       4     C     3.16436  3.16436  0.00000 -0.32872
       5     H     0.41474  0.41474  0.00000  0.17052
       6     H     0.43184  0.43184  0.00000  0.13633
       7     C     3.15852  3.15852  0.00000 -0.31704
       8     H     0.41267  0.41267  0.00000  0.17466
       9     H     0.42239  0.42239  0.00000  0.15523
      10     C     3.15461  3.15461  0.00000 -0.30922
      11     H     0.43235  0.43235  0.00000  0.13530
      12     H     0.41965  0.41965  0.00000  0.16069
      13     C     3.15390  3.15390  0.00000 -0.30780
      14     H     0.42011  0.42011  0.00000  0.15977
      15     H     0.42065  0.42065  0.00000  0.15870
      16     C     3.15304  3.15304  0.00000 -0.30608
      17     H     0.42103  0.42103  0.00000  0.15794
      18     H     0.42390  0.42390  0.00000  0.15220
      19     C     3.15106  3.15106  0.00000 -0.30212
      20     H     0.42409  0.42409  0.00000  0.15182
      21     H     0.42399  0.42399  0.00000  0.15202
      22     C     3.23928  3.23928  0.00000 -0.47855
      23     H     0.42260  0.42260  0.00000  0.15479
      24     H     0.42302  0.42302  0.00000  0.15395
      25     H     0.42157  0.42157  0.00000  0.15685
      26     H     0.41901  0.41901  0.00000  0.16199
      27     H     0.42242  0.42242  0.00000  0.15516

   Total alpha = 37.00000, Total beta = 37.00000, Total charge = -0.00000
