                              Psi4 1.0.54 Driver

  ==> Input File <==

--------------------------------------------------------------------------
set {
	reference rhf
	basis cc-pvtz
}

set_num_threads( 4 )
memory 2 gb

molecule MOL {
0 1

H	 1.015181	 -4.381372	 3.710248
C	 1.087515	 -3.807152	 2.794199
C	 -0.119538	 -2.891323	 2.624101
H	 2.009310	 -3.236478	 2.835002
H	 1.170267	 -4.508784	 1.970863
C	 -0.059285	 -2.065421	 1.347690
H	 -0.198524	 -2.217523	 3.469985
H	 -1.027498	 -3.489793	 2.619801
N	 -1.205681	 -1.190777	 1.227239
H	 0.834378	 -1.448708	 1.361817
H	 0.041627	 -2.734338	 0.487778
C	 -1.215959	 -0.382435	 0.027143
H	 -2.046127	 -1.727694	 1.279106
C	 -2.451944	 0.502410	 -0.038737
H	 -0.327929	 0.242481	 0.034839
H	 -1.156892	 -0.990452	 -0.880548
C	 -3.752217	 -0.292550	 0.005776
H	 -2.407325	 1.093801	 -0.946480
H	 -2.431979	 1.206234	 0.790023
H	 -3.817783	 -0.982946	 -0.828547
H	 -4.612613	 0.364348	 -0.042306
H	 -3.830160	 -0.871666	 0.919868

	symmetry c1
}
set optking {
	frozen_dihedral = ("
		15 12 14 18
	")
}

ee,wfn = optimize('scf', return_wfn=True)
oeprop( wfn, 'DIPOLE', 'QUADRUPOLE', 'MULLIKEN_CHARGES')
f=open( 'psi4out.xyz', 'w' )
f.write( "22  " )
f.write( str(ee) + "\n" )
f.write( MOL.save_string_xyz() )
f.close()
--------------------------------------------------------------------------

    Molecular point group: c1
  Charge       = 0
  Multiplicity = 1
  Basis Set: CC-PVTZ
  Basis Set:
  @DF-RHF Final Energy:  -290.48789874415712
    Total Energy =                       -290.4878987441570075
    Molecular point group: c1
  Basis Set: CC-PVTZ
  Basis Set:
  Basis Set: CC-PVTZ
  Basis Set:
  @DF-RHF Final Energy:  -290.48800532302556
    Total Energy =                       -290.4880053230258454
  Basis Set: CC-PVTZ
  Basis Set:
  Basis Set: CC-PVTZ
  Basis Set:
  @DF-RHF Final Energy:  -290.48874096963829
    Total Energy =                       -290.4887409696380587
  Basis Set: CC-PVTZ
  Basis Set:
  Basis Set: CC-PVTZ
  Basis Set:
  @DF-RHF Final Energy:  -290.48877390344796
    Total Energy =                       -290.4887739034483047
  Basis Set: CC-PVTZ
  Basis Set:
  Basis Set: CC-PVTZ
  Basis Set:
  @DF-RHF Final Energy:  -290.48877673719960
    Total Energy =                       -290.4887767371993732
  Basis Set: CC-PVTZ
  Basis Set:
  Charge       = 0
  Multiplicity = 1
  Basis Set: CC-PVTZ
  Basis Set:

    Orbital Energies (a.u.)
    -----------------------

    Doubly Occupied:

       1A    -15.527897     2A    -11.236495     3A    -11.236246
       4A    -11.211921     5A    -11.211659     6A    -11.207790
       7A    -11.207630     8A     -1.207505     9A     -1.059810
      10A     -1.024567    11A     -0.929267    12A     -0.880516
      13A     -0.805722    14A     -0.788433    15A     -0.669917
      16A     -0.635266    17A     -0.624113    18A     -0.588567
      19A     -0.574093    20A     -0.573524    21A     -0.544631
      22A     -0.529460    23A     -0.506360    24A     -0.486696
      25A     -0.480809    26A     -0.472795    27A     -0.467202
      28A     -0.452094    29A     -0.361258

  @DF-RHF Final Energy:  -290.48877693259436

   => Energetics <=

    Nuclear Repulsion Energy =            317.9171343882148335
    One-Electron Energy =               -1021.8073380590910801
    Two-Electron Energy =                 413.4014267382815433
    DFT Exchange-Correlation Energy =       0.0000000000000000
    Empirical Dispersion Energy =           0.0000000000000000
    PCM Polarization Energy =               0.0000000000000000
    EFP Energy =                            0.0000000000000000
    Total Energy =                       -290.4887769325946465
    Molecular point group: c1
  Basis Set: CC-PVTZ
  Basis Set:

  -Total Gradient:
     Atom            X                  Y                   Z
    ------   -----------------  -----------------  -----------------
       1        0.000000642595    -0.000001363448     0.000001621784
       2       -0.000003021857     0.000000794227    -0.000000286209
       3        0.000004279728    -0.000003221417    -0.000001133852
       4        0.000001057003     0.000001044021    -0.000000000048
       5       -0.000000335234    -0.000000068869    -0.000000483132
       6       -0.000020753384     0.000007859978     0.000007000925
       7        0.000000205246     0.000000749344    -0.000000072107
       8       -0.000000901520    -0.000000489628     0.000000557136
       9        0.000007905531    -0.000016882891    -0.000016698057
      10        0.000001785989     0.000002180004    -0.000002729591
      11        0.000001126336    -0.000003579300    -0.000001286807
      12       -0.000153893915    -0.000250613513    -0.001672325647
      13       -0.000008734633    -0.000000323988     0.000006200887
      14        0.000875314926     0.001069261107     0.001000610922
      15        0.000014756564     0.000072261570     0.001275517886
      16       -0.000004484231     0.000002076213    -0.000001785619
      17       -0.000001820652     0.000004425459    -0.000004564616
      18       -0.000730988510    -0.000874208692    -0.000594876484
      19        0.000009230042    -0.000004532698     0.000000539255
      20       -0.000004529545     0.000007310269     0.000016686623
      21        0.000012221980    -0.000014769761     0.000003110262
      22        0.000000937544     0.000002092011    -0.000015603514

  **** Optimization is complete! (in 6 steps) ****
    Final optimized geometry and variables:
    Molecular point group: c1

    Geometry (in Angstrom), charge = 0, multiplicity = 1:

    H            2.145861221234    -2.940829006873     2.570036629246
    C            2.209740854454    -2.370591369136     1.650855637142
    C            0.993758940581    -1.466762701224     1.480437922291
    H            3.126354962071    -1.791248343585     1.685498277858
    H            2.295913558035    -3.075545419777     0.830718713015
    C            1.042759945032    -0.645997821516     0.200222705582
    H            0.911349380634    -0.789872906515     2.323551412681
    H            0.091472600127    -2.073799405924     1.481640313455
    N           -0.110677508438     0.220529145074     0.081686385807
    H            1.932822567277    -0.024160635558     0.207345581833
    H            1.143311596636    -1.318525587212    -0.656959598944
    C           -0.132487256250     1.011832119089    -1.131295758487
    H           -0.941908461108    -0.326478670254     0.149127779686
    C           -1.294919906880     1.997052918670    -1.167203218776
    H            0.795413093242     1.572534186538    -1.167267123810
    H           -0.157662573220     0.387434142592    -2.029492399553
    C           -2.675648162735     1.347968776257    -1.102343886085
    H           -1.223078579055     2.562791722438    -2.091391826323
    H           -1.185591294904     2.700189409064    -0.348934433501
    H           -2.799997000715     0.608642591636    -1.887865327164
    H           -3.454550148790     2.091279963378    -1.225322155828
    H           -2.847029279047     0.859669715916    -0.150205169652

  Mulliken Charges: (a.u.)
   Center  Symbol    Alpha    Beta     Spin     Total
       1     H     0.44770  0.44770  0.00000  0.10460
       2     C     3.15342  3.15342  0.00000 -0.30684
       3     C     3.08107  3.08107  0.00000 -0.16215
       4     H     0.45464  0.45464  0.00000  0.09072
       5     H     0.45607  0.45607  0.00000  0.08785
       6     C     3.02174  3.02174  0.00000 -0.04349
       7     H     0.44913  0.44913  0.00000  0.10174
       8     H     0.45987  0.45987  0.00000  0.08025
       9     N     3.64115  3.64115  0.00000 -0.28229
      10     H     0.45923  0.45923  0.00000  0.08154
      11     H     0.47493  0.47493  0.00000  0.05013
      12     C     3.03628  3.03628  0.00000 -0.07257
      13     H     0.44169  0.44169  0.00000  0.11661
      14     C     3.07896  3.07896  0.00000 -0.15792
      15     H     0.45416  0.45416  0.00000  0.09168
      16     H     0.46970  0.46970  0.00000  0.06060
      17     C     3.15907  3.15907  0.00000 -0.31814
      18     H     0.45503  0.45503  0.00000  0.08993
      19     H     0.45211  0.45211  0.00000  0.09578
      20     H     0.45426  0.45426  0.00000  0.09148
      21     H     0.44547  0.44547  0.00000  0.10906
      22     H     0.45428  0.45428  0.00000  0.09143

   Total alpha = 29.00000, Total beta = 29.00000, Total charge = -0.00000

*** Psi4 exiting successfully. Buy a developer a beer!
