  ==> Input File <==

--------------------------------------------------------------------------
set {
	reference rhf
	basis cc-pvtz
}

set_num_threads( 4 )
memory 2 gb

molecule MOL {
0 1

H	 -0.559488	 -1.548965	 -0.438174
N	 -0.625934	 -0.663929	 -0.000707
C	 -1.882356	 -0.290438	 0.605102
C	 0.468494	 0.129045	 -0.002160
H	 -2.677797	 -0.273083	 -0.130398
H	 -1.776229	 0.694593	 1.026464
H	 -2.153918	 -0.981540	 1.394196
C	 1.785715	 -0.615093	 0.000603
O	 0.413285	 1.323206	 0.000532
H	 1.866994	 -1.243310	 -0.878792
H	 2.591506	 0.100263	 0.006422
H	 1.860358	 -1.250360	 0.875522

	symmetry c1
}
set optking {
	frozen_dihedral = ("
		3 2 4 9
	")
}

ee = optimize('scf')
oeprop('DIPOLE', 'QUADRUPOLE', 'MULLIKEN_CHARGES')
f=open( 'psi4out.xyz', 'w' )
f.write( "12  " )
f.write( str(ee) + "\n" )
f.write( MOL.save_string_xyz() )
f.close()
--------------------------------------------------------------------------

    Molecular point group: c1
  Charge       = 0
  Multiplicity = 1
  Basis Set: CC-PVTZ
  Basis Set:
  @DF-RHF Final Energy:  -247.09152352340220
    Total Energy =                       -247.0915235234023726
    Molecular point group: c1
  Basis Set: CC-PVTZ
  Basis Set:
  Basis Set: CC-PVTZ
  Basis Set:
  @DF-RHF Final Energy:  -247.09410988248661
    Total Energy =                       -247.0941098824866913
  Basis Set: CC-PVTZ
  Basis Set:
  Basis Set: CC-PVTZ
  Basis Set:
  @DF-RHF Final Energy:  -247.09726995865589
    Total Energy =                       -247.0972699586559429
  Basis Set: CC-PVTZ
  Basis Set:
  Basis Set: CC-PVTZ
  Basis Set:
  @DF-RHF Final Energy:  -247.09778805887743
    Total Energy =                       -247.0977880588774269
  Basis Set: CC-PVTZ
  Basis Set:
  @DF-RHF Final Energy:  -247.09796053310546
    Total Energy =                       -247.0979605331057201
  @DF-RHF Final Energy:  -247.09812468471642
    Total Energy =                       -247.0981246847164243
  @DF-RHF Final Energy:  -247.09842451912618
    Total Energy =                       -247.0984245191261834
  Basis Set: CC-PVTZ
  Basis Set:
  @DF-RHF Final Energy:  -247.09851858418696
    Total Energy =                       -247.0985185841871044
  Basis Set: CC-PVTZ
  Basis Set:
  Basis Set: CC-PVTZ
  Basis Set:
  @DF-RHF Final Energy:  -247.09853101575123
    Total Energy =                       -247.0985310157510639
  Basis Set: CC-PVTZ
  Basis Set:
  Basis Set: CC-PVTZ
  Basis Set:
  @DF-RHF Final Energy:  -247.09853202284344
    Total Energy =                       -247.0985320228434716
  Basis Set: CC-PVTZ
  Basis Set:
  Charge       = 0
  Multiplicity = 1
  Basis Set: CC-PVTZ
  Basis Set:

    Orbital Energies (a.u.)
    -----------------------

    Doubly Occupied:

       1A    -20.513476     2A    -15.574282     3A    -11.338289
       4A    -11.253846     5A    -11.230392     6A     -1.393873
       7A     -1.230780     8A     -1.016890     9A     -0.931849
      10A     -0.781415    11A     -0.691660    12A     -0.652578
      13A     -0.635418    14A     -0.589876    15A     -0.584505
      16A     -0.554974    17A     -0.547084    18A     -0.509776
      19A     -0.423008    20A     -0.394987

  @DF-RHF Final Energy:  -247.09853234094317

   => Energetics <=

    Nuclear Repulsion Energy =            181.6592548673802980
    One-Electron Energy =                -695.8176573261359863
    Two-Electron Energy =                 267.0598701178125793
    DFT Exchange-Correlation Energy =       0.0000000000000000
    Empirical Dispersion Energy =           0.0000000000000000
    PCM Polarization Energy =               0.0000000000000000
    EFP Energy =                            0.0000000000000000
    Total Energy =                       -247.0985323409431658
    Molecular point group: c1
  Basis Set: CC-PVTZ
  Basis Set:

  -Total Gradient:
     Atom            X                  Y                   Z
    ------   -----------------  -----------------  -----------------
       1        0.000125096779     0.000018379318     0.000005421946
       2       -0.001617971349     0.007637539364    -0.009011110644
       3        0.001190535330    -0.004157341374     0.003891627363
       4       -0.000245945959    -0.006071441119     0.011754789500
       5       -0.000019907148     0.000014604452    -0.000009877225
       6        0.000003887643    -0.000011390084    -0.000035380473
       7       -0.000036928596    -0.000004871094     0.000020302294
       8       -0.000038343092    -0.000037493403     0.000030630375
       9        0.000617972123     0.002604283902    -0.006627495144
      10        0.000017082647    -0.000025294544    -0.000008472872
      11       -0.000000270446     0.000006635275    -0.000005913126
      12        0.000004792065     0.000026389311    -0.000004521993

  **** Optimization is complete! (in 11 steps) ****
    Final optimized geometry and variables:
    Molecular point group: c1

    Geometry (in Angstrom), charge = 0, multiplicity = 1:

    H           -0.550207517049    -1.474109682579    -0.624005174144
    N           -0.678273869193    -0.516040637993    -0.397951858633
    C           -1.930158264026    -0.219370649104     0.272083603105
    C            0.462863922410     0.137440821421    -0.030932605928
    H           -2.737344660583    -0.702115226980    -0.260874293055
    H           -2.097572564850     0.845266599836     0.263842473953
    H           -1.934346996319    -0.560424988185     1.302292478408
    C            1.746900651802    -0.618180437122    -0.285267302469
    O            0.455517956406     1.248488866245     0.401691547842
    H            1.703331405065    -1.178607392526    -1.210883607452
    H            2.567876567793     0.079869793379    -0.317425129197
    H            1.913813518683    -1.318161056601     0.526484689910

  Mulliken Charges: (a.u.)
   Center  Symbol    Alpha    Beta     Spin     Total
       1     H     0.42271  0.42271  0.00000  0.15457
       2     N     3.61338  3.61338  0.00000 -0.22675
       3     C     3.08388  3.08388  0.00000 -0.16776
       4     C     2.83721  2.83721  0.00000  0.32557
       5     H     0.45265  0.45265  0.00000  0.09469
       6     H     0.43552  0.43552  0.00000  0.12896
       7     H     0.46081  0.46081  0.00000  0.07838
       8     C     3.15271  3.15271  0.00000 -0.30541
       9     O     4.20706  4.20706  0.00000 -0.41413
      10     H     0.45214  0.45214  0.00000  0.09572
      11     H     0.43420  0.43420  0.00000  0.13161
      12     H     0.44773  0.44773  0.00000  0.10455

   Total alpha = 20.00000, Total beta = 20.00000, Total charge =  0.00000
