  ==> Input File <==

--------------------------------------------------------------------------
set {
	reference rhf
	basis 6-31G*
}

set_num_threads( 1 )
memory 2 gb

molecule MOL {
0 1

O	 1.214711	 1.306902	 -0.000291
C	 1.122059	 0.121804	 -0.000188
C	 -0.170150	 -0.657997	 -0.000227
O	 2.172624	 -0.688929	 0.000216
C	 -1.412532	 0.227344	 -0.000051
H	 -0.153847	 -1.313287	 -0.866878
H	 -0.153779	 -1.313623	 0.866169
C	 -2.706999	 -0.587347	 0.000253
H	 -1.388145	 0.879278	 -0.867744
H	 -1.387827	 0.879326	 0.867597
C	 -3.956777	 0.291889	 0.001723
H	 -2.726260	 -1.239418	 -0.870670
H	 -2.725071	 -1.240655	 0.870272
H	 -3.985359	 0.933065	 -0.874480
H	 -4.860123	 -0.309978	 0.001613
H	 -3.984471	 0.931357	 0.879193
C	 3.452279	 -0.082609	 0.000533
H	 3.583069	 0.529321	 -0.880332
H	 4.163299	 -0.894027	 0.001117
H	 3.582335	 0.529955	 0.881077

	symmetry c1
}
set optking {
	frozen_dihedral = ("
		9 5 8 12,
		1 2 3 6,
		9 5 3 6
	")
}

ee = energy('scf')
oeprop('DIPOLE', 'QUADRUPOLE', 'MULLIKEN_CHARGES')
f=open( 'psi4out.xyz', 'w' )
f.write( "20  " )
f.write( str(ee) + "\n" )
f.write( MOL.save_string_xyz() )
f.close()
--------------------------------------------------------------------------

    Molecular point group: c1

    Geometry (in Angstrom), charge = 0, multiplicity = 1:

       Center              X                  Y                   Z               Mass
    ------------   -----------------  -----------------  -----------------  -----------------
           O          1.214711157728     1.306901975431    -0.000552058464    15.994914619560
           C          1.122059157728     0.121803975431    -0.000449058464    12.000000000000
           C         -0.170149842272    -0.657997024569    -0.000488058464    12.000000000000
           O          2.172624157728    -0.688929024569    -0.000045058464    15.994914619560
           C         -1.412531842272     0.227343975431    -0.000312058464    12.000000000000
           H         -0.153846842272    -1.313287024569    -0.867139058464     1.007825032070
           H         -0.153778842272    -1.313623024569     0.865907941536     1.007825032070
           C         -2.706998842272    -0.587347024569    -0.000008058464    12.000000000000
           H         -1.388144842272     0.879277975431    -0.868005058464     1.007825032070
           H         -1.387826842272     0.879325975431     0.867335941536     1.007825032070
           C         -3.956776842272     0.291888975431     0.001461941536    12.000000000000
           H         -2.726259842272    -1.239418024569    -0.870931058464     1.007825032070
           H         -2.725070842272    -1.240655024569     0.870010941536     1.007825032070
           H         -3.985358842272     0.933064975431    -0.874741058464     1.007825032070
           H         -4.860122842272    -0.309978024569     0.001351941536     1.007825032070
           H         -3.984470842272     0.931356975431     0.878931941536     1.007825032070
           C          3.452279157728    -0.082609024569     0.000271941536    12.000000000000
           H          3.583069157728     0.529320975431    -0.880593058464     1.007825032070
           H          4.163299157728    -0.894027024569     0.000855941536     1.007825032070
           H          3.582335157728     0.529954975431     0.880815941536     1.007825032070

  Charge       = 0
  Multiplicity = 1
  Basis Set: 6-31G*
  Basis Set:

    Orbital Energies (a.u.)
    -----------------------

    Doubly Occupied:

       1A    -20.603769     2A    -20.545539     3A    -11.372412
       4A    -11.280962     5A    -11.235743     6A    -11.220333
       7A    -11.219363     8A    -11.210672     9A     -1.469467
      10A     -1.362909    11A     -1.088778    12A     -1.024446
      13A     -0.969157    14A     -0.885892    15A     -0.804047
      16A     -0.767625    17A     -0.696825    18A     -0.683830
      19A     -0.672012    20A     -0.646139    21A     -0.597505
      22A     -0.592094    23A     -0.578908    24A     -0.539054
      25A     -0.537769    26A     -0.522811    27A     -0.500677
      28A     -0.478260    29A     -0.473454    30A     -0.470687
      31A     -0.455816    32A     -0.437057

  @DF-RHF Final Energy:  -383.94159348176203

   => Energetics <=

    Nuclear Repulsion Energy =            381.0722042485331826
    One-Electron Energy =               -1278.1397745040644622
    Two-Electron Energy =                 513.1259767737693664
    DFT Exchange-Correlation Energy =       0.0000000000000000
    Empirical Dispersion Energy =           0.0000000000000000
    PCM Polarization Energy =               0.0000000000000000
    EFP Energy =                            0.0000000000000000
    Total Energy =                       -383.9415934817619700

  Mulliken Charges: (a.u.)
   Center  Symbol    Alpha    Beta     Spin     Total
       1     O     4.28599  4.28599  0.00000 -0.57197
       2     C     2.60524  2.60524  0.00000  0.78952
       3     C     3.20816  3.20816  0.00000 -0.41631
       4     O     4.30722  4.30722  0.00000 -0.61445
       5     C     3.15110  3.15110  0.00000 -0.30219
       6     H     0.40066  0.40066  0.00000  0.19868
       7     H     0.40066  0.40066  0.00000  0.19868
       8     C     3.15424  3.15424  0.00000 -0.30847
       9     H     0.41195  0.41195  0.00000  0.17609
      10     H     0.41196  0.41196  0.00000  0.17608
      11     C     3.23931  3.23931  0.00000 -0.47863
      12     H     0.42295  0.42295  0.00000  0.15410
      13     H     0.42296  0.42296  0.00000  0.15409
      14     H     0.41996  0.41996  0.00000  0.16008
      15     H     0.41873  0.41873  0.00000  0.16253
      16     H     0.41996  0.41996  0.00000  0.16008
      17     C     3.09246  3.09246  0.00000 -0.18491
      18     H     0.40905  0.40905  0.00000  0.18190
      19     H     0.40840  0.40840  0.00000  0.18319
      20     H     0.40904  0.40904  0.00000  0.18191

   Total alpha = 32.00000, Total beta = 32.00000, Total charge =  0.00000
