  ==> Input File <==

--------------------------------------------------------------------------
set {
	reference rhf
	basis 6-31G*
}

set_num_threads( 4 )
memory 2 gb

molecule MOL {
0 1

H	 3.566591	 -0.932302	 0.676169
O	 2.826016	 -1.159218	 0.122261
C	 2.077727	 -0.067559	 -0.035091
C	 0.624473	 -0.343591	 0.253101
O	 2.542965	 0.974826	 -0.363729
C	 -0.265902	 0.883932	 0.072916
H	 0.324016	 -1.163849	 -0.390541
H	 0.565024	 -0.726111	 1.268924
C	 -1.728698	 0.646073	 0.462102
H	 -0.209144	 1.219470	 -0.958188
H	 0.135059	 1.692851	 0.673903
C	 -2.482460	 -0.343073	 -0.431425
H	 -2.245265	 1.602650	 0.432430
H	 -1.779332	 0.308348	 1.496285
C	 -3.960546	 -0.461025	 -0.060175
H	 -2.395034	 -0.026811	 -1.468912
H	 -2.024850	 -1.327147	 -0.371646
H	 -4.472726	 -1.168004	 -0.705284
H	 -4.465146	 0.496508	 -0.151489
H	 -4.081218	 -0.800940	 0.964585

	symmetry c1
}
set optking {
	frozen_dihedral = ("
		1 2 3 5
	")
}

ee = optimize('scf')
oeprop('DIPOLE', 'QUADRUPOLE', 'MULLIKEN_CHARGES')
f=open( 'psi4out.xyz', 'w' )
f.write( "20  " )
f.write( str(ee) + "\n" )
f.write( MOL.save_string_xyz() )
f.close()
--------------------------------------------------------------------------

    Molecular point group: c1
  Charge       = 0
  Multiplicity = 1
  Basis Set: 6-31G*
  Basis Set:
  @DF-RHF Final Energy:  -383.93594583081614
    Total Energy =                       -383.9359458308159674
    Molecular point group: c1
  Basis Set: 6-31G*
  Basis Set:
  Basis Set: 6-31G*
  Basis Set:
  @DF-RHF Final Energy:  -383.93405351475110
    Total Energy =                       -383.9340535147513265
  Basis Set: 6-31G*
  Basis Set:
  Basis Set: 6-31G*
  Basis Set:
  @DF-RHF Final Energy:  -383.93698297081721
    Total Energy =                       -383.9369829708165298
  Basis Set: 6-31G*
  Basis Set:
  Basis Set: 6-31G*
  Basis Set:
  @DF-RHF Final Energy:  -383.93707729021963
    Total Energy =                       -383.9370772902201452
  Basis Set: 6-31G*
  Basis Set:
  Basis Set: 6-31G*
  Basis Set:
  @DF-RHF Final Energy:  -383.93708194264798
    Total Energy =                       -383.9370819426478647
  Basis Set: 6-31G*
  Basis Set:
  Basis Set: 6-31G*
  Basis Set:
  @DF-RHF Final Energy:  -383.93707824665978
    Total Energy =                       -383.9370782466597234
  Basis Set: 6-31G*
  Basis Set:
  Basis Set: 6-31G*
  Basis Set:
  @DF-RHF Final Energy:  -383.93708255235725
    Total Energy =                       -383.9370825523568556
  Basis Set: 6-31G*
  Basis Set:
  Charge       = 0
  Multiplicity = 1
  Basis Set: 6-31G*
  Basis Set:

    Orbital Energies (a.u.)
    -----------------------

    Doubly Occupied:

       1A    -20.602304     2A    -20.557095     3A    -11.381265
       4A    -11.239742     5A    -11.222614     6A    -11.220629
       7A    -11.219980     8A    -11.212324     9A     -1.465327
      10A     -1.366719    11A     -1.095693    12A     -1.039966
      13A     -0.959684    14A     -0.867039    15A     -0.815352
      16A     -0.778566    17A     -0.704310    18A     -0.683812
      19A     -0.657627    20A     -0.639362    21A     -0.608246
      22A     -0.585746    23A     -0.569641    24A     -0.556055
      25A     -0.530023    26A     -0.514948    27A     -0.493962
      28A     -0.487649    29A     -0.469799    30A     -0.465205
      31A     -0.457275    32A     -0.443034

  @DF-RHF Final Energy:  -383.93708336280372

   => Energetics <=

    Nuclear Repulsion Energy =            375.4849929409502920
    One-Electron Energy =               -1267.0221670442756476
    Two-Electron Energy =                 507.6000907405217504
    DFT Exchange-Correlation Energy =       0.0000000000000000
    Empirical Dispersion Energy =           0.0000000000000000
    PCM Polarization Energy =               0.0000000000000000
    EFP Energy =                            0.0000000000000000
    Total Energy =                       -383.9370833628036053
    Molecular point group: c1
  Basis Set: 6-31G*
  Basis Set:

  -Total Gradient:
     Atom            X                  Y                   Z
    ------   -----------------  -----------------  -----------------
       1       -0.005566823186    -0.003310684524     0.010049529733
       2        0.005776818023     0.003190939263    -0.017221583243
       3        0.002217196498     0.002180425915     0.017203712692
       4        0.000012141490    -0.000100430713    -0.000043938932
       5       -0.002475818867    -0.002034430655    -0.010059825761
       6       -0.000029538239     0.000001123457     0.000042010266
       7        0.000015328791     0.000045992630     0.000013448223
       8        0.000035686193     0.000034728603     0.000048367689
       9       -0.000012860216     0.000008613537    -0.000022271179
      10        0.000004369654     0.000008567286    -0.000035972271
      11        0.000005734384    -0.000010229038    -0.000000543354
      12        0.000010361969    -0.000018404120     0.000026648233
      13       -0.000004248032    -0.000005751067     0.000003526512
      14        0.000009932565    -0.000007696089     0.000000854039
      15       -0.000005226310     0.000018294947    -0.000011435169
      16        0.000012759434    -0.000004196658     0.000007568930
      17       -0.000002291273    -0.000002416310     0.000003302718
      18       -0.000001920745     0.000007026530    -0.000005243609
      19       -0.000005006109     0.000003024757     0.000006744768
      20        0.000003403973    -0.000004497750    -0.000004900283

  **** Optimization is complete! (in 8 steps) ****
    Final optimized geometry and variables:
    Molecular point group: c1

    Geometry (in Angstrom), charge = 0, multiplicity = 1:

    H            3.619116432730    -1.042553761498     0.530502368240
    O            2.819350474992    -1.183343398171     0.036777946408
    C            2.083603402267    -0.052087051084     0.001287345173
    C            0.627078314568    -0.326289950184     0.273921906256
    O            2.545094077226     0.993060005681    -0.307774780981
    C           -0.269497434384     0.891955267931     0.067140041574
    H            0.341293596590    -1.159382526228    -0.359895496337
    H            0.557055879469    -0.697049152668     1.294440971235
    C           -1.734969027419     0.651442490127     0.444599201330
    H           -0.204146309994     1.211915933576    -0.968629828386
    H            0.120149009009     1.712863106829     0.659395356182
    C           -2.472901749564    -0.356673078007    -0.440847610822
    H           -2.257149432301     1.604100040080     0.394242727764
    H           -1.794633047916     0.329884146785     1.483549388655
    C           -3.955082368692    -0.474926139097    -0.086425846368
    H           -2.373584391007    -0.058130029959    -1.482452540888
    H           -2.011586808346    -1.337336783412    -0.358219718896
    H           -4.456052158034    -1.194616296188    -0.726239040186
    H           -4.462503473141     0.478758526157    -0.199883024142
    H           -4.087465600142    -0.798510831884     0.942199078290

  Mulliken Charges: (a.u.)
   Center  Symbol    Alpha    Beta     Spin     Total
       1     H     0.26642  0.26642  0.00000  0.46716
       2     O     4.36180  4.36180  0.00000 -0.72361
       3     C     2.62768  2.62768  0.00000  0.74464
       4     C     3.21259  3.21259  0.00000 -0.42517
       5     O     4.26088  4.26088  0.00000 -0.52176
       6     C     3.15465  3.15465  0.00000 -0.30930
       7     H     0.39542  0.39542  0.00000  0.20917
       8     H     0.40386  0.40386  0.00000  0.19228
       9     C     3.15536  3.15536  0.00000 -0.31072
      10     H     0.41206  0.41206  0.00000  0.17587
      11     H     0.40876  0.40876  0.00000  0.18249
      12     C     3.15482  3.15482  0.00000 -0.30964
      13     H     0.41795  0.41795  0.00000  0.16410
      14     H     0.42429  0.42429  0.00000  0.15142
      15     C     3.23924  3.23924  0.00000 -0.47847
      16     H     0.42116  0.42116  0.00000  0.15768
      17     H     0.42258  0.42258  0.00000  0.15483
      18     H     0.41823  0.41823  0.00000  0.16354
      19     H     0.42067  0.42067  0.00000  0.15865
      20     H     0.42158  0.42158  0.00000  0.15685

   Total alpha = 32.00000, Total beta = 32.00000, Total charge =  0.00000
