  ==> Input File <==

--------------------------------------------------------------------------
set {
	reference rhf
	basis 6-31G*
}

set_num_threads( 4 )
memory 2 gb

molecule MOL {
0 1

H	 2.591676	 2.013956	 0.335017
O	 3.341076	 1.666752	 -0.126416
C	 3.569581	 0.339145	 0.272707
C	 2.539767	 -0.640285	 -0.279495
H	 4.553106	 0.084646	 -0.100901
H	 3.608576	 0.269204	 1.359154
C	 2.996737	 -1.379075	 -1.539748
H	 2.297108	 -1.360201	 0.497811
H	 1.627342	 -0.086939	 -0.495490
C	 1.921032	 -2.313837	 -2.100013
H	 3.892321	 -1.950980	 -1.313431
H	 3.272950	 -0.653322	 -2.304816
C	 2.296068	 -3.014471	 -3.411043
H	 1.671700	 -3.062652	 -1.350375
H	 1.013382	 -1.737170	 -2.265320
C	 3.444111	 -4.021315	 -3.298171
H	 1.415807	 -3.533000	 -3.785322
H	 2.545975	 -2.264908	 -4.160403
C	 3.711044	 -4.770065	 -4.605670
H	 3.214620	 -4.740994	 -2.513628
H	 4.356357	 -3.515845	 -2.990583
C	 4.860758	 -5.771127	 -4.497522
H	 2.806931	 -5.291245	 -4.912982
H	 3.930998	 -4.052026	 -5.393023
H	 4.656339	 -6.522599	 -3.740075
H	 5.023849	 -6.286655	 -5.438940
H	 5.788875	 -5.275192	 -4.227318

	symmetry c1
}
set optking {
	frozen_dihedral = ("
		8 4 3 2
	")
}

ee = optimize('scf')
oeprop('DIPOLE', 'QUADRUPOLE', 'MULLIKEN_CHARGES')
f=open( 'psi4out.xyz', 'w' )
f.write( "27  " )
f.write( str(ee) + "\n" )
f.write( MOL.save_string_xyz() )
f.close()
--------------------------------------------------------------------------

    Molecular point group: c1
  Charge       = 0
  Multiplicity = 1
  Basis Set: 6-31G*
  Basis Set:
  @DF-RHF Final Energy:  -388.27725359192948
    Total Energy =                       -388.2772535919292523
    Molecular point group: c1
  Basis Set: 6-31G*
  Basis Set:
  Basis Set: 6-31G*
  Basis Set:
  @DF-RHF Final Energy:  -388.27770369151591
    Total Energy =                       -388.2777036915156259
  Basis Set: 6-31G*
  Basis Set:
  Basis Set: 6-31G*
  Basis Set:
  @DF-RHF Final Energy:  -388.27776439401788
    Total Energy =                       -388.2777643940177086
  Basis Set: 6-31G*
  Basis Set:
  Charge       = 0
  Multiplicity = 1
  Basis Set: 6-31G*
  Basis Set:

    Orbital Energies (a.u.)
    -----------------------

    Doubly Occupied:

       1A    -20.551407     2A    -11.267217     3A    -11.216825
       4A    -11.214683     5A    -11.214017     6A    -11.213851
       7A    -11.212792     8A    -11.211665     9A    -11.207590
      10A     -1.358304    11A     -1.092450    12A     -1.059414
      13A     -1.009089    14A     -0.944060    15A     -0.883196
      16A     -0.823392    17A     -0.803280    18A     -0.776396
      19A     -0.682664    20A     -0.649129    21A     -0.635235
      22A     -0.610701    23A     -0.607892    24A     -0.582174
      25A     -0.574869    26A     -0.556250    27A     -0.536202
      28A     -0.521259    29A     -0.511166    30A     -0.488517
      31A     -0.481070    32A     -0.475123    33A     -0.464756
      34A     -0.458393    35A     -0.454030    36A     -0.441425
      37A     -0.417340

  @DF-RHF Final Energy:  -388.27776375054390

   => Energetics <=

    Nuclear Repulsion Energy =            455.4465174070876969
    One-Electron Energy =               -1429.0329148894984428
    Two-Electron Energy =                 585.3086337318669621
    DFT Exchange-Correlation Energy =       0.0000000000000000
    Empirical Dispersion Energy =           0.0000000000000000
    PCM Polarization Energy =               0.0000000000000000
    EFP Energy =                            0.0000000000000000
    Total Energy =                       -388.2777637505438406
    Molecular point group: c1
  Basis Set: 6-31G*
  Basis Set:

  -Total Gradient:
     Atom            X                  Y                   Z
    ------   -----------------  -----------------  -----------------
       1       -0.000005696882    -0.000007134947     0.000005345479
       2       -0.002191692340     0.000669175844     0.002935814095
       3        0.002100018796    -0.000124193578    -0.003680390326
       4        0.003639661093    -0.003373361909    -0.000749017154
       5       -0.000043186099     0.000013896696    -0.000011287079
       6        0.000007110928    -0.000019094728     0.000023112930
       7        0.000021092768    -0.000054001281    -0.000025641446
       8       -0.003491354951     0.002885356360     0.001383451025
       9       -0.000036644704    -0.000010007131     0.000047954467
      10       -0.000027268489     0.000037591839     0.000008064636
      11       -0.000045551089    -0.000026959507     0.000024424624
      12        0.000065581276    -0.000011857622     0.000072275514
      13       -0.000006810222     0.000001537034    -0.000013603639
      14        0.000024862251     0.000010642596     0.000001665343
      15       -0.000018723622     0.000002228465     0.000016051675
      16        0.000018020649     0.000020227745    -0.000010697771
      17        0.000000774011    -0.000000545168    -0.000023546538
      18        0.000014204006     0.000001210526     0.000005604006
      19       -0.000011759977    -0.000002922285     0.000001537217
      20        0.000005489422     0.000009581965     0.000009108544
      21       -0.000009171664    -0.000011485273    -0.000024623762
      22       -0.000008371163    -0.000009198107     0.000005109775
      23       -0.000004560485     0.000003170252    -0.000007853331
      24        0.000006009023    -0.000000459591     0.000006373704
      25        0.000003241442    -0.000003112257     0.000001453536
      26       -0.000002270450    -0.000002242529     0.000000824057
      27       -0.000003003530     0.000001956579    -0.000001509584

  **** Optimization is complete! (in 4 steps) ****
    Final optimized geometry and variables:
    Molecular point group: c1

    Geometry (in Angstrom), charge = 0, multiplicity = 1:

    H           -0.685164910660     4.124196187852     2.316906903324
    O            0.138626525510     3.818456402684     1.964664476975
    C            0.377246480571     2.510652904763     2.421187631143
    C           -0.645326462325     1.494262617950     1.892263802411
    H            1.376310859696     2.259372424889     2.089403281563
    H            0.389991470583     2.498703177928     3.509297908540
    C           -0.193455995198     0.761296238189     0.628957435078
    H           -0.908760693992     0.789666136639     2.678147147436
    H           -1.566521803796     2.034379507823     1.678694497707
    C           -1.272433433250    -0.159831839416     0.054933536287
    H            0.703363228325     0.190511005633     0.855973441666
    H            0.090672773088     1.499146074121    -0.118651046034
    C           -0.896593561058    -0.847095401482    -1.263090969907
    H           -1.531303517419    -0.916878078812     0.793869647154
    H           -2.175674605369     0.424644557637    -0.108068080953
    C            0.242095790956    -1.865116085023    -1.156709525431
    H           -1.779083943752    -1.352969839997    -1.649517698731
    H           -0.635301769676    -0.089695555766    -2.000265474601
    C            0.507932271329    -2.601495046666    -2.471439263810
    H            0.002699343691    -2.591908706277    -0.381450207545
    H            1.157034898438    -1.370796433520    -0.839779650827
    C            1.645881307826    -3.616499220416    -2.368828245064
    H           -0.400156811041    -3.108939744653    -2.790041546608
    H            0.740491057657    -1.876702416086    -3.248815691811
    H            1.428868937795    -4.374643715505    -1.621487271503
    H            1.808671784805    -4.122752402475    -3.315355949638
    H            2.577740371877    -3.133952834578    -2.087625111620

  Mulliken Charges: (a.u.)
   Center  Symbol    Alpha    Beta     Spin     Total
       1     H     0.28338  0.28338  0.00000  0.43325
       2     O     4.36966  4.36966  0.00000 -0.73931
       3     C     2.99814  2.99814  0.00000  0.00372
       4     C     3.16671  3.16671  0.00000 -0.33342
       5     H     0.41431  0.41431  0.00000  0.17138
       6     H     0.42924  0.42924  0.00000  0.14151
       7     C     3.15820  3.15820  0.00000 -0.31639
       8     H     0.42188  0.42188  0.00000  0.15623
       9     H     0.42387  0.42387  0.00000  0.15226
      10     C     3.15375  3.15375  0.00000 -0.30750
      11     H     0.42111  0.42111  0.00000  0.15778
      12     H     0.41519  0.41519  0.00000  0.16961
      13     C     3.15331  3.15331  0.00000 -0.30661
      14     H     0.42460  0.42460  0.00000  0.15081
      15     H     0.42184  0.42184  0.00000  0.15633
      16     C     3.15264  3.15264  0.00000 -0.30528
      17     H     0.42218  0.42218  0.00000  0.15565
      18     H     0.42287  0.42287  0.00000  0.15427
      19     C     3.15118  3.15118  0.00000 -0.30236
      20     H     0.42514  0.42514  0.00000  0.14972
      21     H     0.42199  0.42199  0.00000  0.15602
      22     C     3.23914  3.23914  0.00000 -0.47829
      23     H     0.42338  0.42338  0.00000  0.15324
      24     H     0.42274  0.42274  0.00000  0.15451
      25     H     0.42218  0.42218  0.00000  0.15564
      26     H     0.41949  0.41949  0.00000  0.16102
      27     H     0.42190  0.42190  0.00000  0.15620

   Total alpha = 37.00000, Total beta = 37.00000, Total charge = -0.00000
