                              Psi4 1.0.54 Driver

  ==> Input File <==

--------------------------------------------------------------------------
set {
	reference rhf
	basis cc-pvtz
}

set_num_threads( 4 )
memory 2 gb

molecule MOL {
0 1

O	 -2.081620	 -0.951520	 -0.502766
N	 -1.613859	 0.006686	 0.014722
C	 -0.329646	 -0.171608	 0.743932
O	 -2.068824	 1.100492	 -0.024419
C	 0.835603	 0.041978	 -0.214016
H	 -0.346349	 -1.174364	 1.137150
H	 -0.333914	 0.555569	 1.538556
C	 2.176738	 -0.130165	 0.494426
H	 0.754155	 -0.665913	 -1.030603
H	 0.765163	 1.037270	 -0.637300
C	 3.360985	 0.085650	 -0.441236
H	 2.232596	 -1.125810	 0.924552
H	 2.239237	 0.568400	 1.323587
H	 3.343618	 -0.621495	 -1.263028
H	 3.348989	 1.084590	 -0.862770
H	 4.298768	 -0.040928	 0.085739

	symmetry c1
}
ee,wfn = energy('scf', return_wfn=True)
oeprop( wfn, 'DIPOLE', 'QUADRUPOLE', 'MULLIKEN_CHARGES')
oeprop( wfn, 'GRID_ESP')
f=open( 'psi4out.xyz', 'w' )
f.write( "16  " )
f.write( str(ee) + "\n" )
f.write( MOL.save_string_xyz() )
f.close()
--------------------------------------------------------------------------

    Molecular point group: c1

    Geometry (in Angstrom), charge = 0, multiplicity = 1:

       Center              X                  Y                   Z               Mass
    ------------   -----------------  -----------------  -----------------  -----------------
           O         -2.081319255854    -0.951529736561    -0.502732462516    15.994914619560
           N         -1.613558255854     0.006676263439     0.014755537484    14.003074004780
           C         -0.329345255854    -0.171617736561     0.743965537484    12.000000000000
           O         -2.068523255854     1.100482263439    -0.024385462516    15.994914619560
           C          0.835903744146     0.041968263439    -0.213982462516    12.000000000000
           H         -0.346048255854    -1.174373736561     1.137183537484     1.007825032070
           H         -0.333613255854     0.555559263439     1.538589537484     1.007825032070
           C          2.177038744146    -0.130174736561     0.494459537484    12.000000000000
           H          0.754455744146    -0.665922736561    -1.030569462516     1.007825032070
           H          0.765463744146     1.037260263439    -0.637266462516     1.007825032070
           C          3.361285744146     0.085640263439    -0.441202462516    12.000000000000
           H          2.232896744146    -1.125819736561     0.924585537484     1.007825032070
           H          2.239537744146     0.568390263439     1.323620537484     1.007825032070
           H          3.343918744146    -0.621504736561    -1.262994462516     1.007825032070
           H          3.349289744146     1.084580263439    -0.862736462516     1.007825032070
           H          4.299068744146    -0.040937736561     0.085772537484     1.007825032070

  Charge       = 0
  Multiplicity = 1
  Basis Set: CC-PVTZ
  Basis Set:

    Orbital Energies (a.u.)
    -----------------------

    Doubly Occupied:

       1A    -20.589667     2A    -20.589610     3A    -15.836197
       4A    -11.296276     5A    -11.250729     6A    -11.241918
       7A    -11.225917     8A     -1.635249     9A     -1.419549
      10A     -1.136699    11A     -1.060191    12A     -0.948768
      13A     -0.843376    14A     -0.829319    15A     -0.757725
      16A     -0.737949    17A     -0.728028    18A     -0.679608
      19A     -0.615704    20A     -0.607961    21A     -0.567868
      22A     -0.542219    23A     -0.517351    24A     -0.504222
      25A     -0.496866    26A     -0.486073    27A     -0.469958
      28A     -0.452178

  @DF-RHF Final Energy:  -360.90953378813828

   => Energetics <=

    Nuclear Repulsion Energy =            313.0230346548231068
    One-Electron Energy =               -1111.7307861481106102
    Two-Electron Energy =                 437.7982177051488861
    DFT Exchange-Correlation Energy =       0.0000000000000000
    Empirical Dispersion Energy =           0.0000000000000000
    PCM Polarization Energy =               0.0000000000000000
    EFP Energy =                            0.0000000000000000
    Total Energy =                       -360.9095337881386740

  Mulliken Charges: (a.u.)
   Center  Symbol    Alpha    Beta     Spin     Total
       1     O     4.17413  4.17413  0.00000 -0.34825
       2     N     3.27558  3.27558  0.00000  0.44884
       3     C     3.04017  3.04017  0.00000 -0.08035
       4     O     4.17414  4.17414  0.00000 -0.34828
       5     C     3.10123  3.10123  0.00000 -0.20247
       6     H     0.43394  0.43394  0.00000  0.13213
       7     H     0.43391  0.43391  0.00000  0.13218
       8     C     3.09351  3.09351  0.00000 -0.18701
       9     H     0.43783  0.43783  0.00000  0.12434
      10     H     0.43792  0.43792  0.00000  0.12415
      11     C     3.14827  3.14827  0.00000 -0.29654
      12     H     0.45032  0.45032  0.00000  0.09935
      13     H     0.45042  0.45042  0.00000  0.09916
      14     H     0.45172  0.45172  0.00000  0.09657
      15     H     0.45173  0.45173  0.00000  0.09653
      16     H     0.44518  0.44518  0.00000  0.10964

   Total alpha = 28.00000, Total beta = 28.00000, Total charge = -0.00000

*** Psi4 exiting successfully. Buy a developer a beer!
