  ==> Input File <==

--------------------------------------------------------------------------
set {
	reference rhf
	basis 6-31G*
}

set_num_threads( 4 )
memory 2 gb

molecule MOL {
0 1

H	 -3.420663	 1.227371	 -1.044276
O	 -3.452007	 0.283848	 -0.965577
C	 -3.181085	 -0.079926	 0.364119
C	 -1.765924	 0.277073	 0.805136
H	 -3.327791	 -1.152017	 0.410903
H	 -3.905698	 0.375695	 1.036898
C	 -0.677594	 -0.417312	 -0.014550
H	 -1.637766	 1.358238	 0.744969
H	 -1.659588	 0.017670	 1.857098
C	 0.738335	 -0.034840	 0.421385
H	 -0.814977	 -0.178223	 -1.064632
H	 -0.802730	 -1.495410	 0.071702
C	 1.822265	 -0.738362	 -0.399735
H	 0.853533	 1.043532	 0.342250
H	 0.871597	 -0.279636	 1.474438
C	 2.808510	 0.203007	 -1.100663
H	 1.350966	 -1.380796	 -1.141928
H	 2.383836	 -1.398168	 0.258376
C	 2.188715	 1.071744	 -2.196817
H	 3.603433	 -0.395612	 -1.538890
H	 3.284418	 0.841949	 -0.359402
H	 1.694183	 0.459729	 -2.946494
H	 2.950787	 1.658261	 -2.700881
H	 1.455137	 1.765466	 -1.799604

	symmetry c1
}
set optking {
	frozen_dihedral = ("
		17 13 10 7
	")
}

ee = optimize('scf')
oeprop('DIPOLE', 'QUADRUPOLE', 'MULLIKEN_CHARGES')
f=open( 'psi4out.xyz', 'w' )
f.write( "24  " )
f.write( str(ee) + "\n" )
f.write( MOL.save_string_xyz() )
f.close()
--------------------------------------------------------------------------

    Molecular point group: c1
  Charge       = 0
  Multiplicity = 1
  Basis Set: 6-31G*
  Basis Set:
  @DF-RHF Final Energy:  -349.24219741651399
    Total Energy =                       -349.2421974165142728
    Molecular point group: c1
  Basis Set: 6-31G*
  Basis Set:
  Basis Set: 6-31G*
  Basis Set:
  @DF-RHF Final Energy:  -349.24241632476856
    Total Energy =                       -349.2424163247682145
  Basis Set: 6-31G*
  Basis Set:
  Basis Set: 6-31G*
  Basis Set:
  @DF-RHF Final Energy:  -349.24257758313502
    Total Energy =                       -349.2425775831352439
  Basis Set: 6-31G*
  Basis Set:
  Basis Set: 6-31G*
  Basis Set:
  @DF-RHF Final Energy:  -349.24253252260058
    Total Energy =                       -349.2425325226006407
  Basis Set: 6-31G*
  Basis Set:
  Basis Set: 6-31G*
  Basis Set:
  @DF-RHF Final Energy:  -349.24258709426596
    Total Energy =                       -349.2425870942659003
  Basis Set: 6-31G*
  Basis Set:
  Basis Set: 6-31G*
  Basis Set:
  @DF-RHF Final Energy:  -349.24258998680398
    Total Energy =                       -349.2425899868041483
  Basis Set: 6-31G*
  Basis Set:
  Charge       = 0
  Multiplicity = 1
  Basis Set: 6-31G*
  Basis Set:

    Orbital Energies (a.u.)
    -----------------------

    Doubly Occupied:

       1A    -20.553507     2A    -11.267684     3A    -11.217209
       4A    -11.214060     5A    -11.212402     6A    -11.211309
       7A    -11.211147     8A    -11.207158     9A     -1.360105
      10A     -1.087033    11A     -1.047755    12A     -0.983805
      13A     -0.915919    14A     -0.849547    15A     -0.800705
      16A     -0.777471    17A     -0.679177    18A     -0.652905
      19A     -0.624075    20A     -0.617367    21A     -0.599317
      22A     -0.576909    23A     -0.567332    24A     -0.532634
      25A     -0.521125    26A     -0.509327    27A     -0.493693
      28A     -0.476753    29A     -0.467316    30A     -0.459567
      31A     -0.453570    32A     -0.447387    33A     -0.418409

  @DF-RHF Final Energy:  -349.24258938719726

   => Energetics <=

    Nuclear Repulsion Energy =            389.4922251109698550
    One-Electron Energy =               -1245.4422804946038923
    Two-Electron Energy =                 506.7074659964368379
    DFT Exchange-Correlation Energy =       0.0000000000000000
    Empirical Dispersion Energy =           0.0000000000000000
    PCM Polarization Energy =               0.0000000000000000
    EFP Energy =                            0.0000000000000000
    Total Energy =                       -349.2425893871971425
    Molecular point group: c1
  Basis Set: 6-31G*
  Basis Set:

  -Total Gradient:
     Atom            X                  Y                   Z
    ------   -----------------  -----------------  -----------------
       1       -0.000000756965     0.000003163918    -0.000003773802
       2       -0.000011476723     0.000012461478     0.000003390861
       3        0.000005000606    -0.000014317918    -0.000006136603
       4       -0.000012855185     0.000038872372    -0.000036715330
       5        0.000000588541    -0.000003627214     0.000005068020
       6       -0.000000241447     0.000001166401    -0.000003638717
       7       -0.000025729204     0.000239134301    -0.000159337475
       8        0.000003298399     0.000012723403     0.000010142130
       9        0.000004359605    -0.000007295922    -0.000012543500
      10       -0.000037549479    -0.000456719354     0.000394417414
      11        0.000011024015    -0.000026308745    -0.000005807461
      12       -0.000000611416     0.000006021718     0.000024415432
      13        0.000047694428     0.000562759364    -0.000429040486
      14       -0.000016857396     0.000013760778     0.000008395655
      15       -0.000009152318     0.000007570552    -0.000004476757
      16        0.000041169667    -0.000094100034    -0.000086380394
      17        0.000008161105    -0.000296640321     0.000277299311
      18        0.000017018173    -0.000017839346    -0.000052885271
      19       -0.000011630819    -0.000005750146     0.000046169474
      20        0.000040311359    -0.000002797390     0.000018909623
      21       -0.000039940472     0.000022413377    -0.000021935222
      22        0.000014878180    -0.000008765790     0.000007628530
      23        0.000008922308     0.000002326173     0.000016820397
      24       -0.000035624955     0.000011788344     0.000010014175

  **** Optimization is complete! (in 7 steps) ****
    Final optimized geometry and variables:
    Molecular point group: c1

    Geometry (in Angstrom), charge = 0, multiplicity = 1:

    H           -3.170846671536     1.167000692107    -0.612225690916
    O           -3.208115317844     0.222791250920    -0.545707735465
    C           -2.937116380582    -0.160002892627     0.778643975483
    C           -1.518805464189     0.182035567152     1.221669283464
    H           -3.090419457087    -1.231591371889     0.811598219734
    H           -3.657629527276     0.291198497648     1.458671521695
    C           -0.436554000853    -0.506431064456     0.389950761385
    H           -1.384174049887     1.263294902274     1.177282597518
    H           -1.411784039565    -0.093321140537     2.269569417812
    C            0.983348486588    -0.139034571152     0.828166035822
    H           -0.573311015150    -0.253079376264    -0.656834591739
    H           -0.566380487503    -1.585222684243     0.461102448636
    C            2.089450477024    -0.832574580190    -0.001020155231
    H            1.099446031722     0.940792113153     0.769605057180
    H            1.105019914885    -0.388930407529     1.879241127430
    C            3.070283330196     0.126932820454    -0.685269260209
    H            1.635824439991    -1.467390699300    -0.759220777498
    H            2.654998709738    -1.501852942659     0.641181361808
    C            2.445919527296     0.950532756339    -1.812558717631
    H            3.899477302475    -0.448141849218    -1.090322104457
    H            3.498587034832     0.794792582261     0.059439609353
    H            2.056729541557     0.304735380167    -2.594743187520
    H            3.179532434411     1.611528012537    -2.264029994217
    H            1.626146489621     1.567563784423    -1.457475924662

  Mulliken Charges: (a.u.)
   Center  Symbol    Alpha    Beta     Spin     Total
       1     H     0.28339  0.28339  0.00000  0.43323
       2     O     4.36829  4.36829  0.00000 -0.73657
       3     C     2.99606  2.99606  0.00000  0.00789
       4     C     3.16967  3.16967  0.00000 -0.33934
       5     H     0.41632  0.41632  0.00000  0.16736
       6     H     0.42821  0.42821  0.00000  0.14357
       7     C     3.15423  3.15423  0.00000 -0.30846
       8     H     0.42844  0.42844  0.00000  0.14313
       9     H     0.42235  0.42235  0.00000  0.15530
      10     C     3.15627  3.15627  0.00000 -0.31254
      11     H     0.41123  0.41123  0.00000  0.17754
      12     H     0.42305  0.42305  0.00000  0.15389
      13     C     3.15637  3.15637  0.00000 -0.31274
      14     H     0.42252  0.42252  0.00000  0.15497
      15     H     0.42191  0.42191  0.00000  0.15619
      16     C     3.15349  3.15349  0.00000 -0.30697
      17     H     0.42002  0.42002  0.00000  0.15996
      18     H     0.41991  0.41991  0.00000  0.16017
      19     C     3.24021  3.24021  0.00000 -0.48043
      20     H     0.42189  0.42189  0.00000  0.15622
      21     H     0.42369  0.42369  0.00000  0.15263
      22     H     0.42097  0.42097  0.00000  0.15806
      23     H     0.41973  0.41973  0.00000  0.16054
      24     H     0.42179  0.42179  0.00000  0.15643

   Total alpha = 33.00000, Total beta = 33.00000, Total charge = -0.00000
