  ==> Input File <==

--------------------------------------------------------------------------
set {
	reference rhf
	basis cc-pvtz
}

set_num_threads( 4 )
memory 2 gb

molecule MOL {
0 1

H	 -0.000105	 1.988529	 0.748933
O	 -0.000098	 1.879786	 -0.188206
C	 -0.000014	 0.545691	 -0.532416
C	 0.990255	 0.294004	 -1.670748
C	 -1.426635	 0.074079	 -0.818961
H	 0.351571	 -0.016968	 0.319912
F	 2.191842	 0.647122	 -1.285576
F	 1.034908	 -0.966282	 -2.022025
F	 0.687097	 1.005698	 -2.735154
F	 -2.164091	 0.250736	 0.249593
F	 -1.476946	 -1.194845	 -1.136786
F	 -1.971272	 0.763811	 -1.798255

	symmetry c1
}
set optking {
	frozen_dihedral = ("
		6 3 2 1
	")
}

ee = optimize('scf')
oeprop('DIPOLE', 'QUADRUPOLE', 'MULLIKEN_CHARGES')
f=open( 'psi4out.xyz', 'w' )
f.write( "12  " )
f.write( str(ee) + "\n" )
f.write( MOL.save_string_xyz() )
f.close()
--------------------------------------------------------------------------

    Molecular point group: c1
  Charge       = 0
  Multiplicity = 1
  Basis Set: CC-PVTZ
  Basis Set:
  @DF-RHF Final Energy:  -786.58579138730693
    Total Energy =                       -786.5857913873076086
    Molecular point group: c1
  Basis Set: CC-PVTZ
  Basis Set:
  Basis Set: CC-PVTZ
  Basis Set:
  @DF-RHF Final Energy:  -786.58726721850860
    Total Energy =                       -786.5872672185095098
  Basis Set: CC-PVTZ
  Basis Set:
  Basis Set: CC-PVTZ
  Basis Set:
  @DF-RHF Final Energy:  -786.58757073779077
    Total Energy =                       -786.5875707377908839
  Basis Set: CC-PVTZ
  Basis Set:
  Basis Set: CC-PVTZ
  Basis Set:
  @DF-RHF Final Energy:  -786.58760327148593
    Total Energy =                       -786.5876032714861594
  Basis Set: CC-PVTZ
  Basis Set:
  Basis Set: CC-PVTZ
  Basis Set:
  @DF-RHF Final Energy:  -786.58760776410656
    Total Energy =                       -786.5876077641058828
  Basis Set: CC-PVTZ
  Basis Set:
  Charge       = 0
  Multiplicity = 1
  Basis Set: CC-PVTZ
  Basis Set:

    Orbital Energies (a.u.)
    -----------------------

    Doubly Occupied:

       1A    -26.352339     2A    -26.352266     3A    -26.351419
       4A    -26.350084     5A    -26.349073     6A    -26.348169
       7A    -20.609613     8A    -11.515258     9A    -11.514895
      10A    -11.351821    11A     -1.766346    12A     -1.760842
      13A     -1.660921    14A     -1.658968    15A     -1.656329
      16A     -1.655840    17A     -1.439400    18A     -1.103393
      19A     -0.997054    20A     -0.939200    21A     -0.867340
      22A     -0.861881    23A     -0.857304    24A     -0.846102
      25A     -0.835435    26A     -0.786109    27A     -0.770415
      28A     -0.732461    29A     -0.726395    30A     -0.723694
      31A     -0.719920    32A     -0.685624    33A     -0.681097
      34A     -0.673835    35A     -0.672641    36A     -0.662996
      37A     -0.657812    38A     -0.626577    39A     -0.622549
      40A     -0.559457    41A     -0.508903

  @DF-RHF Final Energy:  -786.58760869923867

   => Energetics <=

    Nuclear Repulsion Energy =            670.2153570520224548
    One-Electron Energy =               -2427.9823818630798087
    Two-Electron Energy =                 971.1794161118183411
    DFT Exchange-Correlation Energy =       0.0000000000000000
    Empirical Dispersion Energy =           0.0000000000000000
    PCM Polarization Energy =               0.0000000000000000
    EFP Energy =                            0.0000000000000000
    Total Energy =                       -786.5876086992390128
    Molecular point group: c1
  Basis Set: CC-PVTZ
  Basis Set:

  -Total Gradient:
     Atom            X                  Y                   Z
    ------   -----------------  -----------------  -----------------
       1        0.000847979427     0.000027109474     0.000002093817
       2       -0.001247130292    -0.000020788475     0.000109536603
       3        0.001117078677     0.000228736227    -0.000326405307
       4       -0.000059413866     0.000123662129    -0.000064333031
       5       -0.000018051629     0.000056573811    -0.000108799104
       6       -0.000739234143    -0.000058705966     0.000204348333
       7        0.000066264934     0.000052692269    -0.000001812983
       8       -0.000035057636    -0.000158771096    -0.000095755662
       9        0.000041088408    -0.000117603711     0.000172289043
      10       -0.000052417619     0.000014259786     0.000068730112
      11        0.000029774215    -0.000095795326    -0.000053317895
      12        0.000049119518    -0.000051369116     0.000093426067

  **** Optimization is complete! (in 6 steps) ****
    Final optimized geometry and variables:
    Molecular point group: c1

    Geometry (in Angstrom), charge = 0, multiplicity = 1:

    H            0.230542996179     1.678419181840     1.938770763723
    O            0.224386925376     1.547083293184     1.008562730013
    C            0.225229402202     0.204057850115     0.690846217348
    C            1.207499702851     0.003565932571    -0.461516475317
    C           -1.204780726810    -0.247911787658     0.390677192831
    H            0.573376586878    -0.421653325352     1.503228465393
    F            2.414419803903     0.320668166708    -0.054140879531
    F            1.234368418361    -1.249957304911    -0.850701634786
    F            0.920676168460     0.746717697545    -1.496591361271
    F           -1.950920299389     0.004691521963     1.445547669368
    F           -1.264758097773    -1.538875072644     0.164234149963
    F           -1.729324950572     0.373031052396    -0.631672348328

  Mulliken Charges: (a.u.)
   Center  Symbol    Alpha    Beta     Spin     Total
       1     H     0.38115  0.38115  0.00000  0.23770
       2     O     4.18655  4.18655  0.00000 -0.37311
       3     C     3.00158  3.00158  0.00000 -0.00315
       4     C     2.67754  2.67754  0.00000  0.64493
       5     C     2.68014  2.68014  0.00000  0.63971
       6     H     0.44463  0.44463  0.00000  0.11075
       7     F     4.60584  4.60584  0.00000 -0.21168
       8     F     4.60539  4.60539  0.00000 -0.21078
       9     F     4.60083  4.60083  0.00000 -0.20166
      10     F     4.61033  4.61033  0.00000 -0.22066
      11     F     4.60540  4.60540  0.00000 -0.21080
      12     F     4.60063  4.60063  0.00000 -0.20126

   Total alpha = 41.00000, Total beta = 41.00000, Total charge = -0.00000
