  ==> Input File <==

--------------------------------------------------------------------------
set {
	reference rhf
	basis 6-31G*
}

set_num_threads( 4 )
memory 2 gb

molecule MOL {
0 1

O	 -0.449450	 1.935623	 -3.442685
C	 -0.881215	 1.488702	 -2.423728
C	 -0.310151	 0.213172	 -1.829407
C	 -1.988235	 2.180123	 -1.659648
C	 1.010973	 0.494131	 -1.095352
H	 -0.130688	 -0.478272	 -2.645496
H	 -1.022976	 -0.244098	 -1.149105
C	 1.631333	 -0.777471	 -0.511575
H	 1.692634	 0.965298	 -1.794440
H	 0.839219	 1.209869	 -0.292878
C	 2.915987	 -0.544314	 0.291766
H	 1.834597	 -1.479446	 -1.318198
H	 0.900794	 -1.259148	 0.135069
C	 3.373361	 0.914346	 0.347591
H	 3.708709	 -1.142521	 -0.150311
H	 2.780642	 -0.921148	 1.303579
H	 3.506512	 1.320010	 -0.651625
H	 4.322697	 0.999599	 0.867103
H	 2.660624	 1.545032	 0.868198
H	 -2.880487	 1.559573	 -1.667815
H	 -2.211201	 3.135350	 -2.114194
H	 -1.707027	 2.322623	 -0.620215

	symmetry c1
}
set optking {
	frozen_dihedral = ("
		12 8 11 15
	")
}

ee = optimize('scf')
oeprop('DIPOLE', 'QUADRUPOLE', 'MULLIKEN_CHARGES')
f=open( 'psi4out.xyz', 'w' )
f.write( "22  " )
f.write( str(ee) + "\n" )
f.write( MOL.save_string_xyz() )
f.close()
--------------------------------------------------------------------------

    Molecular point group: c1
  Charge       = 0
  Multiplicity = 1
  Basis Set: 6-31G*
  Basis Set:
  @DF-RHF Final Energy:  -348.08779778416414
    Total Energy =                       -348.0877977841643087
    Molecular point group: c1
  Basis Set: 6-31G*
  Basis Set:
  Basis Set: 6-31G*
  Basis Set:
  @DF-RHF Final Energy:  -348.08797238807091
    Total Energy =                       -348.0879723880710230
  Basis Set: 6-31G*
  Basis Set:
  Basis Set: 6-31G*
  Basis Set:
  @DF-RHF Final Energy:  -348.08981067510081
    Total Energy =                       -348.0898106751006367
  Basis Set: 6-31G*
  Basis Set:
  Basis Set: 6-31G*
  Basis Set:
  @DF-RHF Final Energy:  -348.08990868121111
    Total Energy =                       -348.0899086812115115
  Basis Set: 6-31G*
  Basis Set:
  @DF-RHF Final Energy:  -348.08982013685539
    Total Energy =                       -348.0898201368556784
  @DF-RHF Final Energy:  -348.08994360608540
    Total Energy =                       -348.0899436060852850
  Basis Set: 6-31G*
  Basis Set:
  @DF-RHF Final Energy:  -348.08994472156417
    Total Energy =                       -348.0899447215641658
  Basis Set: 6-31G*
  Basis Set:
  Basis Set: 6-31G*
  Basis Set:
  @DF-RHF Final Energy:  -348.08995222008298
    Total Energy =                       -348.0899522200827505
  Basis Set: 6-31G*
  Basis Set:
  Basis Set: 6-31G*
  Basis Set:
  @DF-RHF Final Energy:  -348.08995436176457
    Total Energy =                       -348.0899543617647396
  Basis Set: 6-31G*
  Basis Set:
  Charge       = 0
  Multiplicity = 1
  Basis Set: 6-31G*
  Basis Set:

    Orbital Energies (a.u.)
    -----------------------

    Doubly Occupied:

       1A    -20.547226     2A    -11.324336     3A    -11.229536
       4A    -11.228839     5A    -11.228126     6A    -11.222733
       7A    -11.220942     8A    -11.212087     9A     -1.392980
      10A     -1.093167    11A     -1.041844    12A     -0.999202
      13A     -0.937461    14A     -0.863455    15A     -0.778948
      16A     -0.733096    17A     -0.664635    18A     -0.645755
      19A     -0.628915    20A     -0.614450    21A     -0.590230
      22A     -0.589484    23A     -0.559169    24A     -0.541440
      25A     -0.531508    26A     -0.525591    27A     -0.502600
      28A     -0.486336    29A     -0.469000    30A     -0.461976
      31A     -0.452812    32A     -0.396110

  @DF-RHF Final Energy:  -348.08995486156442

   => Energetics <=

    Nuclear Repulsion Energy =            373.8471616730120672
    One-Electron Energy =               -1212.4462510448054218
    Two-Electron Energy =                 490.5091345102287619
    DFT Exchange-Correlation Energy =       0.0000000000000000
    Empirical Dispersion Energy =           0.0000000000000000
    PCM Polarization Energy =               0.0000000000000000
    EFP Energy =                            0.0000000000000000
    Total Energy =                       -348.0899548615645358
    Molecular point group: c1
  Basis Set: 6-31G*
  Basis Set:

  -Total Gradient:
     Atom            X                  Y                   Z
    ------   -----------------  -----------------  -----------------
       1        0.000007480518     0.000004733318     0.000001236512
       2        0.000000851768     0.000007542032    -0.000002575165
       3       -0.000000711845     0.000006818525     0.000007809306
       4       -0.000007954279    -0.000010791404    -0.000012531413
       5       -0.000000360695     0.000015264593     0.000019783360
       6       -0.000012738017    -0.000008543191    -0.000003277557
       7        0.000008074603     0.000008562401     0.000006696742
       8       -0.000005536122    -0.000072995956     0.000062158239
       9       -0.000017748052    -0.000006789600    -0.000014251014
      10        0.000009344721     0.000010829772     0.000001839155
      11       -0.000000835055     0.000056053119    -0.000048679663
      12        0.000046431784     0.000041030610    -0.000034009247
      13        0.000001004630    -0.000011644981    -0.000009304484
      14       -0.000008039544     0.000016042954    -0.000000045984
      15       -0.000027393213    -0.000054814882     0.000026494857
      16       -0.000003681618    -0.000010495393    -0.000001138759
      17        0.000003790016     0.000004459555    -0.000004211447
      18       -0.000005774046     0.000002079809     0.000002289091
      19        0.000005917912     0.000003414371    -0.000004447357
      20        0.000003138083    -0.000001195134     0.000003690740
      21        0.000001736401    -0.000002570318    -0.000001150966
      22        0.000003002053     0.000003009802     0.000003625064

  **** Optimization is complete! (in 10 steps) ****
    Final optimized geometry and variables:
    Molecular point group: c1

    Geometry (in Angstrom), charge = 0, multiplicity = 1:

    O           -1.160067445016     1.164098894205    -2.179535104525
    C           -1.583369871499     0.720908849418    -1.155471758380
    C           -0.987630168403    -0.535736735123    -0.545341035736
    C           -2.709797743028     1.395054194267    -0.404078932329
    C            0.316354084238    -0.215380445632     0.203445424703
    H           -0.781565147557    -1.227995193215    -1.354374821345
    H           -1.697475614559    -1.005783005948     0.129506963310
    C            0.949572413156    -1.478758677909     0.795870373340
    H            0.996641855160     0.264072361356    -0.491431266603
    H            0.112014566635     0.504917530369     0.991466595027
    C            2.283552265647    -1.299113569523     1.574689703217
    H            1.108255884037    -2.183364006385    -0.015814465741
    H            0.219406316597    -1.946818807443     1.450892610501
    C            2.843199439299     0.122373896450     1.686415643848
    H            3.042892697781    -1.923138619743     1.113323489526
    H            2.156597255598    -1.689982870562     2.579872724563
    H            3.056640475765     0.554617976898     0.714665983096
    H            3.772899735678     0.107073447345     2.246715873090
    H            2.163136903383     0.789606434590     2.205704051840
    H           -3.587847386728     0.754592198360    -0.410973797152
    H           -2.951480484178     2.340349666774    -0.869642829813
    H           -2.437974535676     1.554336736263     0.635373137490

  Mulliken Charges: (a.u.)
   Center  Symbol    Alpha    Beta     Spin     Total
       1     O     4.26246  4.26246  0.00000 -0.52492
       2     C     2.73693  2.73693  0.00000  0.52614
       3     C     3.19986  3.19986  0.00000 -0.39971
       4     C     3.28949  3.28949  0.00000 -0.57899
       5     C     3.16450  3.16450  0.00000 -0.32899
       6     H     0.40131  0.40131  0.00000  0.19738
       7     H     0.41706  0.41706  0.00000  0.16588
       8     C     3.15651  3.15651  0.00000 -0.31302
       9     H     0.40465  0.40465  0.00000  0.19069
      10     H     0.41964  0.41964  0.00000  0.16072
      11     C     3.15616  3.15616  0.00000 -0.31233
      12     H     0.41793  0.41793  0.00000  0.16414
      13     H     0.42109  0.42109  0.00000  0.15782
      14     C     3.24319  3.24319  0.00000 -0.48639
      15     H     0.41833  0.41833  0.00000  0.16334
      16     H     0.41967  0.41967  0.00000  0.16066
      17     H     0.41818  0.41818  0.00000  0.16365
      18     H     0.41782  0.41782  0.00000  0.16435
      19     H     0.42140  0.42140  0.00000  0.15721
      20     H     0.40686  0.40686  0.00000  0.18627
      21     H     0.39710  0.39710  0.00000  0.20581
      22     H     0.40986  0.40986  0.00000  0.18028

   Total alpha = 32.00000, Total beta = 32.00000, Total charge =  0.00000
