  ==> Input File <==

--------------------------------------------------------------------------
set {
	reference rhf
	basis cc-pvtz
}

set_num_threads( 4 )
memory 2 gb

molecule MOL {
0 1

H	 1.149152	 -0.358464	 -0.689520
C	 0.848385	 0.440008	 0.000011
C	 -0.623497	 0.751021	 0.000090
O	 1.657393	 0.982693	 0.669520
C	 -1.523725	 -0.474323	 -0.000013
H	 -0.813143	 1.382932	 -0.864897
H	 -0.813071	 1.382716	 0.865253
H	 -1.342980	 -1.087348	 -0.873016
H	 -2.565269	 -0.177464	 0.000070
H	 -1.342898	 -1.087564	 0.872820

	symmetry c1
}
set optking {
	frozen_dihedral = ("
		4 2 3 6
	")
}

ee = optimize('scf')
oeprop('DIPOLE', 'QUADRUPOLE', 'MULLIKEN_CHARGES')
f=open( 'psi4out.xyz', 'w' )
f.write( "10  " )
f.write( str(ee) + "\n" )
f.write( MOL.save_string_xyz() )
f.close()
--------------------------------------------------------------------------

    Molecular point group: c1
  Charge       = 0
  Multiplicity = 1
  Basis Set: CC-PVTZ
  Basis Set:
  @DF-RHF Final Energy:  -192.02272119097336
    Total Energy =                       -192.0227211909734706
    Molecular point group: c1
  Basis Set: CC-PVTZ
  Basis Set:
  Basis Set: CC-PVTZ
  Basis Set:
  @DF-RHF Final Energy:  -192.02252696903304
    Total Energy =                       -192.0225269690330379
  Basis Set: CC-PVTZ
  Basis Set:
  Basis Set: CC-PVTZ
  Basis Set:
  @DF-RHF Final Energy:  -192.02267029505623
    Total Energy =                       -192.0226702950561730
  Basis Set: CC-PVTZ
  Basis Set:
  Basis Set: CC-PVTZ
  Basis Set:
  @DF-RHF Final Energy:  -192.02311367877962
    Total Energy =                       -192.0231136787795094
  Basis Set: CC-PVTZ
  Basis Set:
  Charge       = 0
  Multiplicity = 1
  Basis Set: CC-PVTZ
  Basis Set:

    Orbital Energies (a.u.)
    -----------------------

    Doubly Occupied:

       1A    -20.553276     2A    -11.323037     3A    -11.238402
       4A    -11.231834     5A     -1.408482     6A     -1.068309
       7A     -0.904748     8A     -0.796300     9A     -0.672553
      10A     -0.644004    11A     -0.624602    12A     -0.563856
      13A     -0.546077    14A     -0.520302    15A     -0.496875
      16A     -0.415114

  @DF-RHF Final Energy:  -192.02313435952294

   => Energetics <=

    Nuclear Repulsion Energy =            117.3614994026339247
    One-Electron Energy =                -492.7537266173701482
    Two-Electron Energy =                 183.3690928552133528
    DFT Exchange-Correlation Energy =       0.0000000000000000
    Empirical Dispersion Energy =           0.0000000000000000
    PCM Polarization Energy =               0.0000000000000000
    EFP Energy =                            0.0000000000000000
    Total Energy =                       -192.0231343595228850
    Molecular point group: c1
  Basis Set: CC-PVTZ
  Basis Set:

  -Total Gradient:
     Atom            X                  Y                   Z
    ------   -----------------  -----------------  -----------------
       1       -0.000019353533    -0.000020768660    -0.000003964456
       2       -0.000146073820    -0.000566448813     0.000867210344
       3       -0.000072222564    -0.000480133416    -0.000773525692
       4        0.000066918853     0.000541821334    -0.000553554993
       5       -0.000000948201    -0.000043717978     0.000123153721
       6        0.000204610317     0.000656676684     0.000393666344
       7        0.000012692889    -0.000035383015    -0.000040953709
       8        0.000006364513     0.000010415488     0.000001157156
       9        0.000010696477     0.000015932243    -0.000000359674
      10       -0.000062684927    -0.000078393866    -0.000012829041

  **** Optimization is complete! (in 5 steps) ****
    Final optimized geometry and variables:
    Molecular point group: c1

    Geometry (in Angstrom), charge = 0, multiplicity = 1:

    H            1.037946292617    -0.798248703391    -0.855163654282
    C            0.751432428365     0.010031422596    -0.169057199452
    C           -0.716475419626     0.344608559759    -0.147489961347
    O            1.576025633874     0.563480844244     0.471555322822
    C           -1.607314831420    -0.895029405152    -0.169940966367
    H           -0.908211752052     0.954664066724    -1.027499575475
    H           -0.909350414068     0.962445514805     0.719159027716
    H           -1.408595400094    -1.507961684243    -1.042067870905
    H           -2.651517728531    -0.612342473770    -0.196735237547
    H           -1.451146276949    -1.507082346520     0.710912924864

  Mulliken Charges: (a.u.)
   Center  Symbol    Alpha    Beta     Spin     Total
       1     H     0.46687  0.46687  0.00000  0.06625
       2     C     2.90051  2.90051  0.00000  0.19898
       3     C     3.08138  3.08138  0.00000 -0.16276
       4     O     4.16347  4.16347  0.00000 -0.32694
       5     C     3.15182  3.15182  0.00000 -0.30364
       6     H     0.44872  0.44872  0.00000  0.10257
       7     H     0.44086  0.44086  0.00000  0.11828
       8     H     0.45361  0.45361  0.00000  0.09278
       9     H     0.44407  0.44407  0.00000  0.11186
      10     H     0.44868  0.44868  0.00000  0.10263

   Total alpha = 16.00000, Total beta = 16.00000, Total charge = -0.00000
