  ==> Input File <==

--------------------------------------------------------------------------
set {
	reference rhf
	basis 6-31G*
}

set_num_threads( 4 )
memory 2 gb

molecule MOL {
0 1

H	 -2.365627	 -1.312883	 -0.379134
C	 -1.358347	 -1.274295	 0.019669
C	 -0.681945	 0.000119	 -0.470601
H	 -0.826096	 -2.155117	 -0.321105
H	 -1.409554	 -1.292283	 1.100109
C	 -1.357790	 1.274691	 0.020220
N	 0.739525	 -0.000142	 0.006128
H	 -0.594190	 0.000341	 -1.545128
H	 -2.364980	 1.313977	 -0.378631
H	 -0.825080	 2.155361	 -0.320114
H	 -1.409060	 1.292170	 1.100671
O	 1.376170	 0.993402	 -0.161607
O	 1.143584	 -0.996996	 0.524220

	symmetry c1
}
set optking {
	frozen_dihedral = ("
		12 7 3 8
	")
}

ee = optimize('scf')
oeprop('DIPOLE', 'QUADRUPOLE', 'MULLIKEN_CHARGES')
f=open( 'psi4out.xyz', 'w' )
f.write( "13  " )
f.write( str(ee) + "\n" )
f.write( MOL.save_string_xyz() )
f.close()
--------------------------------------------------------------------------

    Molecular point group: c1
  Charge       = 0
  Multiplicity = 1
  Basis Set: 6-31G*
  Basis Set:
  @DF-RHF Final Energy:  -321.73650806767040
    Total Energy =                       -321.7365080676702860
    Molecular point group: c1
  Basis Set: 6-31G*
  Basis Set:
  Basis Set: 6-31G*
  Basis Set:
  @DF-RHF Final Energy:  -321.73637916380363
    Total Energy =                       -321.7363791638036901
  Basis Set: 6-31G*
  Basis Set:
  Basis Set: 6-31G*
  Basis Set:
  @DF-RHF Final Energy:  -321.73377792361447
    Total Energy =                       -321.7337779236146389
  Basis Set: 6-31G*
  Basis Set:
  Basis Set: 6-31G*
  Basis Set:
  @DF-RHF Final Energy:  -321.73724333436439
    Total Energy =                       -321.7372433343641660
  Basis Set: 6-31G*
  Basis Set:
  @DF-RHF Final Energy:  -321.73733069118458
    Total Energy =                       -321.7373306911845816
  Basis Set: 6-31G*
  Basis Set:
  @DF-RHF Final Energy:  -321.73744851366342
    Total Energy =                       -321.7374485136633098
  Basis Set: 6-31G*
  Basis Set:
  Basis Set: 6-31G*
  Basis Set:
  @DF-RHF Final Energy:  -321.73745277701056
    Total Energy =                       -321.7374527770103896
  Basis Set: 6-31G*
  Basis Set:
  Basis Set: 6-31G*
  Basis Set:
  @DF-RHF Final Energy:  -321.73745389328280
    Total Energy =                       -321.7374538932828614
  Basis Set: 6-31G*
  Basis Set:
  Charge       = 0
  Multiplicity = 1
  Basis Set: 6-31G*
  Basis Set:

    Orbital Energies (a.u.)
    -----------------------

    Doubly Occupied:

       1A    -20.602122     2A    -20.596919     3A    -15.844485
       4A    -11.308394     5A    -11.243597     6A    -11.240234
       7A     -1.629485     8A     -1.414368     9A     -1.141464
      10A     -0.968662    11A     -0.958997    12A     -0.812706
      13A     -0.761633    14A     -0.725168    15A     -0.720273
      16A     -0.640558    17A     -0.594959    18A     -0.586241
      19A     -0.571124    20A     -0.523750    21A     -0.521725
      22A     -0.480501    23A     -0.471801    24A     -0.447174

  @DF-RHF Final Energy:  -321.73745392318978

   => Energetics <=

    Nuclear Repulsion Energy =            256.7178176361504143
    One-Electron Energy =                -947.2978613832792689
    Two-Electron Energy =                 368.8425898239391927
    DFT Exchange-Correlation Energy =       0.0000000000000000
    Empirical Dispersion Energy =           0.0000000000000000
    PCM Polarization Energy =               0.0000000000000000
    EFP Energy =                            0.0000000000000000
    Total Energy =                       -321.7374539231897188
    Molecular point group: c1
  Basis Set: 6-31G*
  Basis Set:

  -Total Gradient:
     Atom            X                  Y                   Z
    ------   -----------------  -----------------  -----------------
       1        0.000003204845     0.000000222948    -0.000001643937
       2        0.000004291611     0.000003654191     0.000010486430
       3       -0.000146859097     0.001505627513     0.000353592118
       4        0.000002449441    -0.000000596308     0.000000561063
       5       -0.000003303229    -0.000004420700     0.000002656201
       6        0.000003022210    -0.000000892808     0.000006060038
       7        0.000447156045    -0.000721635524    -0.001419437925
       8        0.000018841363    -0.001177229033     0.000001510462
       9        0.000002782661    -0.000000601418    -0.000001225392
      10        0.000001579018     0.000000691285     0.000001786795
      11       -0.000000882137     0.000001697065    -0.000000683261
      12       -0.000340085510     0.000374547842     0.001052347081
      13        0.000007802780     0.000018934949    -0.000006009673

  **** Optimization is complete! (in 9 steps) ****
    Final optimized geometry and variables:
    Molecular point group: c1

    Geometry (in Angstrom), charge = 0, multiplicity = 1:

    H           -2.399397559187    -1.270657447066    -0.384698821431
    C           -1.390259063019    -1.280686606840     0.012125601289
    C           -0.684893614928    -0.014945747004    -0.447571702781
    H           -0.889009417244    -2.169440884978    -0.342991834819
    H           -1.446511101203    -1.328063261332     1.092555510397
    C           -1.370554988194     1.266042617441     0.014286471520
    N            0.749353122485     0.000735787780     0.017330925375
    H           -0.585266807647    -0.015658348811    -1.526107875266
    H           -2.386478015344     1.272634577494    -0.363116370742
    H           -0.857194457353     2.142475402479    -0.351308417615
    H           -1.411656128620     1.309954556871     1.097301020460
    O            1.360743465351     1.009296463201    -0.166281014721
    O            1.196870497361    -0.984039140859     0.516122636028

  Mulliken Charges: (a.u.)
   Center  Symbol    Alpha    Beta     Spin     Total
       1     H     0.41239  0.41239  0.00000  0.17522
       2     C     3.24174  3.24174  0.00000 -0.48348
       3     C     3.02785  3.02785  0.00000 -0.05569
       4     H     0.39754  0.39754  0.00000  0.20492
       5     H     0.40507  0.40507  0.00000  0.18986
       6     C     3.24799  3.24799  0.00000 -0.49598
       7     N     3.21659  3.21659  0.00000  0.56682
       8     H     0.38560  0.38560  0.00000  0.22879
       9     H     0.40932  0.40932  0.00000  0.18136
      10     H     0.39069  0.39069  0.00000  0.21863
      11     H     0.40763  0.40763  0.00000  0.18474
      12     O     4.22975  4.22975  0.00000 -0.45950
      13     O     4.22784  4.22784  0.00000 -0.45568

   Total alpha = 24.00000, Total beta = 24.00000, Total charge = -0.00000
