  ==> Input File <==

--------------------------------------------------------------------------
set {
	reference rhf
	basis 6-31G*
}

set_num_threads( 4 )
memory 2 gb

molecule MOL {
0 1

H	 -2.516713	 -1.678330	 -0.966579
N	 -1.611610	 -1.607266	 -0.543833
C	 -1.444639	 -0.316880	 0.101249
H	 -0.932626	 -1.706498	 -1.273382
C	 -0.057860	 -0.214163	 0.700772
H	 -1.593331	 0.531216	 -0.568546
H	 -2.173879	 -0.231906	 0.901106
O	 0.874168	 -0.245412	 -0.342030
H	 0.041265	 0.713659	 1.263762
H	 0.109031	 -1.046409	 1.381028
C	 2.202317	 -0.244239	 0.074611
H	 2.711377	 -1.041390	 -0.449894
H	 2.692099	 0.699270	 -0.159667
H	 2.283185	 -0.418429	 1.145558

	symmetry c1
}
set optking {
	frozen_dihedral = ("
		5 8 11 13
	")
}

ee = optimize('scf')
oeprop('DIPOLE', 'QUADRUPOLE', 'MULLIKEN_CHARGES')
f=open( 'psi4out.xyz', 'w' )
f.write( "14  " )
f.write( str(ee) + "\n" )
f.write( MOL.save_string_xyz() )
f.close()
--------------------------------------------------------------------------

    Molecular point group: c1
  Charge       = 0
  Multiplicity = 1
  Basis Set: 6-31G*
  Basis Set:
  @DF-RHF Final Energy:  -248.12133238345837
    Total Energy =                       -248.1213323834583662
    Molecular point group: c1
  Basis Set: 6-31G*
  Basis Set:
  Basis Set: 6-31G*
  Basis Set:
  @DF-RHF Final Energy:  -248.12161513092573
    Total Energy =                       -248.1216151309255338
  Basis Set: 6-31G*
  Basis Set:
  Basis Set: 6-31G*
  Basis Set:
  @DF-RHF Final Energy:  -248.12169202351654
    Total Energy =                       -248.1216920235164594
  Basis Set: 6-31G*
  Basis Set:
  Charge       = 0
  Multiplicity = 1
  Basis Set: 6-31G*
  Basis Set:

    Orbital Energies (a.u.)
    -----------------------

    Doubly Occupied:

       1A    -20.553938     2A    -15.527899     3A    -11.266130
       4A    -11.265793     5A    -11.240236     6A     -1.376584
       7A     -1.173026     8A     -0.998966     9A     -0.907468
      10A     -0.814679    11A     -0.682134    12A     -0.671433
      13A     -0.643300    14A     -0.609286    15A     -0.605347
      16A     -0.538886    17A     -0.535000    18A     -0.496700
      19A     -0.471547    20A     -0.412192    21A     -0.379606

  @DF-RHF Final Energy:  -248.12169267508781

   => Energetics <=

    Nuclear Repulsion Energy =            194.4160370487411171
    One-Electron Energy =                -722.7351544001703587
    Two-Electron Energy =                 280.1974246763412566
    DFT Exchange-Correlation Energy =       0.0000000000000000
    Empirical Dispersion Energy =           0.0000000000000000
    PCM Polarization Energy =               0.0000000000000000
    EFP Energy =                            0.0000000000000000
    Total Energy =                       -248.1216926750879566
    Molecular point group: c1
  Basis Set: 6-31G*
  Basis Set:

  -Total Gradient:
     Atom            X                  Y                   Z
    ------   -----------------  -----------------  -----------------
       1        0.000015660984     0.000002225035    -0.000006561123
       2        0.000005695957     0.000018446661    -0.000014668844
       3       -0.000057458948    -0.000059789238     0.000113880732
       4       -0.000004436690     0.000005249299    -0.000019222651
       5       -0.000095159531    -0.001186015230    -0.000017735336
       6        0.000054066025    -0.000034179893     0.000029752587
       7       -0.000065372201    -0.000002428593     0.000004537008
       8        0.000285439934     0.001688056749    -0.000448884706
       9        0.000002766212    -0.000015709203     0.000014419065
      10       -0.000006814300     0.000012666867    -0.000042695019
      11       -0.000562327560     0.000194176704     0.001850059978
      12        0.000005773108    -0.000008816462     0.000003996086
      13        0.000421837876    -0.000605846684    -0.001471644596
      14        0.000000329127    -0.000008036011     0.000004766819

  **** Optimization is complete! (in 4 steps) ****
    Final optimized geometry and variables:
    Molecular point group: c1

    Geometry (in Angstrom), charge = 0, multiplicity = 1:

    H           -2.509935460531    -1.147387153961    -0.969144284191
    N           -1.610152608522    -1.073644930198    -0.535727801541
    C           -1.455494921789     0.216354208638     0.113194081359
    H           -0.922394359948    -1.168303654040    -1.257566735776
    C           -0.076087789084     0.324336843848     0.728482488542
    H           -1.600189387501     1.064680856690    -0.557037426429
    H           -2.193808395283     0.297480158903     0.905221756052
    O            0.865188762717     0.287488612204    -0.307363365180
    H            0.011116392758     1.254485096783     1.288969905777
    H            0.082826570928    -0.505187382134     1.412563410171
    C            2.207708537337     0.277882237050     0.080431162409
    H            2.722386110313    -0.512327270685    -0.454129243998
    H            2.678632795155     1.223115410814    -0.171902454084
    H            2.321702161722     0.101777837034     1.145315652556

  Mulliken Charges: (a.u.)
   Center  Symbol    Alpha    Beta     Spin     Total
       1     H     0.33296  0.33296  0.00000  0.33408
       2     N     3.92531  3.92531  0.00000 -0.85063
       3     C     3.06906  3.06906  0.00000 -0.13811
       4     H     0.32358  0.32358  0.00000  0.35283
       5     C     2.98964  2.98964  0.00000  0.02072
       6     H     0.42670  0.42670  0.00000  0.14661
       7     H     0.42067  0.42067  0.00000  0.15867
       8     O     4.31448  4.31448  0.00000 -0.62895
       9     H     0.43115  0.43115  0.00000  0.13770
      10     H     0.42208  0.42208  0.00000  0.15583
      11     C     3.07546  3.07546  0.00000 -0.15093
      12     H     0.41801  0.41801  0.00000  0.16399
      13     H     0.42285  0.42285  0.00000  0.15430
      14     H     0.42806  0.42806  0.00000  0.14389

   Total alpha = 21.00000, Total beta = 21.00000, Total charge = -0.00000
