  ==> Input File <==

--------------------------------------------------------------------------
set {
	reference rhf
	basis 6-31G*
}

set_num_threads( 4 )
memory 2 gb

molecule MOL {
0 1

O	 2.785526	 1.476655	 -0.328869
C	 2.601771	 0.540213	 -1.044459
C	 1.311579	 -0.259498	 -1.016107
C	 3.653853	 0.085999	 -2.035402
C	 0.291004	 0.242674	 0.000989
H	 0.891001	 -0.249089	 -2.020793
H	 1.568635	 -1.300004	 -0.822016
C	 -0.994322	 -0.586602	 0.000262
H	 0.060001	 1.281970	 -0.210271
H	 0.738255	 0.229678	 0.989900
C	 -2.259874	 0.272531	 0.000494
H	 -1.004862	 -1.240012	 -0.870939
H	 -1.005220	 -1.241071	 0.870675
C	 -3.549786	 -0.549746	 -0.000374
H	 -2.250389	 0.926680	 -0.869574
H	 -2.250838	 0.925513	 0.871430
C	 -4.809590	 0.315458	 -0.000369
H	 -3.560515	 -1.202009	 -0.871156
H	 -3.561123	 -1.202955	 0.869711
H	 -4.844746	 0.956611	 -0.876632
H	 -5.706986	 -0.295590	 -0.001609
H	 -4.845960	 0.954827	 0.877144
H	 3.259942	 0.116641	 -3.047091
H	 4.521313	 0.727528	 -1.966214
H	 3.945390	 -0.940717	 -1.834170

	symmetry c1
}
set optking {
	frozen_dihedral = ("
		9 5 8 12
	")
}

ee = optimize('scf')
oeprop('DIPOLE', 'QUADRUPOLE', 'MULLIKEN_CHARGES')
f=open( 'psi4out.xyz', 'w' )
f.write( "25  " )
f.write( str(ee) + "\n" )
f.write( MOL.save_string_xyz() )
f.close()
--------------------------------------------------------------------------

    Molecular point group: c1
  Charge       = 0
  Multiplicity = 1
  Basis Set: 6-31G*
  Basis Set:
  @DF-RHF Final Energy:  -387.13149598754836
    Total Energy =                       -387.1314959875481918
    Molecular point group: c1
  Basis Set: 6-31G*
  Basis Set:
  Basis Set: 6-31G*
  Basis Set:
  @DF-RHF Final Energy:  -387.13176705663915
    Total Energy =                       -387.1317670566395464
  Basis Set: 6-31G*
  Basis Set:
  Basis Set: 6-31G*
  Basis Set:
  @DF-RHF Final Energy:  -387.13173403075757
    Total Energy =                       -387.1317340307572294
  Basis Set: 6-31G*
  Basis Set:
  Basis Set: 6-31G*
  Basis Set:
  @DF-RHF Final Energy:  -387.13181556387536
    Total Energy =                       -387.1318155638750795
  Basis Set: 6-31G*
  Basis Set:
  Basis Set: 6-31G*
  Basis Set:
  @DF-RHF Final Energy:  -387.13183587597035
    Total Energy =                       -387.1318358759701823
  Basis Set: 6-31G*
  Basis Set:
  Basis Set: 6-31G*
  Basis Set:
  @DF-RHF Final Energy:  -387.13184156637413
    Total Energy =                       -387.1318415663738506
  Basis Set: 6-31G*
  Basis Set:
  Basis Set: 6-31G*
  Basis Set:
  @DF-RHF Final Energy:  -387.13184317337522
    Total Energy =                       -387.1318431733752732
  Basis Set: 6-31G*
  Basis Set:
  Charge       = 0
  Multiplicity = 1
  Basis Set: 6-31G*
  Basis Set:

    Orbital Energies (a.u.)
    -----------------------

    Doubly Occupied:

       1A    -20.550591     2A    -11.326194     3A    -11.232370
       4A    -11.228372     5A    -11.216629     6A    -11.216069
       7A    -11.215537     8A    -11.214359     9A    -11.208709
      10A     -1.395790    11A     -1.092030    12A     -1.056335
      13A     -1.013759    14A     -0.969333    15A     -0.890792
      16A     -0.815262    17A     -0.791318    18A     -0.731365
      19A     -0.658208    20A     -0.648525    21A     -0.635592
      22A     -0.622671    23A     -0.596471    24A     -0.580746
      25A     -0.567016    26A     -0.563318    27A     -0.539963
      28A     -0.524256    29A     -0.515705    30A     -0.491693
      31A     -0.485429    32A     -0.474997    33A     -0.464607
      34A     -0.459269    35A     -0.447391    36A     -0.399390

  @DF-RHF Final Energy:  -387.13184323788442

   => Energetics <=

    Nuclear Repulsion Energy =            438.8052119143619052
    One-Electron Energy =               -1394.1939855060070386
    Two-Electron Energy =                 568.2569303537608221
    DFT Exchange-Correlation Energy =       0.0000000000000000
    Empirical Dispersion Energy =           0.0000000000000000
    PCM Polarization Energy =               0.0000000000000000
    EFP Energy =                            0.0000000000000000
    Total Energy =                       -387.1318432378842544
    Molecular point group: c1
  Basis Set: 6-31G*
  Basis Set:

  -Total Gradient:
     Atom            X                  Y                   Z
    ------   -----------------  -----------------  -----------------
       1       -0.000009292136    -0.000006414830     0.000010175248
       2       -0.000002103864     0.000017806490    -0.000019330021
       3        0.000019875713     0.000013690742     0.000005869077
       4        0.000001643151    -0.000017282451     0.000010418456
       5        0.000803188834    -0.001212072130    -0.003471197375
       6        0.000000820438     0.000003676436    -0.000001810201
       7       -0.000000669155     0.000000014861     0.000002297695
       8       -0.001895062662     0.002934310114    -0.001314625328
       9       -0.000340192007     0.000549400324     0.003116458385
      10        0.000014150131     0.000004077684    -0.000006035660
      11       -0.000009563048    -0.000013124149     0.000009195221
      12        0.001434223225    -0.002276913841     0.001683482042
      13       -0.000021841179    -0.000004162358    -0.000006241878
      14       -0.000005453232    -0.000003281120    -0.000004138119
      15       -0.000005338677    -0.000001791118    -0.000002134804
      16        0.000001573820     0.000003733807     0.000002222393
      17        0.000008397765     0.000006349584    -0.000002755820
      18        0.000001031532    -0.000002054271    -0.000002675261
      19        0.000006551997     0.000002261833    -0.000000893775
      20       -0.000003167386     0.000002068719    -0.000001981320
      21        0.000006373433    -0.000002710534     0.000000203112
      22        0.000000106259     0.000001300213     0.000000623861
      23       -0.000001050758     0.000002444902    -0.000003597350
      24       -0.000005515514     0.000000743154     0.000001992476
      25        0.000001313305    -0.000002072061    -0.000005521053

  **** Optimization is complete! (in 8 steps) ****
    Final optimized geometry and variables:
    Molecular point group: c1

    Geometry (in Angstrom), charge = 0, multiplicity = 1:

    O            2.913262469093     1.292163875303     0.184183347802
    C            2.741203897830     0.357894774914    -0.537271322668
    C            1.441754990076    -0.426711463706    -0.549767712545
    C            3.818234483919    -0.107825264274    -1.495561556834
    C            0.396915734103     0.082991149305     0.437581920178
    H            1.050273148258    -0.408122159413    -1.566033242288
    H            1.679564941423    -1.471139297008    -0.351598624703
    C           -0.901803023838    -0.750127782750     0.433254275226
    H            0.177552041503     1.125041705831     0.229779336615
    H            0.829580148436     0.085141053757     1.432066999076
    C           -2.173130801681     0.098666225522     0.472758146036
    H           -0.926110029163    -1.405935949741    -0.435260488724
    H           -0.899408196721    -1.420977668375     1.289624108894
    C           -3.456259548548    -0.731831746954     0.519651357661
    H           -2.196326628770     0.749449366978    -0.399924804372
    H           -2.137400609408     0.755992677711     1.339928337209
    C           -4.721493294349     0.124876982268     0.552238473641
    H           -3.489817987708    -1.391980330441    -0.344764388589
    H           -3.435309056714    -1.377401337567     1.395134363977
    H           -4.789867973881     0.757098096810    -0.328586434025
    H           -5.614043371537    -0.492228561954     0.586188113780
    H           -4.733792575634     0.772558374227     1.424274885935
    H            3.455885950463    -0.073578089689    -2.518874416573
    H            4.689749547762     0.524734576546    -1.399957618871
    H            4.092847165543    -1.137399224692    -1.285292940625

  Mulliken Charges: (a.u.)
   Center  Symbol    Alpha    Beta     Spin     Total
       1     O     4.26109  4.26109  0.00000 -0.52217
       2     C     2.73622  2.73622  0.00000  0.52756
       3     C     3.21201  3.21201  0.00000 -0.42401
       4     C     3.28669  3.28669  0.00000 -0.57337
       5     C     3.15170  3.15170  0.00000 -0.30340
       6     H     0.40972  0.40972  0.00000  0.18055
       7     H     0.40955  0.40955  0.00000  0.18090
       8     C     3.15709  3.15709  0.00000 -0.31417
       9     H     0.40988  0.40988  0.00000  0.18023
      10     H     0.40994  0.40994  0.00000  0.18013
      11     C     3.15214  3.15214  0.00000 -0.30427
      12     H     0.42409  0.42409  0.00000  0.15181
      13     H     0.42055  0.42055  0.00000  0.15889
      14     C     3.15227  3.15227  0.00000 -0.30453
      15     H     0.42377  0.42377  0.00000  0.15245
      16     H     0.42120  0.42120  0.00000  0.15760
      17     C     3.23926  3.23926  0.00000 -0.47853
      18     H     0.42377  0.42377  0.00000  0.15246
      19     H     0.42284  0.42284  0.00000  0.15432
      20     H     0.42180  0.42180  0.00000  0.15641
      21     H     0.41943  0.41943  0.00000  0.16114
      22     H     0.42111  0.42111  0.00000  0.15778
      23     H     0.40876  0.40876  0.00000  0.18247
      24     H     0.39645  0.39645  0.00000  0.20710
      25     H     0.40868  0.40868  0.00000  0.18263

   Total alpha = 36.00000, Total beta = 36.00000, Total charge = -0.00000
