  ==> Input File <==

--------------------------------------------------------------------------
set {
	reference rhf
	basis cc-pvtz
}

set_num_threads( 4 )
memory 2 gb

molecule MOL {
0 1

H	 1.201194	 -2.272544	 -2.200193
O	 1.023410	 -1.974985	 -1.320655
C	 0.027543	 -1.094812	 -1.367181
C	 -0.318151	 -0.570512	 0.000144
O	 -0.495508	 -0.789367	 -2.382607
C	 -1.454884	 0.441630	 -0.000560
H	 -0.554777	 -1.428323	 0.621481
H	 0.588355	 -0.144589	 0.418158
C	 -2.822577	 -0.232186	 0.000063
H	 -1.359760	 1.084704	 -0.867077
H	 -1.359641	 1.085996	 0.864983
H	 -2.954352	 -0.858985	 -0.875745
H	 -3.615886	 0.505352	 0.000019
H	 -2.953878	 -0.858359	 0.876394

	symmetry c1
}
set optking {
	frozen_dihedral = ("
		7 4 6 10
	")
}

ee = optimize('scf')
oeprop('DIPOLE', 'QUADRUPOLE', 'MULLIKEN_CHARGES')
f=open( 'psi4out.xyz', 'w' )
f.write( "14  " )
f.write( str(ee) + "\n" )
f.write( MOL.save_string_xyz() )
f.close()
--------------------------------------------------------------------------

    Molecular point group: c1
  Charge       = 0
  Multiplicity = 1
  Basis Set: CC-PVTZ
  Basis Set:
  @DF-RHF Final Energy:  -305.99945906273365
    Total Energy =                       -305.9994590627335356
    Molecular point group: c1
  Basis Set: CC-PVTZ
  Basis Set:
  Basis Set: CC-PVTZ
  Basis Set:
  @DF-RHF Final Energy:  -305.99967987541334
    Total Energy =                       -305.9996798754135625
  Basis Set: CC-PVTZ
  Basis Set:
  Basis Set: CC-PVTZ
  Basis Set:
  @DF-RHF Final Energy:  -305.99943649135378
    Total Energy =                       -305.9994364913540039
  Basis Set: CC-PVTZ
  Basis Set:
  Basis Set: CC-PVTZ
  Basis Set:
  @DF-RHF Final Energy:  -305.99973190653185
    Total Energy =                       -305.9997319065317924
  Basis Set: CC-PVTZ
  Basis Set:
  Basis Set: CC-PVTZ
  Basis Set:
  @DF-RHF Final Energy:  -305.99973648269156
    Total Energy =                       -305.9997364826916169
  Basis Set: CC-PVTZ
  Basis Set:
  Basis Set: CC-PVTZ
  Basis Set:
  @DF-RHF Final Energy:  -305.99973932074727
    Total Energy =                       -305.9997393207472101
  Basis Set: CC-PVTZ
  Basis Set:
  Charge       = 0
  Multiplicity = 1
  Basis Set: CC-PVTZ
  Basis Set:

    Orbital Energies (a.u.)
    -----------------------

    Doubly Occupied:

       1A    -20.605047     2A    -20.541798     3A    -11.374724
       4A    -11.240021     5A    -11.223449     6A    -11.209878
       7A     -1.478840     8A     -1.370268     9A     -1.082603
      10A     -0.977691    11A     -0.861600    12A     -0.789537
      13A     -0.706027    14A     -0.695828    15A     -0.662340
      16A     -0.613621    17A     -0.598661    18A     -0.566922
      19A     -0.559519    20A     -0.496066    21A     -0.491068
      22A     -0.486715    23A     -0.481317    24A     -0.447415

  @DF-RHF Final Energy:  -305.99974013222516

   => Energetics <=

    Nuclear Repulsion Energy =            244.3196136467944655
    One-Electron Energy =                -901.5167926787867145
    Two-Electron Energy =                 351.1974388997672918
    DFT Exchange-Correlation Energy =       0.0000000000000000
    Empirical Dispersion Energy =           0.0000000000000000
    PCM Polarization Energy =               0.0000000000000000
    EFP Energy =                            0.0000000000000000
    Total Energy =                       -305.9997401322249857
    Molecular point group: c1
  Basis Set: CC-PVTZ
  Basis Set:

  -Total Gradient:
     Atom            X                  Y                   Z
    ------   -----------------  -----------------  -----------------
       1        0.000006857915    -0.000005085021    -0.000001634878
       2        0.000001856975    -0.000002451487    -0.000008097521
       3       -0.000017263274     0.000015120947    -0.000053141142
       4        0.000947086704     0.001116086879     0.002270518994
       5       -0.000006937513    -0.000005546533     0.000036975111
       6        0.001543932367     0.001754580716     0.001123655628
       7       -0.001046786355    -0.001194902074    -0.002014121771
       8       -0.000030304880     0.000026335492     0.000000691949
       9       -0.000015143843    -0.000092481353    -0.000022462508
      10       -0.001397742383    -0.001632112547    -0.001329772476
      11       -0.000004620224    -0.000005567797    -0.000015957202
      12        0.000002973537    -0.000001679500     0.000011073298
      13        0.000027752199     0.000024605503     0.000007924741
      14       -0.000011661224     0.000003096773    -0.000005652223

  **** Optimization is complete! (in 7 steps) ****
    Final optimized geometry and variables:
    Molecular point group: c1

    Geometry (in Angstrom), charge = 0, multiplicity = 1:

    H            1.821128308087    -1.575187303482    -1.320529279569
    O            1.639750195197    -1.279323443589    -0.441120456443
    C            0.684222388677    -0.356246729966    -0.496263943309
    C            0.349328659886     0.177997473996     0.873103241985
    O            0.192711235181    -0.021719484969    -1.518513099397
    C           -0.809659861795     1.171161590107     0.881378837412
    H            0.137386263411    -0.685212875529     1.494855900531
    H            1.259907665060     0.620604752546     1.261125480974
    C           -2.177702004856     0.494041186022     0.866627490377
    H           -0.729446362068     1.812836883941     0.013888480914
    H           -0.725320433730     1.796723793853     1.762451636327
    H           -2.296264083712    -0.125177581444    -0.014215279111
    H           -2.971437380685     1.231572650463     0.860945261135
    H           -2.314755969618    -0.132565725691     1.742111547385

  Mulliken Charges: (a.u.)
   Center  Symbol    Alpha    Beta     Spin     Total
       1     H     0.38223  0.38223  0.00000  0.23554
       2     O     4.15985  4.15985  0.00000 -0.31969
       3     C     2.80433  2.80433  0.00000  0.39134
       4     C     3.11162  3.11162  0.00000 -0.22324
       5     O     4.19252  4.19252  0.00000 -0.38505
       6     C     3.08589  3.08589  0.00000 -0.17178
       7     H     0.43886  0.43886  0.00000  0.12228
       8     H     0.43113  0.43113  0.00000  0.13775
       9     C     3.15026  3.15026  0.00000 -0.30052
      10     H     0.44410  0.44410  0.00000  0.11180
      11     H     0.44677  0.44677  0.00000  0.10645
      12     H     0.44695  0.44695  0.00000  0.10610
      13     H     0.44771  0.44771  0.00000  0.10458
      14     H     0.45779  0.45779  0.00000  0.08443

   Total alpha = 24.00000, Total beta = 24.00000, Total charge =  0.00000
