                              Psi4 1.0.54 Driver

  ==> Input File <==

--------------------------------------------------------------------------
set {
	reference rhf
	basis cc-pvtz
}

set_num_threads( 4 )
memory 2 gb

molecule MOL {
0 1

H	 2.614283	 2.028610	 0.296620
O	 3.358864	 1.662087	 -0.142800
C	 3.565468	 0.338079	 0.273842
C	 4.056299	 0.223598	 1.709344
H	 2.607158	 -0.154447	 0.178757
H	 4.255778	 -0.167927	 -0.398378
C	 5.446355	 0.809938	 1.945564
H	 3.337601	 0.712571	 2.360140
H	 4.059950	 -0.830030	 1.978142
C	 5.918906	 0.647342	 3.389550
H	 5.440731	 1.862723	 1.683617
H	 6.159301	 0.325670	 1.280373
C	 7.336574	 1.151228	 3.666264
H	 5.222071	 1.154591	 4.052382
H	 5.871917	 -0.406087	 3.651365
C	 7.519650	 2.663366	 3.549370
H	 7.616762	 0.846120	 4.670720
H	 8.031870	 0.651918	 2.995140
C	 8.923379	 3.126359	 3.930936
H	 6.793167	 3.162136	 4.187272
H	 7.307675	 2.988154	 2.535180
C	 9.110718	 4.635197	 3.811749
H	 9.138706	 2.816491	 4.949854
H	 9.650977	 2.622561	 3.300181
H	 8.418421	 5.167577	 4.455592
H	 10.115551	 4.929899	 4.092050
H	 8.939331	 4.972153	 2.794676

	symmetry c1
}
set optking {
	frozen_dihedral = ("
		4 3 2 1
	")
}

ee,wfn = optimize('scf', return_wfn=True)
oeprop( wfn, 'DIPOLE', 'QUADRUPOLE', 'MULLIKEN_CHARGES')
f=open( 'psi4out.xyz', 'w' )
f.write( "27  " )
f.write( str(ee) + "\n" )
f.write( MOL.save_string_xyz() )
f.close()
--------------------------------------------------------------------------

    Molecular point group: c1
  Charge       = 0
  Multiplicity = 1
  Basis Set: CC-PVTZ
  Basis Set:
  @DF-RHF Final Energy:  -388.42644129255791
    Total Energy =                       -388.4264412925579109
    Molecular point group: c1
  Basis Set: CC-PVTZ
  Basis Set:
  Basis Set: CC-PVTZ
  Basis Set:
  @DF-RHF Final Energy:  -388.41018942598231
    Total Energy =                       -388.4101894259825940
  Basis Set: CC-PVTZ
  Basis Set:
  Basis Set: CC-PVTZ
  Basis Set:
  @DF-RHF Final Energy:  -388.42787682616790
    Total Energy =                       -388.4278768261681307
  Basis Set: CC-PVTZ
  Basis Set:
  Basis Set: CC-PVTZ
  Basis Set:
  @DF-RHF Final Energy:  -388.42819800417794
    Total Energy =                       -388.4281980041781708
  Basis Set: CC-PVTZ
  Basis Set:
  Basis Set: CC-PVTZ
  Basis Set:
  @DF-RHF Final Energy:  -388.42822060066828
    Total Energy =                       -388.4282206006682827
  Basis Set: CC-PVTZ
  Basis Set:
  Basis Set: CC-PVTZ
  Basis Set:
  @DF-RHF Final Energy:  -388.42821457548496
    Total Energy =                       -388.4282145754848443
  Basis Set: CC-PVTZ
  Basis Set:
  Basis Set: CC-PVTZ
  Basis Set:
  @DF-RHF Final Energy:  -388.42822694003871
    Total Energy =                       -388.4282269400395080
  Basis Set: CC-PVTZ
  Basis Set:
  Charge       = 0
  Multiplicity = 1
  Basis Set: CC-PVTZ
  Basis Set:

    Orbital Energies (a.u.)
    -----------------------

    Doubly Occupied:

       1A    -20.546563     2A    -11.265652     3A    -11.214398
       4A    -11.210313     5A    -11.210229     6A    -11.209026
       7A    -11.207789     8A    -11.207304     9A    -11.203981
      10A     -1.364214    11A     -1.091893    12A     -1.059335
      13A     -1.010085    14A     -0.945400    15A     -0.883873
      16A     -0.820492    17A     -0.800753    18A     -0.774865
      19A     -0.684974    20A     -0.650771    21A     -0.641367
      22A     -0.611531    23A     -0.605489    24A     -0.585125
      25A     -0.570650    26A     -0.557299    27A     -0.535994
      28A     -0.520534    29A     -0.512549    30A     -0.489506
      31A     -0.477847    32A     -0.471236    33A     -0.465742
      34A     -0.457615    35A     -0.453624    36A     -0.440241
      37A     -0.422098

  @DF-RHF Final Energy:  -388.42822698648030

   => Energetics <=

    Nuclear Repulsion Energy =            460.3361296818365531
    One-Electron Energy =               -1439.1679747625939854
    Two-Electron Energy =                 590.4036180942772489
    DFT Exchange-Correlation Energy =       0.0000000000000000
    Empirical Dispersion Energy =           0.0000000000000000
    PCM Polarization Energy =               0.0000000000000000
    EFP Energy =                            0.0000000000000000
    Total Energy =                       -388.4282269864801265
    Molecular point group: c1
  Basis Set: CC-PVTZ
  Basis Set:

  -Total Gradient:
     Atom            X                  Y                   Z
    ------   -----------------  -----------------  -----------------
       1       -0.000235009163    -0.000138255229    -0.000313308566
       2        0.000398673874     0.000217166675     0.000341570986
       3       -0.000422991529    -0.000037184968     0.000026591098
       4        0.000260028806    -0.000049765160    -0.000060283004
       5        0.000002158246     0.000005564510    -0.000001616803
       6       -0.000000808872    -0.000009071878    -0.000001568161
       7       -0.000007902672     0.000006149965     0.000003916938
       8        0.000003160390    -0.000000248533     0.000000809307
       9        0.000000205690    -0.000006626210     0.000007354400
      10        0.000002706008     0.000001584311    -0.000002608667
      11        0.000006395508     0.000012455253    -0.000002892680
      12       -0.000002492702    -0.000001088372     0.000003249300
      13        0.000000075585     0.000000347393     0.000003099622
      14        0.000001341036     0.000002540968     0.000000640351
      15       -0.000000588695    -0.000002019302    -0.000003937130
      16       -0.000006218492     0.000001654973     0.000003523761
      17       -0.000002502123    -0.000000252346     0.000002228659
      18        0.000002434760    -0.000002279641     0.000000371866
      19        0.000003879385    -0.000001576819    -0.000003471713
      20       -0.000000893706     0.000002477513     0.000002260424
      21       -0.000002349950     0.000000575505    -0.000004210750
      22        0.000000131390    -0.000001718835    -0.000000138562
      23       -0.000001445383     0.000000754625    -0.000000099617
      24        0.000003274377    -0.000002634794    -0.000000831206
      25       -0.000002003193     0.000001558994     0.000000788928
      26        0.000000046501    -0.000000287395     0.000000478840
      27        0.000000694925     0.000000178795    -0.000001917624

  **** Optimization is complete! (in 8 steps) ****
    Final optimized geometry and variables:
    Molecular point group: c1

    Geometry (in Angstrom), charge = 0, multiplicity = 1:

    H           -3.078769569845     0.254280578304    -2.537029307565
    O           -2.344814034146    -0.259943123822    -2.820367873264
    C           -2.375330778036    -1.518466662675    -2.199273225416
    C           -2.073563422233    -1.460586644186    -0.709342385773
    H           -3.337307293877    -1.997309705507    -2.362789158917
    H           -1.628788731654    -2.117142904966    -2.705916972522
    C           -0.677671738524    -0.936513197324    -0.383931070821
    H           -2.821774082230    -0.838132083650    -0.221177777204
    H           -2.196546691887    -2.460574631481    -0.300210660648
    C           -0.412417789526    -0.851439152350     1.118010837092
    H           -0.552266267379     0.034530076539    -0.845399962180
    H            0.061046790830    -1.591589434833    -0.840867508945
    C            1.004423159225    -0.416205882020     1.496888420116
    H           -1.128661017832    -0.169620664223     1.571331319668
    H           -0.602104701681    -1.825469474696     1.561455353775
    C            1.357681008903     1.022670521711     1.125053162682
    H            1.124166302178    -0.535504761477     2.570326964606
    H            1.721318518249    -1.092368588681     1.036700377628
    C            2.747924458444     1.438207410092     1.599038719114
    H            0.618216055282     1.694780466646     1.555487772591
    H            1.299569550644     1.154753373765     0.049290341211
    C            3.104247855598     2.873763948615     1.227497485562
    H            2.810433018280     1.319553293748     2.677387348672
    H            3.487208151241     0.763419251757     1.175899673856
    H            2.402023137011     3.576628320931     1.663648085866
    H            4.095563599949     3.136538180401     1.578858700216
    H            3.086321045405     3.015659580491     0.152024418741

  Mulliken Charges: (a.u.)
   Center  Symbol    Alpha    Beta     Spin     Total
       1     H     0.39511  0.39511  0.00000  0.20977
       2     O     4.20300  4.20300  0.00000 -0.40599
       3     C     2.97936  2.97936  0.00000  0.04129
       4     C     3.10033  3.10033  0.00000 -0.20066
       5     H     0.45965  0.45965  0.00000  0.08069
       6     H     0.45872  0.45872  0.00000  0.08256
       7     C     3.09024  3.09024  0.00000 -0.18049
       8     H     0.45910  0.45910  0.00000  0.08179
       9     H     0.45315  0.45315  0.00000  0.09371
      10     C     3.09875  3.09875  0.00000 -0.19749
      11     H     0.44424  0.44424  0.00000  0.11152
      12     H     0.45556  0.45556  0.00000  0.08888
      13     C     3.09758  3.09758  0.00000 -0.19516
      14     H     0.45432  0.45432  0.00000  0.09136
      15     H     0.44966  0.44966  0.00000  0.10068
      16     C     3.08824  3.08824  0.00000 -0.17649
      17     H     0.44903  0.44903  0.00000  0.10194
      18     H     0.45388  0.45388  0.00000  0.09224
      19     C     3.08390  3.08390  0.00000 -0.16780
      20     H     0.45618  0.45618  0.00000  0.08764
      21     H     0.45147  0.45147  0.00000  0.09706
      22     C     3.14976  3.14976  0.00000 -0.29952
      23     H     0.45465  0.45465  0.00000  0.09070
      24     H     0.45474  0.45474  0.00000  0.09052
      25     H     0.45568  0.45568  0.00000  0.08864
      26     H     0.44888  0.44888  0.00000  0.10224
      27     H     0.45482  0.45482  0.00000  0.09036

   Total alpha = 37.00000, Total beta = 37.00000, Total charge = -0.00000

*** Psi4 exiting successfully. Buy a developer a beer!
