                              Psi4 1.0.54 Driver

  ==> Input File <==

--------------------------------------------------------------------------
set {
	reference rhf
	basis cc-pvtz
}

set_num_threads( 4 )
memory 2 gb

molecule MOL {
0 1

H	 -0.750452	 0.829866	 1.329117
C	 0.277463	 0.893704	 0.990778
N	 0.526300	 -0.128137	 0.000000
H	 0.916420	 0.735221	 1.850229
H	 0.442724	 1.909182	 0.624628
C	 -0.247113	 0.037112	 -1.209233
H	 1.498142	 -0.159404	 -0.219555
H	 -0.996493	 -0.743733	 -1.271440
H	 0.397975	 -0.057351	 -2.073512
H	 -0.763794	 0.997171	 -1.271673

	symmetry c1
}
set optking {
	frozen_dihedral = ("
		2 3 6 8
	")
}

ee,wfn = optimize('scf', return_wfn=True)
oeprop( wfn, 'DIPOLE', 'QUADRUPOLE', 'MULLIKEN_CHARGES')
f=open( 'psi4out.xyz', 'w' )
f.write( "10  " )
f.write( str(ee) + "\n" )
f.write( MOL.save_string_xyz() )
f.close()
--------------------------------------------------------------------------

    Molecular point group: c1
  Charge       = 0
  Multiplicity = 1
  Basis Set: CC-PVTZ
  Basis Set:
  @DF-RHF Final Energy:  -134.28831443217268
    Total Energy =                       -134.2883144321727684
    Molecular point group: c1
  Basis Set: CC-PVTZ
  Basis Set:
  Basis Set: CC-PVTZ
  Basis Set:
  @DF-RHF Final Energy:  -134.28840218802310
    Total Energy =                       -134.2884021880230989
  Basis Set: CC-PVTZ
  Basis Set:
  Basis Set: CC-PVTZ
  Basis Set:
  @DF-RHF Final Energy:  -134.28873602848284
    Total Energy =                       -134.2887360284827878
  Basis Set: CC-PVTZ
  Basis Set:
  Basis Set: CC-PVTZ
  Basis Set:
  @DF-RHF Final Energy:  -134.28874147289991
    Total Energy =                       -134.2887414728999147
  Basis Set: CC-PVTZ
  Basis Set:
  Charge       = 0
  Multiplicity = 1
  Basis Set: CC-PVTZ
  Basis Set:

    Orbital Energies (a.u.)
    -----------------------

    Doubly Occupied:

       1A    -15.530389     2A    -11.234416     3A    -11.234058
       4A     -1.197100     5A     -0.948281     6A     -0.854707
       7A     -0.660471     8A     -0.612372     9A     -0.589475
      10A     -0.544546    11A     -0.508445    12A     -0.506119
      13A     -0.361211

  @DF-RHF Final Energy:  -134.28874178887776

   => Energetics <=

    Nuclear Repulsion Energy =             84.4922692569443115
    One-Electron Energy =                -347.9988393678357852
    Two-Electron Energy =                 129.2178283220137303
    DFT Exchange-Correlation Energy =       0.0000000000000000
    Empirical Dispersion Energy =           0.0000000000000000
    PCM Polarization Energy =               0.0000000000000000
    EFP Energy =                            0.0000000000000000
    Total Energy =                       -134.2887417888777293
    Molecular point group: c1
  Basis Set: CC-PVTZ
  Basis Set:

  -Total Gradient:
     Atom            X                  Y                   Z
    ------   -----------------  -----------------  -----------------
       1        0.000012130502    -0.000015836462    -0.000021884950
       2        0.001428327232     0.001484443019    -0.000827836991
       3       -0.001498462847    -0.002454376185     0.000797115339
       4        0.000002724760    -0.000006267202     0.000015617703
       5       -0.000002805478    -0.000008028431    -0.000005253272
       6       -0.001988241060     0.002387252670     0.001488083893
       7        0.000007344826     0.000008586045    -0.000000300267
       8        0.002031433524    -0.001402700069    -0.001427016006
       9        0.000016151560    -0.000003520785    -0.000009787918
      10       -0.000008603019     0.000010447400    -0.000008737532

  **** Optimization is complete! (in 5 steps) ****
    Final optimized geometry and variables:
    Molecular point group: c1

    Geometry (in Angstrom), charge = 0, multiplicity = 1:

    H           -0.966021558861     0.402684924015     1.454362830653
    C            0.038271499358     0.593169502953     1.093593929955
    N            0.383079809263    -0.367014435405     0.069246274378
    H            0.711690023691     0.486094225272     1.934807260443
    H            0.077219469300     1.629813572471     0.754175365591
    C           -0.423779550192    -0.285422566181    -1.137986353178
    H            1.346929286070    -0.275224170821    -0.159028063958
    H           -1.079995809622    -1.144171744694    -1.228341626385
    H            0.207121825404    -0.279945439653    -2.019924877505
    H           -1.029409969147     0.615885698378    -1.169609901663

  Mulliken Charges: (a.u.)
   Center  Symbol    Alpha    Beta     Spin     Total
       1     H     0.45630  0.45630  0.00000  0.08740
       2     C     3.08336  3.08336  0.00000 -0.16672
       3     N     3.63107  3.63107  0.00000 -0.26214
       4     H     0.45314  0.45314  0.00000  0.09372
       5     H     0.47393  0.47393  0.00000  0.05213
       6     C     3.07635  3.07635  0.00000 -0.15270
       7     H     0.44072  0.44072  0.00000  0.11855
       8     H     0.45602  0.45602  0.00000  0.08796
       9     H     0.46006  0.46006  0.00000  0.07988
      10     H     0.46904  0.46904  0.00000  0.06192

   Total alpha = 13.00000, Total beta = 13.00000, Total charge = -0.00000

*** Psi4 exiting successfully. Buy a developer a beer!
