                              Psi4 1.0.54 Driver

  ==> Input File <==

--------------------------------------------------------------------------
set {
	reference rhf
	basis cc-pvtz
}

set_num_threads( 4 )
memory 2 gb

molecule MOL {
0 1

O	 1.216069	 1.304886	 0.000821
C	 1.121787	 0.124983	 0.000110
C	 -0.170912	 -0.649867	 -0.000147
O	 2.167739	 -0.685178	 -0.000678
C	 -1.413045	 0.229353	 0.001137
H	 -0.152877	 -1.303435	 -0.866175
H	 -0.152278	 -1.305116	 0.864586
C	 -2.252833	 0.047118	 1.262032
H	 -2.011707	 0.004740	 -0.874473
H	 -1.116919	 1.267820	 -0.096020
C	 -3.501536	 0.922056	 1.272730
H	 -2.543715	 -0.995886	 1.355685
H	 -1.647642	 0.273410	 2.135972
H	 -4.144606	 0.695211	 0.429173
H	 -4.077707	 0.771962	 2.178365
H	 -3.242062	 1.973697	 1.215253
C	 3.449556	 -0.089977	 -0.000570
H	 3.585694	 0.522473	 -0.879546
H	 4.155805	 -0.904274	 -0.001389
H	 3.586173	 0.521118	 0.879272

	symmetry c1
}
set optking {
	frozen_dihedral = ("
		9 5 3 6
	")
}

ee,wfn = optimize('scf', return_wfn=True)
oeprop( wfn, 'DIPOLE', 'QUADRUPOLE', 'MULLIKEN_CHARGES')
f=open( 'psi4out.xyz', 'w' )
f.write( "20  " )
f.write( str(ee) + "\n" )
f.write( MOL.save_string_xyz() )
f.close()
--------------------------------------------------------------------------

    Molecular point group: c1
  Charge       = 0
  Multiplicity = 1
  Basis Set: CC-PVTZ
  Basis Set:
  @DF-RHF Final Energy:  -384.07849847135947
    Total Energy =                       -384.0784984713591257
    Molecular point group: c1
  Basis Set: CC-PVTZ
  Basis Set:
  Basis Set: CC-PVTZ
  Basis Set:
  @DF-RHF Final Energy:  -384.07878399212188
    Total Energy =                       -384.0787839921221121
  Basis Set: CC-PVTZ
  Basis Set:
  Basis Set: CC-PVTZ
  Basis Set:
  @DF-RHF Final Energy:  -384.07868034658350
    Total Energy =                       -384.0786803465834964
  Basis Set: CC-PVTZ
  Basis Set:
  Basis Set: CC-PVTZ
  Basis Set:
  @DF-RHF Final Energy:  -384.07887761001467
    Total Energy =                       -384.0788776100149562
  Basis Set: CC-PVTZ
  Basis Set:
  Basis Set: CC-PVTZ
  Basis Set:
  @DF-RHF Final Energy:  -384.07888202520616
    Total Energy =                       -384.0788820252062123
  Basis Set: CC-PVTZ
  Basis Set:
  Basis Set: CC-PVTZ
  Basis Set:
  @DF-RHF Final Energy:  -384.07888577952434
    Total Energy =                       -384.0788857795247395
  Basis Set: CC-PVTZ
  Basis Set:
  Basis Set: CC-PVTZ
  Basis Set:
  @DF-RHF Final Energy:  -384.07888719799013
    Total Energy =                       -384.0788871979904116
  Basis Set: CC-PVTZ
  Basis Set:
  Charge       = 0
  Multiplicity = 1
  Basis Set: CC-PVTZ
  Basis Set:

    Orbital Energies (a.u.)
    -----------------------

    Doubly Occupied:

       1A    -20.596807     2A    -20.535173     3A    -11.365748
       4A    -11.278858     5A    -11.233842     6A    -11.216809
       7A    -11.215605     8A    -11.207101     9A     -1.473123
      10A     -1.366609    11A     -1.087025    12A     -1.024879
      13A     -0.969008    14A     -0.886403    15A     -0.805432
      16A     -0.769132    17A     -0.704242    18A     -0.684206
      19A     -0.676677    20A     -0.635130    21A     -0.604161
      22A     -0.591991    23A     -0.580110    24A     -0.547981
      25A     -0.530472    26A     -0.518290    27A     -0.509857
      28A     -0.478124    29A     -0.469476    30A     -0.463576
      31A     -0.461131    32A     -0.443188

  @DF-RHF Final Energy:  -384.07888743976065

   => Energetics <=

    Nuclear Repulsion Energy =            383.8209568683523116
    One-Electron Energy =               -1283.9393571777200123
    Two-Electron Energy =                 516.0395128696070515
    DFT Exchange-Correlation Energy =       0.0000000000000000
    Empirical Dispersion Energy =           0.0000000000000000
    PCM Polarization Energy =               0.0000000000000000
    EFP Energy =                            0.0000000000000000
    Total Energy =                       -384.0788874397605923
    Molecular point group: c1
  Basis Set: CC-PVTZ
  Basis Set:

  -Total Gradient:
     Atom            X                  Y                   Z
    ------   -----------------  -----------------  -----------------
       1        0.000047526802    -0.000078770955    -0.000005785259
       2       -0.000058080848     0.000068115131     0.000006774733
       3        0.000754971614     0.001165208862    -0.000867782543
       4        0.000058820931     0.000018304534    -0.000001400236
       5       -0.000742752927    -0.001149825648     0.000862089050
       6       -0.000519286427    -0.000778173028     0.000573954514
       7       -0.000004678795    -0.000001789216     0.000004642286
       8        0.000005972561    -0.000004591826     0.000000769263
       9        0.000501804203     0.000758419536    -0.000575533604
      10       -0.000008457262     0.000005587249    -0.000004491242
      11       -0.000004900514     0.000001531165     0.000000530226
      12        0.000000149631    -0.000001212566     0.000003302169
      13       -0.000002849300    -0.000001014388     0.000002907755
      14       -0.000000252934    -0.000002451054    -0.000001425198
      15       -0.000000419849     0.000000961967    -0.000000660818
      16        0.000001872130     0.000002384778     0.000000799070
      17       -0.000036291501    -0.000011241331    -0.000001771913
      18        0.000003714999    -0.000005190991     0.000010524938
      19       -0.000000942081     0.000015618219     0.000001308116
      20        0.000004079572    -0.000001870436    -0.000008751309

  **** Optimization is complete! (in 8 steps) ****
    Final optimized geometry and variables:
    Molecular point group: c1

    Geometry (in Angstrom), charge = 0, multiplicity = 1:

    O            1.126187442144     1.149757865287    -0.240232394461
    C            1.018006995190    -0.026624259368    -0.312690854385
    C           -0.277400124593    -0.801631654712    -0.313889993860
    O            2.055880181563    -0.842995987641    -0.393387776123
    C           -1.546603569595     0.060071291036    -0.299490838949
    H           -0.248760964211    -1.467955013802    -1.167144384439
    H           -0.235255436598    -1.453481445218     0.552681537863
    C           -2.376494573780    -0.104397393165     0.971503297437
    H           -2.156309912469    -0.185612132806    -1.162330391747
    H           -1.267359506933     1.098995285667    -0.410120984816
    C           -3.631556136165     0.760360755540     0.974995683377
    H           -2.656432801016    -1.147955635659     1.090209332279
    H           -1.761943199747     0.147878832820     1.831378876986
    H           -4.280878147341     0.510718118715     0.142285111713
    H           -4.198758316185     0.624641882738     1.888549898612
    H           -3.380188520470     1.812230782459     0.893429398491
    C            3.343096637548    -0.259731146173    -0.386100589381
    H            3.463742789739     0.408564332934    -1.225702328614
    H            4.040918489720    -1.078036693755    -0.458657838857
    H            3.507519372254     0.290251662789     0.528614289652

  Mulliken Charges: (a.u.)
   Center  Symbol    Alpha    Beta     Spin     Total
       1     O     4.19654  4.19654  0.00000 -0.39308
       2     C     2.80016  2.80016  0.00000  0.39967
       3     C     3.11236  3.11236  0.00000 -0.22472
       4     O     4.14704  4.14704  0.00000 -0.29409
       5     C     3.09541  3.09541  0.00000 -0.19082
       6     H     0.43195  0.43195  0.00000  0.13610
       7     H     0.43930  0.43930  0.00000  0.12141
       8     C     3.08511  3.08511  0.00000 -0.17022
       9     H     0.44992  0.44992  0.00000  0.10016
      10     H     0.43706  0.43706  0.00000  0.12588
      11     C     3.15064  3.15064  0.00000 -0.30127
      12     H     0.45508  0.45508  0.00000  0.08985
      13     H     0.45253  0.45253  0.00000  0.09493
      14     H     0.45574  0.45574  0.00000  0.08853
      15     H     0.44853  0.44853  0.00000  0.10295
      16     H     0.45207  0.45207  0.00000  0.09586
      17     C     3.03631  3.03631  0.00000 -0.07262
      18     H     0.45423  0.45423  0.00000  0.09153
      19     H     0.44553  0.44553  0.00000  0.10895
      20     H     0.45450  0.45450  0.00000  0.09101

   Total alpha = 32.00000, Total beta = 32.00000, Total charge = -0.00000

*** Psi4 exiting successfully. Buy a developer a beer!
