  ==> Input File <==

--------------------------------------------------------------------------
set {
	reference rhf
	basis 6-31G*
}

set_num_threads( 4 )
memory 2 gb

molecule MOL {
0 1

O	 1.737906	 1.486773	 -0.403255
C	 1.387150	 0.672228	 -1.194838
C	 0.070675	 -0.065482	 -1.171466
O	 2.127992	 0.300649	 -2.231283
C	 -0.823008	 0.326187	 0.001381
H	 -0.422596	 0.120471	 -2.121634
H	 0.294509	 -1.128702	 -1.158051
C	 -2.149452	 -0.435131	 -0.000098
H	 -1.010812	 1.394694	 -0.033418
H	 -0.293514	 0.143228	 0.931150
C	 -3.368779	 0.488503	 -0.000883
H	 -2.193746	 -1.087250	 -0.871175
H	 -2.195311	 -1.087803	 0.870418
C	 -4.693822	 -0.272754	 -0.001129
H	 -3.325798	 1.139422	 -0.871284
H	 -3.326423	 1.139959	 0.869145
H	 -4.781274	 -0.907928	 -0.878124
H	 -5.538651	 0.408946	 -0.001420
H	 -4.781694	 -0.907783	 0.875984
C	 3.392964	 0.921049	 -2.372367
H	 3.281397	 1.989537	 -2.488186
H	 3.834450	 0.492867	 -3.258722
H	 4.013070	 0.720121	 -1.510623

	symmetry c1
}
set optking {
	frozen_dihedral = ("
		9 5 8 12
	")
}

ee = optimize('scf')
oeprop('DIPOLE', 'QUADRUPOLE', 'MULLIKEN_CHARGES')
f=open( 'psi4out.xyz', 'w' )
f.write( "23  " )
f.write( str(ee) + "\n" )
f.write( MOL.save_string_xyz() )
f.close()
--------------------------------------------------------------------------

    Molecular point group: c1
  Charge       = 0
  Multiplicity = 1
  Basis Set: 6-31G*
  Basis Set:
  @DF-RHF Final Energy:  -422.97061432810710
    Total Energy =                       -422.9706143281069899
    Molecular point group: c1
  Basis Set: 6-31G*
  Basis Set:
  Basis Set: 6-31G*
  Basis Set:
  @DF-RHF Final Energy:  -422.97080834780343
    Total Energy =                       -422.9708083478035405
  Basis Set: 6-31G*
  Basis Set:
  Basis Set: 6-31G*
  Basis Set:
  @DF-RHF Final Energy:  -422.97064163760683
    Total Energy =                       -422.9706416376064908
  Basis Set: 6-31G*
  Basis Set:
  Basis Set: 6-31G*
  Basis Set:
  @DF-RHF Final Energy:  -422.97090938449304
    Total Energy =                       -422.9709093844928702
  Basis Set: 6-31G*
  Basis Set:
  Basis Set: 6-31G*
  Basis Set:
  @DF-RHF Final Energy:  -422.97091504866239
    Total Energy =                       -422.9709150486623912
  Basis Set: 6-31G*
  Basis Set:
  Charge       = 0
  Multiplicity = 1
  Basis Set: 6-31G*
  Basis Set:

    Orbital Energies (a.u.)
    -----------------------

    Doubly Occupied:

       1A    -20.603601     2A    -20.545511     3A    -11.372045
       4A    -11.280837     5A    -11.235929     6A    -11.218827
       7A    -11.217711     8A    -11.217125     9A    -11.209776
      10A     -1.469286    11A     -1.362744    12A     -1.091125
      13A     -1.043495    14A     -0.986229    15A     -0.931531
      16A     -0.845264    17A     -0.795380    18A     -0.767465
      19A     -0.699615    20A     -0.682461    21A     -0.672203
      22A     -0.639449    23A     -0.617372    24A     -0.598717
      25A     -0.572632    26A     -0.559011    27A     -0.554991
      28A     -0.527786    29A     -0.521312    30A     -0.501072
      31A     -0.491657    32A     -0.470462    33A     -0.463800
      34A     -0.458805    35A     -0.452460    36A     -0.435202

  @DF-RHF Final Energy:  -422.97091541148200

   => Energetics <=

    Nuclear Repulsion Energy =            453.1007916581201016
    One-Electron Energy =               -1473.9176311268734025
    Two-Electron Energy =                 597.8459240572710769
    DFT Exchange-Correlation Energy =       0.0000000000000000
    Empirical Dispersion Energy =           0.0000000000000000
    PCM Polarization Energy =               0.0000000000000000
    EFP Energy =                            0.0000000000000000
    Total Energy =                       -422.9709154114822240
    Molecular point group: c1
  Basis Set: 6-31G*
  Basis Set:

  -Total Gradient:
     Atom            X                  Y                   Z
    ------   -----------------  -----------------  -----------------
       1        0.000006497709     0.000005293631    -0.000009355488
       2       -0.000015186791    -0.000032079271     0.000039000694
       3       -0.000005126005    -0.000026079849    -0.000057853428
       4       -0.000013125442     0.000016283465     0.000005908312
       5        0.000149427726    -0.000226834772    -0.001228844132
       6       -0.000005802961    -0.000015063035    -0.000008149093
       7        0.000012988660     0.000005514365    -0.000006680172
       8       -0.000588774105     0.000948882484    -0.000383543834
       9       -0.000053673763     0.000036377216     0.001074131447
      10       -0.000053845229    -0.000007871268     0.000005366772
      11       -0.000011543193     0.000059384166     0.000072533391
      12        0.000492989192    -0.000783229965     0.000557989102
      13        0.000041363645     0.000013644399    -0.000008183363
      14        0.000037766517    -0.000015398944    -0.000042794693
      15        0.000002639421     0.000023315165     0.000001539232
      16       -0.000011068737    -0.000000768906     0.000004310123
      17       -0.000013337466    -0.000015790607    -0.000001373641
      18        0.000012449045     0.000005870452    -0.000011126697
      19        0.000007586112     0.000009445919    -0.000001392487
      20        0.000004372504    -0.000006336485     0.000001870417
      21       -0.000000371240     0.000001236792    -0.000001120187
      22        0.000003404254     0.000003203200    -0.000001415826
      23        0.000000370149     0.000001001845    -0.000000816443

  **** Optimization is complete! (in 6 steps) ****
    Final optimized geometry and variables:
    Molecular point group: c1

    Geometry (in Angstrom), charge = 0, multiplicity = 1:

    O            1.962242331529     1.104384618432     0.426437259812
    C            1.617174280047     0.285994595592    -0.363781159583
    C            0.301423544832    -0.453153435324    -0.344906040652
    O            2.366104089709    -0.091580000542    -1.392228876231
    C           -0.599167798925    -0.060177688191     0.822943705215
    H           -0.188827000095    -0.269518672385    -1.297249253885
    H            0.525402200581    -1.516230600609    -0.328192863610
    C           -1.942655795833    -0.822870548147     0.826967547331
    H           -0.776093337730     1.009541470922     0.788717509247
    H           -0.065224803624    -0.233282381369     1.750319210061
    C           -3.166065023793     0.096320321701     0.843485342347
    H           -2.004067197706    -1.478097680073    -0.039745230099
    H           -1.986267551977    -1.481509303947     1.690601988515
    C           -4.488124580307    -0.668890344212     0.853329249020
    H           -3.132968532639     0.752206061856    -0.024235785208
    H           -3.115132216406     0.743894719502     1.715939014022
    H           -4.582083875165    -1.301848793185    -0.024783301498
    H           -5.335288507214     0.009829063213     0.863573750326
    H           -4.565124881267    -1.307100408847     1.729130462260
    C            3.631794978244     0.528701474204    -1.527547880886
    H            3.520564500033     1.596377115918    -1.650928442008
    H            4.080288365997     0.095296974202    -2.407879306183
    H            4.245430310065     0.333469201159    -0.659877209041

  Mulliken Charges: (a.u.)
   Center  Symbol    Alpha    Beta     Spin     Total
       1     O     4.28599  4.28599  0.00000 -0.57197
       2     C     2.60574  2.60574  0.00000  0.78853
       3     C     3.20977  3.20977  0.00000 -0.41955
       4     O     4.30732  4.30732  0.00000 -0.61465
       5     C     3.15627  3.15627  0.00000 -0.31254
       6     H     0.40071  0.40071  0.00000  0.19858
       7     H     0.40019  0.40019  0.00000  0.19962
       8     C     3.15692  3.15692  0.00000 -0.31384
       9     H     0.40878  0.40878  0.00000  0.18244
      10     H     0.40922  0.40922  0.00000  0.18156
      11     C     3.15314  3.15314  0.00000 -0.30628
      12     H     0.42236  0.42236  0.00000  0.15528
      13     H     0.41914  0.41914  0.00000  0.16172
      14     C     3.24044  3.24044  0.00000 -0.48088
      15     H     0.42308  0.42308  0.00000  0.15384
      16     H     0.42014  0.42014  0.00000  0.15971
      17     H     0.42196  0.42196  0.00000  0.15607
      18     H     0.41850  0.41850  0.00000  0.16301
      19     H     0.42126  0.42126  0.00000  0.15748
      20     C     3.09246  3.09246  0.00000 -0.18491
      21     H     0.40909  0.40909  0.00000  0.18183
      22     H     0.40846  0.40846  0.00000  0.18308
      23     H     0.40907  0.40907  0.00000  0.18186

   Total alpha = 36.00000, Total beta = 36.00000, Total charge =  0.00000
