                              Psi4 1.0.54 Driver

  ==> Input File <==

--------------------------------------------------------------------------
set {
	reference rhf
	basis cc-pvtz
}

set_num_threads( 4 )
memory 2 gb

molecule MOL {
0 1

H	 3.273419	 0.176595	 -0.102789
N	 2.433987	 -0.362316	 -0.080024
C	 1.263552	 0.494993	 0.021953
H	 2.497638	 -0.973615	 0.707122
C	 -0.016533	 -0.325589	 -0.026925
H	 1.280915	 1.180773	 -0.818522
H	 1.263064	 1.106893	 0.925038
C	 -1.280353	 0.525521	 0.047747
H	 -0.016686	 -0.912532	 -0.939714
H	 -0.014099	 -1.037598	 0.796369
C	 -1.447575	 1.228850	 1.390638
H	 -2.147444	 -0.102542	 -0.138410
H	 -1.265985	 1.267162	 -0.746379
H	 -1.499336	 0.512131	 2.203266
H	 -2.354910	 1.821440	 1.413676
H	 -0.613503	 1.893286	 1.590708

	symmetry c1
}
set optking {
	frozen_dihedral = ("
		12 8 5 9
	")
}

ee,wfn = optimize('scf', return_wfn=True)
oeprop( wfn, 'DIPOLE', 'QUADRUPOLE', 'MULLIKEN_CHARGES')
f=open( 'psi4out.xyz', 'w' )
f.write( "16  " )
f.write( str(ee) + "\n" )
f.write( MOL.save_string_xyz() )
f.close()
--------------------------------------------------------------------------

    Molecular point group: c1
  Charge       = 0
  Multiplicity = 1
  Basis Set: CC-PVTZ
  Basis Set:
  @DF-RHF Final Energy:  -212.39772962746477
    Total Energy =                       -212.3977296274647415
    Molecular point group: c1
  Basis Set: CC-PVTZ
  Basis Set:
  Basis Set: CC-PVTZ
  Basis Set:
  @DF-RHF Final Energy:  -212.39807476382020
    Total Energy =                       -212.3980747638201478
  Basis Set: CC-PVTZ
  Basis Set:
  Basis Set: CC-PVTZ
  Basis Set:
  @DF-RHF Final Energy:  -212.39838231685073
    Total Energy =                       -212.3983823168508138
  Basis Set: CC-PVTZ
  Basis Set:
  Basis Set: CC-PVTZ
  Basis Set:
  @DF-RHF Final Energy:  -212.39839164177386
    Total Energy =                       -212.3983916417740829
  Basis Set: CC-PVTZ
  Basis Set:
  Charge       = 0
  Multiplicity = 1
  Basis Set: CC-PVTZ
  Basis Set:

    Orbital Energies (a.u.)
    -----------------------

    Doubly Occupied:

       1A    -15.526327     2A    -11.237485     3A    -11.213472
       4A    -11.208261     5A    -11.206562     6A     -1.177990
       7A     -1.059729     8A     -0.956630     9A     -0.858099
      10A     -0.781654    11A     -0.656825    12A     -0.638500
      13A     -0.621457    14A     -0.566692    15A     -0.564943
      16A     -0.535465    17A     -0.500926    18A     -0.467345
      19A     -0.465806    20A     -0.461095    21A     -0.383294

  @DF-RHF Final Energy:  -212.39839244767751

   => Energetics <=

    Nuclear Repulsion Energy =            188.7765099349712727
    One-Electron Energy =                -660.1726862585567233
    Two-Electron Energy =                 258.9977838759077713
    DFT Exchange-Correlation Energy =       0.0000000000000000
    Empirical Dispersion Energy =           0.0000000000000000
    PCM Polarization Energy =               0.0000000000000000
    EFP Energy =                            0.0000000000000000
    Total Energy =                       -212.3983924476776792
    Molecular point group: c1
  Basis Set: CC-PVTZ
  Basis Set:

  -Total Gradient:
     Atom            X                  Y                   Z
    ------   -----------------  -----------------  -----------------
       1       -0.000006026937    -0.000001905345    -0.000010045835
       2       -0.000001429600    -0.000001294524    -0.000016525025
       3       -0.000021766594     0.000001275794     0.000029523295
       4       -0.000004773868     0.000006958912     0.000003800349
       5       -0.000044222988    -0.000055086285     0.000057285576
       6        0.000017163765    -0.000002984783    -0.000004936233
       7       -0.000018690894     0.000009118649     0.000004378383
       8        0.000042076375     0.000053324472    -0.000068468663
       9        0.000013287293     0.000030778012    -0.000012254426
      10        0.000026886120    -0.000025981457     0.000010699996
      11        0.000005917600    -0.000026215789    -0.000005464865
      12        0.000012578269    -0.000003992757     0.000046675760
      13       -0.000024338362     0.000031721008    -0.000022166786
      14        0.000003702149    -0.000009498518     0.000012611890
      15       -0.000022433041     0.000001948709    -0.000010065428
      16        0.000022070712    -0.000008166098    -0.000015047988

  **** Optimization is complete! (in 5 steps) ****
    Final optimized geometry and variables:
    Molecular point group: c1

    Geometry (in Angstrom), charge = 0, multiplicity = 1:

    H            3.061574525037    -0.159278999199    -0.466245233418
    N            2.215115952871    -0.687046396238    -0.437678425077
    C            1.062238790744     0.183660260249    -0.260036003078
    H            2.295614706266    -1.328990983441     0.323274634365
    C           -0.226501528359    -0.627380657447    -0.285548735636
    H            1.051883735631     0.891546365685    -1.082564743947
    H            1.117636607425     0.767657750256     0.656932712886
    C           -1.507496034583     0.204409085200    -0.209670314233
    H           -0.231691572312    -1.211095757843    -1.199304859173
    H           -0.213879248293    -1.342258755661     0.535474547226
    C           -1.731256926785     0.922452453389     1.119636344343
    H           -2.350895788841    -0.453468371520    -0.393477430500
    H           -1.511623709613     0.931460690183    -1.017628506220
    H           -1.724224891130     0.220025214868     1.947068618452
    H           -2.690055814708     1.428319163185     1.125918988793
    H           -0.969639231615     1.668102426086     1.313183002249

  Mulliken Charges: (a.u.)
   Center  Symbol    Alpha    Beta     Spin     Total
       1     H     0.43007  0.43007  0.00000  0.13986
       2     N     3.69035  3.69035  0.00000 -0.38069
       3     C     3.02628  3.02628  0.00000 -0.05256
       4     H     0.43065  0.43065  0.00000  0.13871
       5     C     3.08932  3.08932  0.00000 -0.17864
       6     H     0.45744  0.45744  0.00000  0.08512
       7     H     0.46557  0.46557  0.00000  0.06886
       8     C     3.09449  3.09449  0.00000 -0.18897
       9     H     0.44392  0.44392  0.00000  0.11216
      10     H     0.46000  0.46000  0.00000  0.08001
      11     C     3.15186  3.15186  0.00000 -0.30372
      12     H     0.44827  0.44827  0.00000  0.10346
      13     H     0.45445  0.45445  0.00000  0.09109
      14     H     0.45542  0.45542  0.00000  0.08916
      15     H     0.44682  0.44682  0.00000  0.10636
      16     H     0.45511  0.45511  0.00000  0.08979

   Total alpha = 21.00000, Total beta = 21.00000, Total charge =  0.00000

*** Psi4 exiting successfully. Buy a developer a beer!
