  ==> Input File <==

--------------------------------------------------------------------------
set {
	reference rhf
	basis 6-31G*
}

set_num_threads( 1 )
memory 2 gb

molecule MOL {
0 1

O	 -2.042549	 -1.228399	 -0.269030
C	 -1.653912	 -0.146171	 0.050137
C	 -0.332303	 0.024011	 0.778412
C	 -2.438579	 1.106236	 -0.272369
C	 0.845713	 -0.001731	 -0.208243
H	 -0.323783	 0.953829	 1.340327
H	 -0.235459	 -0.796807	 1.480410
C	 0.787742	 1.139739	 -1.224470
H	 0.861385	 -0.952675	 -0.737906
H	 1.771478	 0.055180	 0.356435
C	 1.962789	 1.121832	 -2.201277
H	 -0.145791	 1.082250	 -1.780021
H	 0.771579	 2.089493	 -0.695061
H	 1.986067	 0.197093	 -2.770810
H	 2.909499	 1.210741	 -1.676607
H	 1.897130	 1.943394	 -2.907500
H	 -3.277823	 0.863061	 -0.908988
H	 -1.806773	 1.843019	 -0.759671
H	 -2.802853	 1.554979	 0.648059

	symmetry c1
}
set optking {
	frozen_dihedral = ("
		11 8 5 9,
		5 3 2 4
	")
}

ee = energy('scf')
oeprop('DIPOLE', 'QUADRUPOLE', 'MULLIKEN_CHARGES')
f=open( 'psi4out.xyz', 'w' )
f.write( "19  " )
f.write( str(ee) + "\n" )
f.write( MOL.save_string_xyz() )
f.close()
--------------------------------------------------------------------------

    Molecular point group: c1

    Geometry (in Angstrom), charge = 0, multiplicity = 1:

       Center              X                  Y                   Z               Mass
    ------------   -----------------  -----------------  -----------------  -----------------
           O         -1.632954937219    -1.522148137010     0.227668695338    15.994914619560
           C         -1.244317937219    -0.439920137010     0.546835695338    12.000000000000
           C          0.077291062781    -0.269738137010     1.275110695338    12.000000000000
           C         -2.028984937219     0.812486862990     0.224329695338    12.000000000000
           C          1.255307062781    -0.295480137010     0.288455695338    12.000000000000
           H          0.085811062781     0.660079862990     1.837025695338     1.007825032070
           H          0.174135062781    -1.090556137010     1.977108695338     1.007825032070
           C          1.197336062781     0.845989862990    -0.727771304662    12.000000000000
           H          1.270979062781    -1.246424137010    -0.241207304662     1.007825032070
           H          2.181072062781    -0.238569137010     0.853133695338     1.007825032070
           C          2.372383062781     0.828082862990    -1.704578304662    12.000000000000
           H          0.263803062781     0.788500862990    -1.283322304662     1.007825032070
           H          1.181173062781     1.795743862990    -0.198362304662     1.007825032070
           H          2.395661062781    -0.096656137010    -2.274111304662     1.007825032070
           H          3.319093062781     0.916991862990    -1.179908304662     1.007825032070
           H          2.306724062781     1.649644862990    -2.410801304662     1.007825032070
           H         -2.868228937219     0.569311862990    -0.412289304662     1.007825032070
           H         -1.397178937219     1.549269862990    -0.262972304662     1.007825032070
           H         -2.393258937219     1.261229862990     1.144757695338     1.007825032070

  Charge       = 0
  Multiplicity = 1
  Basis Set: 6-31G*
  Basis Set:

    Orbital Energies (a.u.)
    -----------------------

    Doubly Occupied:

       1A    -20.547828     2A    -11.324188     3A    -11.230442
       4A    -11.229298     5A    -11.226736     6A    -11.226459
       7A    -11.216101     8A     -1.393462     9A     -1.094579
      10A     -1.025780    11A     -0.986113    12A     -0.890746
      13A     -0.812119    14A     -0.730980    15A     -0.665586
      16A     -0.637721    17A     -0.626337    18A     -0.613013
      19A     -0.582296    20A     -0.572300    21A     -0.564811
      22A     -0.531900    23A     -0.518879    24A     -0.505351
      25A     -0.479877    26A     -0.475983    27A     -0.460682
      28A     -0.397792

  @DF-RHF Final Energy:  -309.06126224178536

   => Energetics <=

    Nuclear Repulsion Energy =            310.2928268276884864
    One-Electron Energy =               -1033.5733600309297344
    Two-Electron Energy =                 414.2192709614563455
    DFT Exchange-Correlation Energy =       0.0000000000000000
    Empirical Dispersion Energy =           0.0000000000000000
    PCM Polarization Energy =               0.0000000000000000
    EFP Energy =                            0.0000000000000000
    Total Energy =                       -309.0612622417849025

  Mulliken Charges: (a.u.)
   Center  Symbol    Alpha    Beta     Spin     Total
       1     O     4.26243  4.26243  0.00000 -0.52486
       2     C     2.74016  2.74016  0.00000  0.51967
       3     C     3.20063  3.20063  0.00000 -0.40126
       4     C     3.29051  3.29051  0.00000 -0.58103
       5     C     3.15817  3.15817  0.00000 -0.31633
       6     H     0.41668  0.41668  0.00000  0.16664
       7     H     0.39931  0.39931  0.00000  0.20139
       8     C     3.16088  3.16088  0.00000 -0.32177
       9     H     0.40767  0.40767  0.00000  0.18465
      10     H     0.41531  0.41531  0.00000  0.16938
      11     C     3.23897  3.23897  0.00000 -0.47795
      12     H     0.41876  0.41876  0.00000  0.16249
      13     H     0.42271  0.42271  0.00000  0.15459
      14     H     0.41798  0.41798  0.00000  0.16404
      15     H     0.42042  0.42042  0.00000  0.15917
      16     H     0.41768  0.41768  0.00000  0.16463
      17     H     0.39780  0.39780  0.00000  0.20440
      18     H     0.40657  0.40657  0.00000  0.18685
      19     H     0.40735  0.40735  0.00000  0.18529

   Total alpha = 28.00000, Total beta = 28.00000, Total charge = -0.00000
