                              Psi4 1.0.54 Driver

  ==> Input File <==

--------------------------------------------------------------------------
set {
	reference rhf
	basis cc-pvtz
}

set_num_threads( 4 )
memory 2 gb

molecule MOL {
0 1

O	 -0.694481	 1.313155	 -0.204815
C	 -0.862519	 0.151932	 -0.046791
C	 -2.171428	 -0.477048	 0.339095
O	 0.085519	 -0.757083	 -0.192238
H	 -2.467997	 -1.191667	 -0.417688
H	 -2.923379	 0.287970	 0.444097
H	 -2.053854	 -1.015120	 1.270901
C	 -0.278409	 -2.132591	 -0.188213
C	 -0.711337	 -2.601301	 -1.561815
H	 -1.057730	 -2.291919	 0.540546
H	 0.613337	 -2.650574	 0.131528
H	 -0.915941	 -3.665654	 -1.534569
H	 -1.610217	 -2.090599	 -1.878959
H	 0.070100	 -2.423387	 -2.290716

	symmetry c1
}
set optking {
	frozen_dihedral = ("
		8 4 2 1
	")
}

ee,wfn = optimize('scf', return_wfn=True)
oeprop( wfn, 'DIPOLE', 'QUADRUPOLE', 'MULLIKEN_CHARGES')
f=open( 'psi4out.xyz', 'w' )
f.write( "14  " )
f.write( str(ee) + "\n" )
f.write( MOL.save_string_xyz() )
f.close()
--------------------------------------------------------------------------

    Molecular point group: c1
  Charge       = 0
  Multiplicity = 1
  Basis Set: CC-PVTZ
  Basis Set:
  @DF-RHF Final Energy:  -305.96302510661201
    Total Energy =                       -305.9630251066119513
    Molecular point group: c1
  Basis Set: CC-PVTZ
  Basis Set:
  Basis Set: CC-PVTZ
  Basis Set:
  @DF-RHF Final Energy:  -305.94573777777930
    Total Energy =                       -305.9457377777791862
  Basis Set: CC-PVTZ
  Basis Set:
  Basis Set: CC-PVTZ
  Basis Set:
  @DF-RHF Final Energy:  -305.97409391455665
    Total Energy =                       -305.9740939145565335
  Basis Set: CC-PVTZ
  Basis Set:
  Basis Set: CC-PVTZ
  Basis Set:
  @DF-RHF Final Energy:  -305.97555830491785
    Total Energy =                       -305.9755583049177403
  Basis Set: CC-PVTZ
  Basis Set:
  @DF-RHF Final Energy:  -305.96697601515223
    Total Energy =                       -305.9669760151521700
  @DF-RHF Final Energy:  -305.97585105898020
    Total Energy =                       -305.9758510589801404
  @DF-RHF Final Energy:  -305.97359975455493
    Total Energy =                       -305.9735997545549253
  @DF-RHF Final Energy:  -305.97658476682409
    Total Energy =                       -305.9765847668238621
  Basis Set: CC-PVTZ
  Basis Set:
  @DF-RHF Final Energy:  -305.97662942044525
    Total Energy =                       -305.9766294204454198
  Basis Set: CC-PVTZ
  Basis Set:
  Basis Set: CC-PVTZ
  Basis Set:
  @DF-RHF Final Energy:  -305.97663378903547
    Total Energy =                       -305.9766337890355885
  Basis Set: CC-PVTZ
  Basis Set:
  Basis Set: CC-PVTZ
  Basis Set:
  @DF-RHF Final Energy:  -305.97663491628646
    Total Energy =                       -305.9766349162862298
  Basis Set: CC-PVTZ
  Basis Set:
  Charge       = 0
  Multiplicity = 1
  Basis Set: CC-PVTZ
  Basis Set:

    Orbital Energies (a.u.)
    -----------------------

    Doubly Occupied:

       1A    -20.592906     2A    -20.526510     3A    -11.369018
       4A    -11.297989     5A    -11.241220     6A    -11.230474
       7A     -1.465314     8A     -1.366605     9A     -1.050810
      10A     -1.018724    11A     -0.899257    12A     -0.775953
      13A     -0.701399    14A     -0.689869    15A     -0.664985
      16A     -0.618511    17A     -0.596945    18A     -0.584503
      19A     -0.558013    20A     -0.543066    21A     -0.529744
      22A     -0.501816    23A     -0.446706    24A     -0.436549

  @DF-RHF Final Energy:  -305.97663517551820

   => Energetics <=

    Nuclear Repulsion Energy =            248.1910799923586524
    One-Electron Energy =                -908.9216635672354414
    Two-Electron Energy =                 354.7539483993584781
    DFT Exchange-Correlation Energy =       0.0000000000000000
    Empirical Dispersion Energy =           0.0000000000000000
    PCM Polarization Energy =               0.0000000000000000
    EFP Energy =                            0.0000000000000000
    Total Energy =                       -305.9766351755183678
    Molecular point group: c1
  Basis Set: CC-PVTZ
  Basis Set:

  -Total Gradient:
     Atom            X                  Y                   Z
    ------   -----------------  -----------------  -----------------
       1        0.000074433448    -0.000192650622    -0.000379519310
       2       -0.000049362711     0.000235118638     0.000299275328
       3       -0.000005127963    -0.000008298334     0.000039245399
       4       -0.000169702646     0.000039397735     0.000406066691
       5        0.000007257204     0.000001413213     0.000002585939
       6       -0.000002743368     0.000008522800    -0.000003378384
       7        0.000002553919    -0.000001390417    -0.000017792267
       8        0.000151209872    -0.000041751590    -0.000340869164
       9        0.000002634003    -0.000019775506    -0.000012508160
      10        0.000000683611    -0.000020588740     0.000001388543
      11       -0.000011383814    -0.000000019159    -0.000007716807
      12       -0.000002823844    -0.000007042827    -0.000002695709
      13        0.000004506427     0.000002494806     0.000015246086
      14       -0.000002134137     0.000004570003     0.000000671814

  **** Optimization is complete! (in 12 steps) ****
    Final optimized geometry and variables:
    Molecular point group: c1

    Geometry (in Angstrom), charge = 0, multiplicity = 1:

    O            0.722710230511     1.892186071415    -0.252651336109
    C            0.043400576434     0.956855664879    -0.019346014340
    C           -1.448031856192     0.967788491913    -0.257134639576
    O            0.598590324871    -0.133468829286     0.498707693094
    H           -1.754330976982     0.170938003621    -0.921527220276
    H           -1.702705888616     1.918138183989    -0.695036668810
    H           -1.981686898540     0.849853740798     0.677849081128
    C           -0.053338597325    -1.378846319602     0.636397945805
    C            0.159342970396    -2.253675019522    -0.583208794755
    H           -1.104938024211    -1.247483945168     0.846486048262
    H            0.395834326485    -1.835445951375     1.505761252320
    H           -0.287306916535    -3.228036942864    -0.420848496015
    H           -0.289243940146    -1.819246234893    -1.468668349386
    H            1.216907762407    -2.385434733531    -0.770414920123

  Mulliken Charges: (a.u.)
   Center  Symbol    Alpha    Beta     Spin     Total
       1     O     4.18257  4.18257  0.00000 -0.36513
       2     C     2.81531  2.81531  0.00000  0.36939
       3     C     3.16633  3.16633  0.00000 -0.33265
       4     O     4.13440  4.13440  0.00000 -0.26880
       5     H     0.44846  0.44846  0.00000  0.10309
       6     H     0.42625  0.42625  0.00000  0.14750
       7     H     0.44553  0.44553  0.00000  0.10894
       8     C     2.99851  2.99851  0.00000  0.00298
       9     C     3.13875  3.13875  0.00000 -0.27750
      10     H     0.45892  0.45892  0.00000  0.08217
      11     H     0.43703  0.43703  0.00000  0.12594
      12     H     0.45112  0.45112  0.00000  0.09776
      13     H     0.45425  0.45425  0.00000  0.09149
      14     H     0.44259  0.44259  0.00000  0.11483

   Total alpha = 24.00000, Total beta = 24.00000, Total charge = -0.00000

*** Psi4 exiting successfully. Buy a developer a beer!
