  ==> Input File <==

--------------------------------------------------------------------------
set {
	reference rhf
	basis 6-31G*
}

set_num_threads( 1 )
memory 2 gb

molecule MOL {
0 1

H	 0.395280	 4.320548	 -1.899909
C	 1.320669	 4.514024	 -1.343272
C	 1.252939	 4.208737	 0.131457
O	 2.279238	 4.934109	 -1.905787
C	 0.740687	 2.789956	 0.415911
H	 2.235145	 4.371247	 0.559909
H	 0.570623	 4.931797	 0.576749
C	 1.698719	 1.690411	 -0.049357
H	 0.571896	 2.693038	 1.484274
H	 -0.230703	 2.654948	 -0.057304
C	 1.180775	 0.282413	 0.250794
H	 2.664172	 1.832527	 0.431841
H	 1.878691	 1.785804	 -1.118492
C	 2.148627	 -0.814315	 -0.201312
H	 0.993066	 0.196420	 1.318081
H	 0.220044	 0.139034	 -0.241976
C	 3.580890	 -0.659131	 0.322722
H	 2.166869	 -0.852443	 -1.289387
H	 1.762857	 -1.776509	 0.128956
C	 4.324889	 0.564933	 -0.213704
H	 4.142010	 -1.551473	 0.056605
H	 3.564836	 -0.624694	 1.410140
H	 4.342616	 0.565491	 -1.300421
H	 3.866655	 1.493402	 0.110242
H	 5.353900	 0.572371	 0.132816

	symmetry c1
}
set optking {
	frozen_dihedral = ("
		6 3 5 8,
		6 3 2 4,
		3 5 8 12,
		12 8 11 14,
		20 17 14 18
	")
}

ee = energy('scf')
oeprop('DIPOLE', 'QUADRUPOLE', 'MULLIKEN_CHARGES')
f=open( 'psi4out.xyz', 'w' )
f.write( "25  " )
f.write( str(ee) + "\n" )
f.write( MOL.save_string_xyz() )
f.close()
--------------------------------------------------------------------------

    Molecular point group: c1

    Geometry (in Angstrom), charge = 0, multiplicity = 1:

       Center              X                  Y                   Z               Mass
    ------------   -----------------  -----------------  -----------------  -----------------
           H         -1.682476966983     2.363330921835    -1.600037709857     1.007825032070
           C         -0.757087966983     2.556806921835    -1.043400709857    12.000000000000
           C         -0.824817966983     2.251519921835     0.431328290143    12.000000000000
           O          0.201481033017     2.976891921835    -1.605915709857    15.994914619560
           C         -1.337069966983     0.832738921835     0.715782290143    12.000000000000
           H          0.157388033017     2.414029921835     0.859780290143     1.007825032070
           H         -1.507133966983     2.974579921835     0.876620290143     1.007825032070
           C         -0.379037966983    -0.266806078165     0.250514290143    12.000000000000
           H         -1.505860966983     0.735820921835     1.784145290143     1.007825032070
           H         -2.308459966983     0.697730921835     0.242567290143     1.007825032070
           C         -0.896981966983    -1.674804078165     0.550665290143    12.000000000000
           H          0.586415033017    -0.124690078165     0.731712290143     1.007825032070
           H         -0.199065966983    -0.171413078165    -0.818620709857     1.007825032070
           C          0.070870033017    -2.771532078165     0.098559290143    12.000000000000
           H         -1.084690966983    -1.760797078165     1.617952290143     1.007825032070
           H         -1.857712966983    -1.818183078165     0.057895290143     1.007825032070
           C          1.503133033017    -2.616348078165     0.622593290143    12.000000000000
           H          0.089112033017    -2.809660078165    -0.989515709857     1.007825032070
           H         -0.314899966983    -3.733726078165     0.428827290143     1.007825032070
           C          2.247132033017    -1.392284078165     0.086167290143    12.000000000000
           H          2.064253033017    -3.508690078165     0.356476290143     1.007825032070
           H          1.487079033017    -2.581911078165     1.710011290143     1.007825032070
           H          2.264859033017    -1.391726078165    -1.000549709857     1.007825032070
           H          1.788898033017    -0.463815078165     0.410113290143     1.007825032070
           H          3.276143033017    -1.384846078165     0.432687290143     1.007825032070

  Charge       = 0
  Multiplicity = 1
  Basis Set: 6-31G*
  Basis Set:

    Orbital Energies (a.u.)
    -----------------------

    Doubly Occupied:

       1A    -20.561857     2A    -11.326005     3A    -11.234487
       4A    -11.232947     5A    -11.220386     6A    -11.217847
       7A    -11.217771     8A    -11.217133     9A    -11.202438
      10A     -1.401913    11A     -1.107737    12A     -1.068804
      13A     -1.006063    14A     -0.953421    15A     -0.877955
      16A     -0.817343    17A     -0.788975    18A     -0.780851
      19A     -0.673472    20A     -0.663827    21A     -0.634416
      22A     -0.622783    23A     -0.605065    24A     -0.595019
      25A     -0.569129    26A     -0.553677    27A     -0.543062
      28A     -0.521716    29A     -0.519109    30A     -0.498726
      31A     -0.488182    32A     -0.472996    33A     -0.463653
      34A     -0.446545    35A     -0.426559    36A     -0.409080

  @DF-RHF Final Energy:  -387.09001099567433

   => Energetics <=

    Nuclear Repulsion Energy =            459.0989508475863659
    One-Electron Energy =               -1434.4955786196385361
    Two-Electron Energy =                 588.3066167763781777
    DFT Exchange-Correlation Energy =       0.0000000000000000
    Empirical Dispersion Energy =           0.0000000000000000
    PCM Polarization Energy =               0.0000000000000000
    EFP Energy =                            0.0000000000000000
    Total Energy =                       -387.0900109956739925

  Mulliken Charges: (a.u.)
   Center  Symbol    Alpha    Beta     Spin     Total
       1     H     0.43244  0.43244  0.00000  0.13511
       2     C     2.83071  2.83071  0.00000  0.33858
       3     C     3.20822  3.20822  0.00000 -0.41644
       4     O     4.23815  4.23815  0.00000 -0.47629
       5     C     3.16298  3.16298  0.00000 -0.32596
       6     H     0.40101  0.40101  0.00000  0.19798
       7     H     0.40663  0.40663  0.00000  0.18675
       8     C     3.15863  3.15863  0.00000 -0.31725
       9     H     0.41388  0.41388  0.00000  0.17223
      10     H     0.42102  0.42102  0.00000  0.15796
      11     C     3.15065  3.15065  0.00000 -0.30130
      12     H     0.41961  0.41961  0.00000  0.16078
      13     H     0.41828  0.41828  0.00000  0.16345
      14     C     3.15475  3.15475  0.00000 -0.30950
      15     H     0.42305  0.42305  0.00000  0.15390
      16     H     0.42122  0.42122  0.00000  0.15755
      17     C     3.15683  3.15683  0.00000 -0.31366
      18     H     0.42267  0.42267  0.00000  0.15466
      19     H     0.41966  0.41966  0.00000  0.16068
      20     C     3.24119  3.24119  0.00000 -0.48238
      21     H     0.41795  0.41795  0.00000  0.16410
      22     H     0.42378  0.42378  0.00000  0.15243
      23     H     0.41962  0.41962  0.00000  0.16076
      24     H     0.41748  0.41748  0.00000  0.16504
      25     H     0.41959  0.41959  0.00000  0.16083

   Total alpha = 36.00000, Total beta = 36.00000, Total charge = -0.00000
