  ==> Input File <==

--------------------------------------------------------------------------
set {
	reference rhf
	basis 6-31G*
}

set_num_threads( 4 )
memory 2 gb

molecule MOL {
0 1

O	 3.225979	 0.970355	 -0.599647
C	 2.701189	 0.057885	 -0.047330
C	 1.245376	 -0.013843	 0.345420
O	 3.347903	 -1.046386	 0.304773
C	 0.455112	 1.231400	 -0.050772
H	 0.838542	 -0.913825	 -0.103701
H	 1.208210	 -0.175333	 1.419774
C	 -0.998893	 1.219485	 0.433193
H	 0.482531	 1.345121	 -1.130325
H	 0.957290	 2.103070	 0.354729
C	 -1.301587	 2.175131	 1.590874
H	 -1.241297	 0.206643	 0.746429
H	 -1.660886	 1.443117	 -0.402131
C	 -2.735417	 2.046529	 2.109133
H	 -0.605986	 1.981222	 2.405955
H	 -1.130961	 3.203906	 1.281873
C	 -3.050811	 3.000451	 3.262688
H	 -2.910301	 1.021994	 2.433137
H	 -3.431453	 2.229771	 1.292031
C	 -4.483417	 2.863004	 3.776935
H	 -2.355551	 2.819378	 4.079675
H	 -2.880774	 4.025317	 2.939396
H	 -4.676387	 3.551696	 4.593680
H	 -4.674674	 1.857241	 4.140330
H	 -5.203848	 3.071886	 2.991045
C	 4.728119	 -1.109107	 -0.004993
H	 4.882018	 -1.033965	 -1.071845
H	 5.068212	 -2.067527	 0.355250
H	 5.265056	 -0.311663	 0.488280

	symmetry c1
}
set optking {
	frozen_dihedral = ("
		11 8 5 9
	")
}

ee = optimize('scf')
oeprop('DIPOLE', 'QUADRUPOLE', 'MULLIKEN_CHARGES')
f=open( 'psi4out.xyz', 'w' )
f.write( "29  " )
f.write( str(ee) + "\n" )
f.write( MOL.save_string_xyz() )
f.close()
--------------------------------------------------------------------------

    Molecular point group: c1
  Charge       = 0
  Multiplicity = 1
  Basis Set: 6-31G*
  Basis Set:
  @DF-RHF Final Energy:  -501.04008357725570
    Total Energy =                       -501.0400835772561550
    Molecular point group: c1
  Basis Set: 6-31G*
  Basis Set:
  Basis Set: 6-31G*
  Basis Set:
  @DF-RHF Final Energy:  -501.04058371240569
    Total Energy =                       -501.0405837124053505
  Basis Set: 6-31G*
  Basis Set:
  Basis Set: 6-31G*
  Basis Set:
  @DF-RHF Final Energy:  -501.04058830224847
    Total Energy =                       -501.0405883022469880
  Basis Set: 6-31G*
  Basis Set:
  Basis Set: 6-31G*
  Basis Set:
  @DF-RHF Final Energy:  -501.04066212064618
    Total Energy =                       -501.0406621206460613
  Basis Set: 6-31G*
  Basis Set:
  Basis Set: 6-31G*
  Basis Set:
  @DF-RHF Final Energy:  -501.04068153950766
    Total Energy =                       -501.0406815395083413
  Basis Set: 6-31G*
  Basis Set:
  Basis Set: 6-31G*
  Basis Set:
  @DF-RHF Final Energy:  -501.04067982662207
    Total Energy =                       -501.0406798266226360
  Basis Set: 6-31G*
  Basis Set:
  Basis Set: 6-31G*
  Basis Set:
  @DF-RHF Final Energy:  -501.04068206580655
    Total Energy =                       -501.0406820658065499
  Basis Set: 6-31G*
  Basis Set:
  Charge       = 0
  Multiplicity = 1
  Basis Set: 6-31G*
  Basis Set:

    Orbital Energies (a.u.)
    -----------------------

    Doubly Occupied:

       1A    -20.603497     2A    -20.545383     3A    -11.371949
       4A    -11.280753     5A    -11.235712     6A    -11.218504
       7A    -11.217121     8A    -11.215290     9A    -11.215121
      10A    -11.213526    11A    -11.208531    12A     -1.469167
      13A     -1.362625    14A     -1.096329    15A     -1.066697
      16A     -1.019659    17A     -0.977128    18A     -0.926879
      19A     -0.857541    20A     -0.801230    21A     -0.790436
      22A     -0.766878    23A     -0.700214    24A     -0.682211
      25A     -0.672411    26A     -0.649809    27A     -0.627682
      28A     -0.602179    29A     -0.595973    30A     -0.581880
      31A     -0.565374    32A     -0.547271    33A     -0.532499
      34A     -0.529601    35A     -0.514808    36A     -0.504624
      37A     -0.501293    38A     -0.477899    39A     -0.469245
      40A     -0.462620    41A     -0.459524    42A     -0.456122
      43A     -0.441777    44A     -0.431981

  @DF-RHF Final Energy:  -501.04068213803362

   => Energetics <=

    Nuclear Repulsion Energy =            606.0739266176833553
    One-Electron Energy =               -1883.2953150432931579
    Two-Electron Energy =                 776.1807062875764132
    DFT Exchange-Correlation Energy =       0.0000000000000000
    Empirical Dispersion Energy =           0.0000000000000000
    PCM Polarization Energy =               0.0000000000000000
    EFP Energy =                            0.0000000000000000
    Total Energy =                       -501.0406821380333895
    Molecular point group: c1
  Basis Set: 6-31G*
  Basis Set:

  -Total Gradient:
     Atom            X                  Y                   Z
    ------   -----------------  -----------------  -----------------
       1       -0.000000096950    -0.000003944646    -0.000004623716
       2        0.000003585984     0.000005116622     0.000016875595
       3       -0.000007313081    -0.000008866263    -0.000007367745
       4        0.000000707132    -0.000002627615    -0.000010305414
       5       -0.000165730812    -0.002470844678    -0.000769816012
       6        0.000000726007    -0.000002278992     0.000006546798
       7        0.000001891793     0.000003960383     0.000002165032
       8        0.000585943861    -0.001158281665     0.001613564773
       9       -0.000012383714     0.002387405060     0.000272562113
      10       -0.000008375480    -0.000001138777     0.000000178248
      11       -0.000412985180     0.001253366745    -0.001115420303
      12        0.000012539757    -0.000005420190    -0.000005356706
      13       -0.000000510060    -0.000004538434    -0.000001872359
      14        0.000002033581     0.000006754412    -0.000005274466
      15       -0.000004585176     0.000002731036     0.000003941897
      16        0.000004587106     0.000000625861     0.000001037986
      17       -0.000000213982    -0.000001880279     0.000003166380
      18        0.000001336128     0.000001048680    -0.000001480665
      19       -0.000001189394     0.000000796991    -0.000000763314
      20       -0.000000104627     0.000000208916     0.000001223058
      21        0.000000874867     0.000000487214     0.000000439660
      22       -0.000000618897    -0.000001980001    -0.000000435110
      23       -0.000000544723     0.000000141353    -0.000000018568
      24       -0.000000160422     0.000000060470     0.000000606923
      25        0.000000154358    -0.000000375910    -0.000000312570
      26        0.000000483186    -0.000000441973     0.000001269097
      27        0.000000205973     0.000000179776    -0.000000658700
      28        0.000000167052     0.000000126377    -0.000000005981
      29       -0.000000424297    -0.000000390471     0.000000134068

  **** Optimization is complete! (in 8 steps) ****
    Final optimized geometry and variables:
    Molecular point group: c1

    Geometry (in Angstrom), charge = 0, multiplicity = 1:

    O            2.894391190847    -0.042023890881    -1.630773275384
    C            2.380943442440    -0.948787898229    -1.058594068194
    C            0.931502559142    -1.017596237988    -0.643526034758
    O            3.035848750993    -2.046625166085    -0.702026213712
    C            0.124946126448     0.213867803496    -1.045526857181
    H            0.511564804432    -1.921419911727    -1.075817129859
    H            0.908888712749    -1.166828171520     0.432906941297
    C           -1.339785177560     0.155172699483    -0.561611346106
    H            0.167221726827     0.339642351928    -2.121387880370
    H            0.610532743792     1.095020867105    -0.639295768484
    C           -1.633188566147     1.102108823419     0.605188448977
    H           -1.598942777970    -0.861524227556    -0.273602979528
    H           -2.004126486612     0.406739564871    -1.384038378250
    C           -3.076397856384     1.019009634586     1.103521700974
    H           -0.954740370714     0.883954296125     1.429212488415
    H           -1.415469286153     2.122348246640     0.295673925492
    C           -3.374380644725     1.975404660157     2.259781799753
    H           -3.291424592819    -0.001193666964     1.417757617861
    H           -3.754613774181     1.231799887357     0.278595350316
    C           -4.818467955902     1.886330344290     2.752077837314
    H           -2.698294798728     1.763636865058     3.085472081183
    H           -3.162482215485     2.995469681367     1.946614859495
    H           -4.998539457938     2.575813740037     3.571112091875
    H           -5.051458718016     0.885596751498     3.105019292636
    H           -5.519096579158     2.126771975016     1.957374748972
    C            4.411228953802    -2.110351299943    -1.032543981560
    H            4.548188853571    -2.049063289480    -2.102592432908
    H            4.759259101915    -3.063118265117    -0.665005435354
    H            4.953811149210    -1.305193301609    -0.558355721485

  Mulliken Charges: (a.u.)
   Center  Symbol    Alpha    Beta     Spin     Total
       1     O     4.28596  4.28596  0.00000 -0.57192
       2     C     2.60573  2.60573  0.00000  0.78854
       3     C     3.20911  3.20911  0.00000 -0.41822
       4     O     4.30735  4.30735  0.00000 -0.61470
       5     C     3.15666  3.15666  0.00000 -0.31332
       6     H     0.40020  0.40020  0.00000  0.19959
       7     H     0.40068  0.40068  0.00000  0.19864
       8     C     3.15838  3.15838  0.00000 -0.31675
       9     H     0.40949  0.40949  0.00000  0.18103
      10     H     0.40869  0.40869  0.00000  0.18262
      11     C     3.15347  3.15347  0.00000 -0.30694
      12     H     0.42227  0.42227  0.00000  0.15546
      13     H     0.41832  0.41832  0.00000  0.16336
      14     C     3.15142  3.15142  0.00000 -0.30284
      15     H     0.42487  0.42487  0.00000  0.15027
      16     H     0.42080  0.42080  0.00000  0.15840
      17     C     3.15141  3.15141  0.00000 -0.30282
      18     H     0.42435  0.42435  0.00000  0.15130
      19     H     0.42369  0.42369  0.00000  0.15263
      20     C     3.23928  3.23928  0.00000 -0.47857
      21     H     0.42323  0.42323  0.00000  0.15354
      22     H     0.42257  0.42257  0.00000  0.15485
      23     H     0.41924  0.41924  0.00000  0.16151
      24     H     0.42202  0.42202  0.00000  0.15596
      25     H     0.42171  0.42171  0.00000  0.15658
      26     C     3.09245  3.09245  0.00000 -0.18489
      27     H     0.40906  0.40906  0.00000  0.18188
      28     H     0.40848  0.40848  0.00000  0.18304
      29     H     0.40911  0.40911  0.00000  0.18178

   Total alpha = 44.00000, Total beta = 44.00000, Total charge = -0.00000
