                              Psi4 1.0.54 Driver

  ==> Input File <==

--------------------------------------------------------------------------
set {
	reference rhf
	basis cc-pvtz
}

set_num_threads( 4 )
memory 2 gb

molecule MOL {
0 1

O	 -1.510770	 1.240811	 -0.054933
C	 -1.081510	 0.147522	 0.122720
C	 0.327029	 -0.064006	 0.641890
C	 -1.903028	 -1.084121	 -0.174656
C	 1.349460	 -0.017068	 -0.500215
H	 0.399029	 -1.014606	 1.159950
H	 0.538021	 0.726928	 1.350471
C	 0.726999	 0.420858	 -1.821013
H	 2.157742	 0.660700	 -0.241086
H	 1.791337	 -1.000466	 -0.609764
H	 1.467145	 0.434561	 -2.612231
H	 0.303758	 1.416798	 -1.745371
H	 -0.066612	 -0.254739	 -2.120380
H	 -1.341891	 -1.779207	 -0.789259
H	 -2.820449	 -0.808163	 -0.671328
H	 -2.133314	 -1.593056	 0.755831

	symmetry c1
}
set optking {
	frozen_dihedral = ("
		9 5 3 2
	")
}

ee,wfn = optimize('scf', return_wfn=True)
oeprop( wfn, 'DIPOLE', 'QUADRUPOLE', 'MULLIKEN_CHARGES')
f=open( 'psi4out.xyz', 'w' )
f.write( "16  " )
f.write( str(ee) + "\n" )
f.write( MOL.save_string_xyz() )
f.close()
--------------------------------------------------------------------------

    Molecular point group: c1
  Charge       = 0
  Multiplicity = 1
  Basis Set: CC-PVTZ
  Basis Set:
  @DF-RHF Final Energy:  -270.11729242702893
    Total Energy =                       -270.1172924270288149
    Molecular point group: c1
  Basis Set: CC-PVTZ
  Basis Set:
  Basis Set: CC-PVTZ
  Basis Set:
  @DF-RHF Final Energy:  -270.11967545025072
    Total Energy =                       -270.1196754502508952
  Basis Set: CC-PVTZ
  Basis Set:
  Basis Set: CC-PVTZ
  Basis Set:
  @DF-RHF Final Energy:  -270.11900052672877
    Total Energy =                       -270.1190005267287688
  Basis Set: CC-PVTZ
  Basis Set:
  Basis Set: CC-PVTZ
  Basis Set:
  @DF-RHF Final Energy:  -270.12076946157561
    Total Energy =                       -270.1207694615753780
  Basis Set: CC-PVTZ
  Basis Set:
  @DF-RHF Final Energy:  -270.12087046682188
    Total Energy =                       -270.1208704668219980
  @DF-RHF Final Energy:  -270.12090867802465
    Total Energy =                       -270.1209086780247617
  @DF-RHF Final Energy:  -270.12092059096665
    Total Energy =                       -270.1209205909667617
  @DF-RHF Final Energy:  -270.12092404480256
    Total Energy =                       -270.1209240448023365
  Basis Set: CC-PVTZ
  Basis Set:
  @DF-RHF Final Energy:  -270.12093008215891
    Total Energy =                       -270.1209300821586794
  Basis Set: CC-PVTZ
  Basis Set:
  Basis Set: CC-PVTZ
  Basis Set:
  @DF-RHF Final Energy:  -270.12093351709757
    Total Energy =                       -270.1209335170975692
  Basis Set: CC-PVTZ
  Basis Set:
  Basis Set: CC-PVTZ
  Basis Set:
  @DF-RHF Final Energy:  -270.12093472033075
    Total Energy =                       -270.1209347203305242
  Basis Set: CC-PVTZ
  Basis Set:
  Charge       = 0
  Multiplicity = 1
  Basis Set: CC-PVTZ
  Basis Set:

    Orbital Energies (a.u.)
    -----------------------

    Doubly Occupied:

       1A    -20.537149     2A    -11.319967     3A    -11.232549
       4A    -11.228343     5A    -11.226893     6A    -11.213796
       7A     -1.397680     8A     -1.078080     9A     -1.011042
      10A     -0.951974    11A     -0.834816    12A     -0.726198
      13A     -0.656551    14A     -0.645525    15A     -0.623793
      16A     -0.611916    17A     -0.576479    18A     -0.559265
      19A     -0.541417    20A     -0.507919    21A     -0.505931
      22A     -0.476223    23A     -0.475049    24A     -0.399937

  @DF-RHF Final Energy:  -270.12093485337971

   => Energetics <=

    Nuclear Repulsion Energy =            243.4668316026007915
    One-Electron Energy =                -848.4985493395656704
    Two-Electron Energy =                 334.9107828835853979
    DFT Exchange-Correlation Energy =       0.0000000000000000
    Empirical Dispersion Energy =           0.0000000000000000
    PCM Polarization Energy =               0.0000000000000000
    EFP Energy =                            0.0000000000000000
    Total Energy =                       -270.1209348533794810
    Molecular point group: c1
  Basis Set: CC-PVTZ
  Basis Set:

  -Total Gradient:
     Atom            X                  Y                   Z
    ------   -----------------  -----------------  -----------------
       1       -0.000000147905    -0.000004668908     0.000005451493
       2        0.000337222177     0.002475880464     0.000514432976
       3       -0.000871202406    -0.002904294999    -0.000944658025
       4       -0.000004471582     0.000012538453     0.000039959853
       5        0.002346206697    -0.002291649075     0.001347908235
       6        0.000001854215     0.000001789507    -0.000000899807
       7        0.000000650413    -0.000001890854    -0.000002618865
       8       -0.000008302279    -0.000012243937     0.000001149108
       9       -0.001822007363     0.002721921685    -0.000932258085
      10       -0.000001157589     0.000001276408     0.000000395256
      11        0.000001844207     0.000001352607     0.000000627988
      12       -0.000000951052    -0.000000838126     0.000001093928
      13        0.000006760784     0.000006718460    -0.000004830327
      14        0.000005575986     0.000002440617    -0.000007100938
      15        0.000002987188    -0.000000559088    -0.000006059529
      16        0.000005138509    -0.000007773214    -0.000012593260

  **** Optimization is complete! (in 12 steps) ****
    Final optimized geometry and variables:
    Molecular point group: c1

    Geometry (in Angstrom), charge = 0, multiplicity = 1:

    O           -1.152742452151     1.072912456923     0.706739832185
    C           -0.689043705894    -0.012560084712     0.575148669834
    C            0.790734442798    -0.268120777652     0.791428786812
    C           -1.551093917815    -1.198797612150     0.211333348982
    C            1.672786457010    -0.113998938655    -0.482244294292
    H            0.926737170910    -1.258420021634     1.209347327107
    H            1.108632326523     0.448746808133     1.535444771401
    C            0.991023757716     0.492154097472    -1.709691569549
    H            2.505133680413     0.529908833388    -0.228893602116
    H            2.088375776123    -1.077750767249    -0.749205690937
    H            1.708726451337     0.589366618832    -2.515625393759
    H            0.590937336797     1.474617983036    -1.495851251131
    H            0.177054975379    -0.124191995968    -2.074410444230
    H           -1.085051581376    -1.797485311591    -0.562476446542
    H           -2.526543793364    -0.866346682410    -0.109544536583
    H           -1.658879606442    -1.833076703931     1.085832437199

  Mulliken Charges: (a.u.)
   Center  Symbol    Alpha    Beta     Spin     Total
       1     O     4.17994  4.17994  0.00000 -0.35989
       2     C     2.85338  2.85338  0.00000  0.29325
       3     C     3.10590  3.10590  0.00000 -0.21180
       4     C     3.15514  3.15514  0.00000 -0.31029
       5     C     3.09395  3.09395  0.00000 -0.18789
       6     H     0.44631  0.44631  0.00000  0.10738
       7     H     0.43833  0.43833  0.00000  0.12334
       8     C     3.15494  3.15494  0.00000 -0.30989
       9     H     0.44575  0.44575  0.00000  0.10849
      10     H     0.44834  0.44834  0.00000  0.10332
      11     H     0.44651  0.44651  0.00000  0.10698
      12     H     0.44079  0.44079  0.00000  0.11843
      13     H     0.45615  0.45615  0.00000  0.08770
      14     H     0.45176  0.45176  0.00000  0.09647
      15     H     0.43631  0.43631  0.00000  0.12738
      16     H     0.44650  0.44650  0.00000  0.10701

   Total alpha = 24.00000, Total beta = 24.00000, Total charge = -0.00000

*** Psi4 exiting successfully. Buy a developer a beer!
