  ==> Input File <==

--------------------------------------------------------------------------
set {
	reference rhf
	basis 6-31G*
}

set_num_threads( 1 )
memory 2 gb

molecule MOL {
0 1

H	 2.591676	 2.013956	 0.335017
O	 3.341076	 1.666752	 -0.126416
C	 3.569581	 0.339145	 0.272707
C	 2.539767	 -0.640285	 -0.279495
H	 4.553106	 0.084646	 -0.100901
H	 3.608576	 0.269204	 1.359154
C	 1.115811	 -0.397273	 0.226630
H	 2.556196	 -0.582511	 -1.364741
H	 2.852081	 -1.648031	 -0.010655
C	 0.076886	 -1.262061	 -0.492809
H	 0.865610	 0.652201	 0.098688
H	 1.071886	 -0.602096	 1.296424
C	 -1.355588	 -1.120140	 0.034655
H	 0.093285	 -1.030858	 -1.556352
H	 0.374218	 -2.304950	 -0.405187
C	 -1.994351	 0.252148	 -0.196186
H	 -1.973365	 -1.875430	 -0.446701
H	 -1.371274	 -1.350961	 1.098757
C	 -3.456417	 0.311990	 0.251270
H	 -1.932903	 0.503354	 -1.254123
H	 -1.433842	 1.019552	 0.332231
C	 -4.094542	 1.682593	 0.027865
H	 -4.027818	 -0.443288	 -0.284028
H	 -3.520888	 0.051797	 1.305797
H	 -4.075037	 1.957545	 -1.022965
H	 -5.130367	 1.692359	 0.352838
H	 -3.567654	 2.455592	 0.580337

	symmetry c1
}
set optking {
	frozen_dihedral = ("
		14 10 7 4,
		14 10 13 16,
		8 4 3 2,
		10 13 16 20,
		20 16 19 22,
		4 3 2 1
	")
}

ee = energy('scf')
oeprop('DIPOLE', 'QUADRUPOLE', 'MULLIKEN_CHARGES')
f=open( 'psi4out.xyz', 'w' )
f.write( "27  " )
f.write( str(ee) + "\n" )
f.write( MOL.save_string_xyz() )
f.close()
--------------------------------------------------------------------------

    Molecular point group: c1

    Geometry (in Angstrom), charge = 0, multiplicity = 1:

       Center              X                  Y                   Z               Mass
    ------------   -----------------  -----------------  -----------------  -----------------
           H          2.578449623598     1.879313638487     0.362452388491     1.007825032070
           O          3.327849623598     1.532109638487    -0.098980611509    15.994914619560
           C          3.556354623598     0.204502638487     0.300142388491    12.000000000000
           C          2.526540623598    -0.774927361513    -0.252059611509    12.000000000000
           H          4.539879623598    -0.049996361513    -0.073465611509     1.007825032070
           H          3.595349623598     0.134561638487     1.386589388491     1.007825032070
           C          1.102584623598    -0.531915361513     0.254065388491    12.000000000000
           H          2.542969623598    -0.717153361513    -1.337305611509     1.007825032070
           H          2.838854623598    -1.782673361513     0.016780388491     1.007825032070
           C          0.063659623598    -1.396703361513    -0.465373611509    12.000000000000
           H          0.852383623598     0.517558638487     0.126123388491     1.007825032070
           H          1.058659623598    -0.736738361513     1.323859388491     1.007825032070
           C         -1.368814376402    -1.254782361513     0.062090388491    12.000000000000
           H          0.080058623598    -1.165500361513    -1.528916611509     1.007825032070
           H          0.360991623598    -2.439592361513    -0.377751611509     1.007825032070
           C         -2.007577376402     0.117505638487    -0.168750611509    12.000000000000
           H         -1.986591376402    -2.010072361513    -0.419265611509     1.007825032070
           H         -1.384500376402    -1.485603361513     1.126192388491     1.007825032070
           C         -3.469643376402     0.177347638487     0.278705388491    12.000000000000
           H         -1.946129376402     0.368711638487    -1.226687611509     1.007825032070
           H         -1.447068376402     0.884909638487     0.359666388491     1.007825032070
           C         -4.107768376402     1.547950638487     0.055300388491    12.000000000000
           H         -4.041044376402    -0.577930361513    -0.256592611509     1.007825032070
           H         -3.534114376402    -0.082845361513     1.333232388491     1.007825032070
           H         -4.088263376402     1.822902638487    -0.995529611509     1.007825032070
           H         -5.143593376402     1.557716638487     0.380273388491     1.007825032070
           H         -3.580880376402     2.320949638487     0.607772388491     1.007825032070

  Charge       = 0
  Multiplicity = 1
  Basis Set: 6-31G*
  Basis Set:

    Orbital Energies (a.u.)
    -----------------------

    Doubly Occupied:

       1A    -20.552375     2A    -11.267145     3A    -11.220017
       4A    -11.217191     5A    -11.216161     6A    -11.215632
       7A    -11.215287     8A    -11.214403     9A    -11.209474
      10A     -1.359194    11A     -1.095228    12A     -1.061597
      13A     -1.011596    14A     -0.948631    15A     -0.888146
      16A     -0.819925    17A     -0.801715    18A     -0.778239
      19A     -0.693010    20A     -0.653183    21A     -0.639887
      22A     -0.613561    23A     -0.598901    24A     -0.582495
      25A     -0.581099    26A     -0.552845    27A     -0.541007
      28A     -0.532695    29A     -0.505728    30A     -0.492643
      31A     -0.485933    32A     -0.472856    33A     -0.469215
      34A     -0.461283    35A     -0.453135    36A     -0.441579
      37A     -0.423135

  @DF-RHF Final Energy:  -388.28134671983025

   => Energetics <=

    Nuclear Repulsion Energy =            460.3688590037899075
    One-Electron Energy =               -1438.7281966674418072
    Two-Electron Energy =                 590.0779909438227833
    DFT Exchange-Correlation Energy =       0.0000000000000000
    Empirical Dispersion Energy =           0.0000000000000000
    PCM Polarization Energy =               0.0000000000000000
    EFP Energy =                            0.0000000000000000
    Total Energy =                       -388.2813467198291164

  Mulliken Charges: (a.u.)
   Center  Symbol    Alpha    Beta     Spin     Total
       1     H     0.27959  0.27959  0.00000  0.44082
       2     O     4.37084  4.37084  0.00000 -0.74168
       3     C     2.99761  2.99761  0.00000  0.00477
       4     C     3.16128  3.16128  0.00000 -0.32256
       5     H     0.41426  0.41426  0.00000  0.17148
       6     H     0.43217  0.43217  0.00000  0.13566
       7     C     3.16102  3.16102  0.00000 -0.32203
       8     H     0.41514  0.41514  0.00000  0.16972
       9     H     0.42392  0.42392  0.00000  0.15215
      10     C     3.15238  3.15238  0.00000 -0.30475
      11     H     0.42677  0.42677  0.00000  0.14646
      12     H     0.42399  0.42399  0.00000  0.15201
      13     C     3.15363  3.15363  0.00000 -0.30726
      14     H     0.42128  0.42128  0.00000  0.15745
      15     H     0.42136  0.42136  0.00000  0.15729
      16     C     3.15228  3.15228  0.00000 -0.30455
      17     H     0.42119  0.42119  0.00000  0.15762
      18     H     0.42424  0.42424  0.00000  0.15151
      19     C     3.15122  3.15122  0.00000 -0.30244
      20     H     0.42347  0.42347  0.00000  0.15305
      21     H     0.42418  0.42418  0.00000  0.15163
      22     C     3.23917  3.23917  0.00000 -0.47835
      23     H     0.42278  0.42278  0.00000  0.15444
      24     H     0.42327  0.42327  0.00000  0.15346
      25     H     0.42140  0.42140  0.00000  0.15721
      26     H     0.41918  0.41918  0.00000  0.16165
      27     H     0.42238  0.42238  0.00000  0.15524

   Total alpha = 37.00000, Total beta = 37.00000, Total charge = -0.00000
