  ==> Input File <==

--------------------------------------------------------------------------
set {
	reference rhf
	basis 6-31G*
}

set_num_threads( 1 )
memory 2 gb

molecule MOL {
0 1

H	 2.591676	 2.013956	 0.335017
O	 3.341076	 1.666752	 -0.126416
C	 3.569581	 0.339145	 0.272707
C	 2.539767	 -0.640285	 -0.279495
H	 4.553106	 0.084646	 -0.100901
H	 3.608576	 0.269204	 1.359154
C	 1.115811	 -0.397273	 0.226630
H	 2.556196	 -0.582511	 -1.364741
H	 2.852081	 -1.648031	 -0.010655
C	 0.819708	 -1.134361	 1.535768
H	 0.407634	 -0.711668	 -0.534951
H	 0.962062	 0.671567	 0.375900
C	 -0.565345	 -0.857217	 2.131720
H	 0.935836	 -2.205082	 1.377914
H	 1.572540	 -0.853161	 2.269165
C	 -1.740745	 -1.377906	 1.299977
H	 -0.610170	 -1.313148	 3.118601
H	 -0.681177	 0.214104	 2.288854
C	 -3.093387	 -1.171675	 1.985007
H	 -1.597812	 -2.439166	 1.101467
H	 -1.759823	 -0.886426	 0.330242
C	 -4.268931	 -1.684752	 1.154036
H	 -3.088124	 -1.673289	 2.950327
H	 -3.233684	 -0.112913	 2.192916
H	 -4.174620	 -2.748873	 0.956612
H	 -5.212580	 -1.526156	 1.666880
H	 -4.324036	 -1.175678	 0.195824

	symmetry c1
}
set optking {
	frozen_dihedral = ("
		14 10 7 4,
		14 10 13 16,
		8 4 3 2,
		10 13 16 20,
		20 16 19 22,
		4 3 2 1
	")
}

ee = energy('scf')
oeprop('DIPOLE', 'QUADRUPOLE', 'MULLIKEN_CHARGES')
f=open( 'psi4out.xyz', 'w' )
f.write( "27  " )
f.write( str(ee) + "\n" )
f.write( MOL.save_string_xyz() )
f.close()
--------------------------------------------------------------------------

    Molecular point group: c1

    Geometry (in Angstrom), charge = 0, multiplicity = 1:

       Center              X                  Y                   Z               Mass
    ------------   -----------------  -----------------  -----------------  -----------------
           H          2.366687212190     2.560841627252    -0.560560280053     1.007825032070
           O          3.116087212190     2.213637627252    -1.021993280053    15.994914619560
           C          3.344592212190     0.886030627252    -0.622870280053    12.000000000000
           C          2.314778212190    -0.093399372748    -1.175072280053    12.000000000000
           H          4.328117212190     0.631531627252    -0.996478280053     1.007825032070
           H          3.383587212190     0.816089627252     0.463576719947     1.007825032070
           C          0.890822212190     0.149612627252    -0.668947280053    12.000000000000
           H          2.331207212190    -0.035625372748    -2.260318280053     1.007825032070
           H          2.627092212190    -1.101145372748    -0.906232280053     1.007825032070
           C          0.594719212190    -0.587475372748     0.640190719947    12.000000000000
           H          0.182645212190    -0.164782372748    -1.430528280053     1.007825032070
           H          0.737073212190     1.218452627252    -0.519677280053     1.007825032070
           C         -0.790333787810    -0.310331372748     1.236142719947    12.000000000000
           H          0.710847212190    -1.658196372748     0.482336719947     1.007825032070
           H          1.347551212190    -0.306275372748     1.373587719947     1.007825032070
           C         -1.965733787810    -0.831020372748     0.404399719947    12.000000000000
           H         -0.835158787810    -0.766262372748     2.223023719947     1.007825032070
           H         -0.906165787810     0.760989627252     1.393276719947     1.007825032070
           C         -3.318375787810    -0.624789372748     1.089429719947    12.000000000000
           H         -1.822800787810    -1.892280372748     0.205889719947     1.007825032070
           H         -1.984811787810    -0.339540372748    -0.565335280053     1.007825032070
           C         -4.493919787810    -1.137866372748     0.258458719947    12.000000000000
           H         -3.313112787810    -1.126403372748     2.054749719947     1.007825032070
           H         -3.458672787810     0.433972627252     1.297338719947     1.007825032070
           H         -4.399608787810    -2.201987372748     0.061034719947     1.007825032070
           H         -5.437568787810    -0.979270372748     0.771302719947     1.007825032070
           H         -4.549024787810    -0.628792372748    -0.699753280053     1.007825032070

  Charge       = 0
  Multiplicity = 1
  Basis Set: 6-31G*
  Basis Set:

    Orbital Energies (a.u.)
    -----------------------

    Doubly Occupied:

       1A    -20.552227     2A    -11.267091     3A    -11.219970
       4A    -11.218671     5A    -11.216975     6A    -11.216620
       7A    -11.214955     8A    -11.214718     9A    -11.209737
      10A     -1.359213    11A     -1.096616    12A     -1.062352
      13A     -1.011164    14A     -0.947608    15A     -0.891420
      16A     -0.824445    17A     -0.799362    18A     -0.775968
      19A     -0.698012    20A     -0.646974    21A     -0.640650
      22A     -0.609422    23A     -0.607396    24A     -0.586558
      25A     -0.574197    26A     -0.560184    27A     -0.543237
      28A     -0.525429    29A     -0.509855    30A     -0.495695
      31A     -0.489587    32A     -0.473478    33A     -0.469499
      34A     -0.461690    35A     -0.448622    36A     -0.439186
      37A     -0.425370

  @DF-RHF Final Energy:  -388.27819886627520

   => Energetics <=

    Nuclear Repulsion Energy =            461.4088945980136600
    One-Electron Energy =               -1440.7657991601192862
    Two-Electron Energy =                 591.0787056958312178
    DFT Exchange-Correlation Energy =       0.0000000000000000
    Empirical Dispersion Energy =           0.0000000000000000
    PCM Polarization Energy =               0.0000000000000000
    EFP Energy =                            0.0000000000000000
    Total Energy =                       -388.2781988662744652

  Mulliken Charges: (a.u.)
   Center  Symbol    Alpha    Beta     Spin     Total
       1     H     0.27927  0.27927  0.00000  0.44146
       2     O     4.37115  4.37115  0.00000 -0.74230
       3     C     2.99862  2.99862  0.00000  0.00275
       4     C     3.16422  3.16422  0.00000 -0.32843
       5     H     0.41402  0.41402  0.00000  0.17197
       6     H     0.43148  0.43148  0.00000  0.13704
       7     C     3.15983  3.15983  0.00000 -0.31966
       8     H     0.41275  0.41275  0.00000  0.17449
       9     H     0.42300  0.42300  0.00000  0.15400
      10     C     3.15542  3.15542  0.00000 -0.31083
      11     H     0.41408  0.41408  0.00000  0.17185
      12     H     0.43389  0.43389  0.00000  0.13222
      13     C     3.15285  3.15285  0.00000 -0.30569
      14     H     0.42180  0.42180  0.00000  0.15639
      15     H     0.42291  0.42291  0.00000  0.15418
      16     C     3.15288  3.15288  0.00000 -0.30575
      17     H     0.42131  0.42131  0.00000  0.15738
      18     H     0.42522  0.42522  0.00000  0.14957
      19     C     3.15119  3.15119  0.00000 -0.30237
      20     H     0.42420  0.42420  0.00000  0.15160
      21     H     0.42191  0.42191  0.00000  0.15617
      22     C     3.23927  3.23927  0.00000 -0.47855
      23     H     0.42301  0.42301  0.00000  0.15397
      24     H     0.42314  0.42314  0.00000  0.15372
      25     H     0.42170  0.42170  0.00000  0.15659
      26     H     0.41915  0.41915  0.00000  0.16171
      27     H     0.42175  0.42175  0.00000  0.15651

   Total alpha = 37.00000, Total beta = 37.00000, Total charge =  0.00000
