                              Psi4 1.0.54 Driver

  ==> Input File <==

--------------------------------------------------------------------------
set {
	reference rhf
	basis cc-pvtz
}

set_num_threads( 4 )
memory 2 gb

molecule MOL {
0 1

H	 3.273419	 0.176595	 -0.102789
N	 2.433987	 -0.362316	 -0.080024
C	 1.263552	 0.494993	 0.021953
H	 2.497638	 -0.973615	 0.707122
C	 -0.016533	 -0.325589	 -0.026925
H	 1.280915	 1.180773	 -0.818522
H	 1.263064	 1.106893	 0.925038
C	 -1.280353	 0.525521	 0.047747
H	 -0.016686	 -0.912532	 -0.939714
H	 -0.014099	 -1.037598	 0.796369
C	 -1.972659	 0.685365	 -1.301754
H	 -1.029156	 1.507240	 0.440294
H	 -1.974628	 0.082995	 0.756991
H	 -1.315270	 1.156396	 -2.024733
H	 -2.863415	 1.297118	 -1.216530
H	 -2.269768	 -0.276936	 -1.705341

	symmetry c1
}
set optking {
	frozen_dihedral = ("
		12 8 5 9
	")
}

ee,wfn = optimize('scf', return_wfn=True)
oeprop( wfn, 'DIPOLE', 'QUADRUPOLE', 'MULLIKEN_CHARGES')
f=open( 'psi4out.xyz', 'w' )
f.write( "16  " )
f.write( str(ee) + "\n" )
f.write( MOL.save_string_xyz() )
f.close()
--------------------------------------------------------------------------

    Molecular point group: c1
  Charge       = 0
  Multiplicity = 1
  Basis Set: CC-PVTZ
  Basis Set:
  @DF-RHF Final Energy:  -212.39558095255066
    Total Energy =                       -212.3955809525506879
    Molecular point group: c1
  Basis Set: CC-PVTZ
  Basis Set:
  Basis Set: CC-PVTZ
  Basis Set:
  @DF-RHF Final Energy:  -212.39588860231902
    Total Energy =                       -212.3958886023190757
  Basis Set: CC-PVTZ
  Basis Set:
  Basis Set: CC-PVTZ
  Basis Set:
  @DF-RHF Final Energy:  -212.39595068719919
    Total Energy =                       -212.3959506871991607
  Basis Set: CC-PVTZ
  Basis Set:
  Basis Set: CC-PVTZ
  Basis Set:
  @DF-RHF Final Energy:  -212.39595171523317
    Total Energy =                       -212.3959517152331387
  Basis Set: CC-PVTZ
  Basis Set:
  Charge       = 0
  Multiplicity = 1
  Basis Set: CC-PVTZ
  Basis Set:

    Orbital Energies (a.u.)
    -----------------------

    Doubly Occupied:

       1A    -15.526609     2A    -11.238479     3A    -11.212853
       4A    -11.207775     5A    -11.205413     6A     -1.178579
       7A     -1.058566     8A     -0.957555     9A     -0.849004
      10A     -0.788937    11A     -0.663481    12A     -0.624487
      13A     -0.622267    14A     -0.587082    15A     -0.551037
      16A     -0.525284    17A     -0.507782    18A     -0.469848
      19A     -0.463843    20A     -0.455931    21A     -0.384264

  @DF-RHF Final Energy:  -212.39595190121986

   => Energetics <=

    Nuclear Repulsion Energy =            187.8269238302654003
    One-Electron Energy =                -658.2875967115890035
    Two-Electron Energy =                 258.0647209801038002
    DFT Exchange-Correlation Energy =       0.0000000000000000
    Empirical Dispersion Energy =           0.0000000000000000
    PCM Polarization Energy =               0.0000000000000000
    EFP Energy =                            0.0000000000000000
    Total Energy =                       -212.3959519012198029
    Molecular point group: c1
  Basis Set: CC-PVTZ
  Basis Set:

  -Total Gradient:
     Atom            X                  Y                   Z
    ------   -----------------  -----------------  -----------------
       1        0.000005713708    -0.000002499271    -0.000004320059
       2        0.000014339585    -0.000001109566    -0.000009859622
       3       -0.000011250836    -0.000006192934     0.000024912373
       4       -0.000002980733     0.000007216116     0.000000163066
       5       -0.001474929824    -0.002309967666     0.001085808437
       6        0.000001859027    -0.000006187670     0.000002925149
       7        0.000002616380     0.000005901701     0.000004278292
       8       -0.000204609355    -0.000540545807     0.002816256761
       9        0.001246518637     0.002017767306    -0.001362429644
      10       -0.000002487941     0.000015344905     0.000000259704
      11       -0.000003964032    -0.000001287357     0.000010920899
      12        0.000429586851     0.000826189088    -0.002559893616
      13        0.000006067736    -0.000009694450    -0.000007239860
      14        0.000000719405    -0.000003525996     0.000004103216
      15       -0.000008416203     0.000005324320    -0.000008366003
      16        0.000001217593     0.000003267283     0.000002480906

  **** Optimization is complete! (in 5 steps) ****
    Final optimized geometry and variables:
    Molecular point group: c1

    Geometry (in Angstrom), charge = 0, multiplicity = 1:

    H            3.145673474960     0.037903662224     0.040896947914
    N            2.319773457180    -0.518997787556     0.099487588331
    C            1.138095199878     0.310321786845     0.268951505055
    H            2.435608110006    -1.137145144761     0.875366475721
    C           -0.126399152691    -0.539980650176     0.290237835903
    H            1.092683014135     0.998759692323    -0.568759412383
    H            1.172191475151     0.919903170537     1.172805414913
    C           -1.411881443402     0.303026290506     0.350562860767
    H           -0.120563403386    -1.151873385239    -0.604682975289
    H           -0.077049756820    -1.216900197855     1.137960335358
    C           -2.099982223930     0.443485838498    -1.005971571926
    H           -1.174867051404     1.298438862759     0.714839176848
    H           -2.110761190881    -0.127454823574     1.058435415145
    H           -1.430399906431     0.875139303143    -1.742670137047
    H           -2.973647507249     1.082246868399    -0.939702625689
    H           -2.421544681746    -0.521964248133    -1.381136458084

  Mulliken Charges: (a.u.)
   Center  Symbol    Alpha    Beta     Spin     Total
       1     H     0.43019  0.43019  0.00000  0.13961
       2     N     3.68979  3.68979  0.00000 -0.37959
       3     C     3.02430  3.02430  0.00000 -0.04860
       4     H     0.43087  0.43087  0.00000  0.13826
       5     C     3.08880  3.08880  0.00000 -0.17760
       6     H     0.45698  0.45698  0.00000  0.08604
       7     H     0.46841  0.46841  0.00000  0.06318
       8     C     3.09503  3.09503  0.00000 -0.19005
       9     H     0.45034  0.45034  0.00000  0.09933
      10     H     0.45398  0.45398  0.00000  0.09203
      11     C     3.14661  3.14661  0.00000 -0.29323
      12     H     0.45692  0.45692  0.00000  0.08616
      13     H     0.44854  0.44854  0.00000  0.10292
      14     H     0.45481  0.45481  0.00000  0.09037
      15     H     0.45017  0.45017  0.00000  0.09966
      16     H     0.45426  0.45426  0.00000  0.09149

   Total alpha = 21.00000, Total beta = 21.00000, Total charge = -0.00000

*** Psi4 exiting successfully. Buy a developer a beer!
