  ==> Input File <==

--------------------------------------------------------------------------
set {
	reference rhf
	basis cc-pvtz
}

set_num_threads( 4 )
memory 2 gb

molecule MOL {
0 1

H	 -2.266619	 1.169943	 0.000098
O	 -1.438073	 1.611259	 0.000041
C	 -0.408657	 0.734701	 0.000005
C	 -0.447107	 -0.273817	 0.944897
C	 0.645394	 0.830069	 -0.901102
H	 -1.277419	 -0.313294	 1.622359
C	 0.569885	 -1.203016	 1.002203
C	 1.653360	 -0.117055	 -0.820555
C	 0.685875	 1.931222	 -1.931649
H	 0.533300	 -1.983158	 1.738423
C	 1.628423	 -1.129614	 0.117590
H	 2.475026	 -0.057095	 -1.509930
H	 0.701182	 2.914709	 -1.470306
H	 1.573025	 1.849372	 -2.542964
H	 -0.170777	 1.890802	 -2.598610
H	 2.423067	 -1.848930	 0.156268

	symmetry c1
}
set optking {
	frozen_dihedral = ("
		4 3 2 1
	")
}

ee = optimize('scf')
oeprop('DIPOLE', 'QUADRUPOLE', 'MULLIKEN_CHARGES')
f=open( 'psi4out.xyz', 'w' )
f.write( "16  " )
f.write( str(ee) + "\n" )
f.write( MOL.save_string_xyz() )
f.close()
--------------------------------------------------------------------------

    Molecular point group: c1
  Charge       = 0
  Multiplicity = 1
  Basis Set: CC-PVTZ
  Basis Set:
  @DF-RHF Final Energy:  -344.71595353528124
    Total Energy =                       -344.7159535352811872
    Molecular point group: c1
  Basis Set: CC-PVTZ
  Basis Set:
  Basis Set: CC-PVTZ
  Basis Set:
  @DF-RHF Final Energy:  -344.71766986441565
    Total Energy =                       -344.7176698644157113
  Basis Set: CC-PVTZ
  Basis Set:
  Basis Set: CC-PVTZ
  Basis Set:
  @DF-RHF Final Energy:  -344.71778520698166
    Total Energy =                       -344.7177852069813753
  Basis Set: CC-PVTZ
  Basis Set:
  Basis Set: CC-PVTZ
  Basis Set:
  @DF-RHF Final Energy:  -344.71779408230060
    Total Energy =                       -344.7177940823004860
  Basis Set: CC-PVTZ
  Basis Set:
  Basis Set: CC-PVTZ
  Basis Set:
  @DF-RHF Final Energy:  -344.71779617634365
    Total Energy =                       -344.7177961763439953
  Basis Set: CC-PVTZ
  Basis Set:
  Charge       = 0
  Multiplicity = 1
  Basis Set: CC-PVTZ
  Basis Set:

    Orbital Energies (a.u.)
    -----------------------

    Doubly Occupied:

       1A    -20.575337     2A    -11.286417     3A    -11.230796
       4A    -11.228074     5A    -11.225776     6A    -11.223704
       7A    -11.220173     8A    -11.214001     9A     -1.403238
      10A     -1.153148    11A     -1.047353    12A     -1.006507
      13A     -0.932710    14A     -0.841436    15A     -0.803905
      16A     -0.733203    17A     -0.672252    18A     -0.656700
      19A     -0.621007    20A     -0.595825    21A     -0.574950
      22A     -0.563602    23A     -0.543755    24A     -0.532163
      25A     -0.502328    26A     -0.486305    27A     -0.471897
      28A     -0.333374    29A     -0.315772

  @DF-RHF Final Energy:  -344.71779640363565

   => Energetics <=

    Nuclear Repulsion Energy =            350.6576001566256195
    One-Electron Energy =               -1162.7593751635795343
    Two-Electron Energy =                 467.3839786033178711
    DFT Exchange-Correlation Energy =       0.0000000000000000
    Empirical Dispersion Energy =           0.0000000000000000
    PCM Polarization Energy =               0.0000000000000000
    EFP Energy =                            0.0000000000000000
    Total Energy =                       -344.7177964036359867
    Molecular point group: c1
  Basis Set: CC-PVTZ
  Basis Set:

  -Total Gradient:
     Atom            X                  Y                   Z
    ------   -----------------  -----------------  -----------------
       1        0.000022974383    -0.000110370258    -0.002508152339
       2        0.000413763499     0.000760219361     0.003751760130
       3       -0.001426028904    -0.001756462285    -0.002421989845
       4        0.000942451377     0.001110972720     0.001183302811
       5       -0.000009991602     0.000005270790     0.000006882929
       6        0.000006054125    -0.000000079168    -0.000005029728
       7        0.000007086952    -0.000003461468     0.000018382927
       8        0.000017587846     0.000006013705     0.000007847764
       9        0.000021128987    -0.000003680326     0.000003378279
      10        0.000004598519    -0.000003986277    -0.000004005214
      11       -0.000000449986     0.000008677450    -0.000031467844
      12        0.000003558549    -0.000000620741    -0.000006407360
      13       -0.000001515579    -0.000004648526     0.000002064283
      14        0.000001827158     0.000001761321    -0.000002303658
      15       -0.000000781489    -0.000008877239     0.000002720264
      16       -0.000002263834    -0.000000729061     0.000003016603

  **** Optimization is complete! (in 6 steps) ****
    Final optimized geometry and variables:
    Molecular point group: c1

    Geometry (in Angstrom), charge = 0, multiplicity = 1:

    H           -2.557820054496     0.896864635590     0.179861895847
    O           -1.707252259461     1.297446460888     0.167831064305
    C           -0.726702738760     0.351559098908     0.216720730794
    C           -0.754322198211    -0.645904312666     1.170213656530
    C            0.331988867790     0.462567219544    -0.676444663034
    H           -1.572613064652    -0.686987482169     1.864877108045
    C            0.267066369552    -1.575525019304     1.230550443611
    C            1.348762982454    -0.472041443589    -0.587745844565
    C            0.359205840706     1.570381435844    -1.696770961018
    H            0.236851789558    -2.353105915280     1.969563364326
    C            1.323954885387    -1.489288190239     0.349789875290
    H            2.175509683730    -0.405136994847    -1.270084411307
    H            0.358966605576     2.542305807362    -1.218800929228
    H            1.242516415692     1.495513633171    -2.316607756861
    H           -0.512517452514     1.532038424255    -2.338633242955
    H            2.125304295179    -2.201439870466     0.391052550993

  Mulliken Charges: (a.u.)
   Center  Symbol    Alpha    Beta     Spin     Total
       1     H     0.38479  0.38479  0.00000  0.23042
       2     O     4.18597  4.18597  0.00000 -0.37194
       3     C     2.87961  2.87961  0.00000  0.24077
       4     C     3.12154  3.12154  0.00000 -0.24308
       5     C     2.99322  2.99322  0.00000  0.01355
       6     H     0.42662  0.42662  0.00000  0.14676
       7     C     3.07466  3.07466  0.00000 -0.14932
       8     C     3.08886  3.08886  0.00000 -0.17772
       9     C     3.13939  3.13939  0.00000 -0.27878
      10     H     0.42251  0.42251  0.00000  0.15498
      11     C     3.08406  3.08406  0.00000 -0.16812
      12     H     0.42474  0.42474  0.00000  0.15051
      13     H     0.44528  0.44528  0.00000  0.10944
      14     H     0.45386  0.45386  0.00000  0.09229
      15     H     0.45042  0.45042  0.00000  0.09916
      16     H     0.42446  0.42446  0.00000  0.15108

   Total alpha = 29.00000, Total beta = 29.00000, Total charge = -0.00000
