                              Psi4 1.0.54 Driver

  ==> Input File <==

--------------------------------------------------------------------------
set {
	reference rhf
	basis cc-pvtz
}

set_num_threads( 4 )
memory 2 gb

molecule MOL {
0 1

H	 -3.866950	 -1.857436	 -0.806867
C	 -2.798752	 -1.757034	 -0.839239
C	 -2.086076	 -2.301772	 -1.892328
C	 -2.139323	 -1.083724	 0.171598
H	 -2.598592	 -2.824252	 -2.676575
C	 -0.713462	 -2.172343	 -1.933232
H	 -2.692921	 -0.661640	 0.987836
C	 -0.764943	 -0.953289	 0.132061
H	 -0.146167	 -2.587895	 -2.741039
C	 -0.047836	 -1.497762	 -0.921419
H	 -0.251190	 -0.432458	 0.913293
C	 1.436106	 -1.385217	 -1.011803
O	 1.968286	 -0.725612	 -0.000027
O	 2.079060	 -1.838999	 -1.898296
C	 3.373556	 -0.568203	 0.000011
H	 3.695416	 -0.031588	 -0.879663
H	 3.782700	 -1.565294	 -0.000152
H	 3.695405	 -0.031851	 0.879862

	symmetry c1
}
set optking {
	frozen_dihedral = ("
		12 13 15 16
	")
}

ee,wfn = optimize('scf', return_wfn=True)
oeprop( wfn, 'DIPOLE', 'QUADRUPOLE', 'MULLIKEN_CHARGES')
f=open( 'psi4out.xyz', 'w' )
f.write( "18  " )
f.write( str(ee) + "\n" )
f.write( MOL.save_string_xyz() )
f.close()
--------------------------------------------------------------------------

    Molecular point group: c1
  Charge       = 0
  Multiplicity = 1
  Basis Set: CC-PVTZ
  Basis Set:
  @DF-RHF Final Energy:  -457.50865169140178
    Total Energy =                       -457.5086516914021786
    Molecular point group: c1
  Basis Set: CC-PVTZ
  Basis Set:
  Basis Set: CC-PVTZ
  Basis Set:
  @DF-RHF Final Energy:  -457.50986113562772
    Total Energy =                       -457.5098611356276024
  Basis Set: CC-PVTZ
  Basis Set:
  Basis Set: CC-PVTZ
  Basis Set:
  @DF-RHF Final Energy:  -457.51007021667579
    Total Energy =                       -457.5100702166753308
  Basis Set: CC-PVTZ
  Basis Set:
  Basis Set: CC-PVTZ
  Basis Set:
  @DF-RHF Final Energy:  -457.50974545862874
    Total Energy =                       -457.5097454586289132
  Basis Set: CC-PVTZ
  Basis Set:
  Basis Set: CC-PVTZ
  Basis Set:
  @DF-RHF Final Energy:  -457.51024077531946
    Total Energy =                       -457.5102407753195166
  Basis Set: CC-PVTZ
  Basis Set:
  Charge       = 0
  Multiplicity = 1
  Basis Set: CC-PVTZ
  Basis Set:

    Orbital Energies (a.u.)
    -----------------------

    Doubly Occupied:

       1A    -20.601015     2A    -20.534492     3A    -11.371753
       4A    -11.281207     5A    -11.245011     6A    -11.243543
       7A    -11.242746     8A    -11.240101     9A    -11.236109
      10A    -11.235350    11A     -1.477113    12A     -1.368473
      13A     -1.170857    14A     -1.051923    15A     -1.029117
      16A     -0.980538    17A     -0.863287    18A     -0.838530
      19A     -0.781307    20A     -0.745103    21A     -0.687887
      22A     -0.681853    23A     -0.676441    24A     -0.634128
      25A     -0.630121    26A     -0.601363    27A     -0.587584
      28A     -0.564958    29A     -0.531965    30A     -0.520377
      31A     -0.509508    32A     -0.502306    33A     -0.464202
      34A     -0.449522    35A     -0.350258    36A     -0.346310

  @DF-RHF Final Energy:  -457.51024279528326

   => Energetics <=

    Nuclear Repulsion Energy =            494.0623997690028091
    One-Electron Energy =               -1602.5925667543772306
    Two-Electron Energy =                 651.0199241900913876
    DFT Exchange-Correlation Energy =       0.0000000000000000
    Empirical Dispersion Energy =           0.0000000000000000
    PCM Polarization Energy =               0.0000000000000000
    EFP Energy =                            0.0000000000000000
    Total Energy =                       -457.5102427952829203
    Molecular point group: c1
  Basis Set: CC-PVTZ
  Basis Set:

  -Total Gradient:
     Atom            X                  Y                   Z
    ------   -----------------  -----------------  -----------------
       1        0.000003938505     0.000002393705     0.000003779717
       2        0.000007403152    -0.000002339884    -0.000003738835
       3       -0.000000005711     0.000011400471     0.000008946713
       4        0.000010286084     0.000001491268     0.000003962976
       5        0.000008534650     0.000002445423     0.000001480721
       6        0.000032877831    -0.000005755975    -0.000006944983
       7        0.000001647756     0.000000048704    -0.000000816971
       8        0.000008406265     0.000002300312     0.000004234643
       9        0.000001315999    -0.000000748705     0.000000644867
      10        0.000056289614    -0.000005450717    -0.000014051519
      11        0.000003750353     0.000003525069     0.000001998229
      12       -0.000105190299     0.000054383999     0.000045085952
      13        0.000048714146    -0.000009529972     0.000058826819
      14        0.000033371164    -0.000029794036    -0.000073962101
      15       -0.000001633891     0.000017076161     0.000029251009
      16       -0.000029442126    -0.000045583942    -0.000018276630
      17       -0.000034178083     0.000050178513     0.000012989967
      18       -0.000046085406    -0.000046040395    -0.000053410572

  **** Optimization is complete! (in 6 steps) ****
    Final optimized geometry and variables:
    Molecular point group: c1

    Geometry (in Angstrom), charge = 0, multiplicity = 1:

    H           -4.025968151149    -0.438147714426     0.008355816381
    C           -2.957528868423    -0.340450914427    -0.025304968159
    C           -2.247718442529    -0.885190089933    -1.080462512723
    C           -2.294889491633     0.329279017327     0.985753887841
    H           -2.762713217600    -1.404937298943    -1.864963974614
    C           -0.874862584918    -0.759337364141    -1.123098033343
    H           -2.846079959732     0.751419086745     1.803627712929
    C           -0.920114173631     0.456211237019     0.944465673606
    H           -0.309840559941    -1.174993027594    -1.932510279057
    C           -0.206111901067    -0.088249114038    -0.110968167547
    H           -0.403992718497     0.974382119198     1.725983927048
    C            1.278073363010     0.020537540284    -0.203475384062
    O            1.813569067118     0.676681351085     0.808592185665
    O            1.918508556279    -0.433204488530    -1.091856304613
    C            3.218829980265     0.830558754870     0.806407316776
    H            3.540670369525     1.368163830784    -0.072693122774
    H            3.706165049888    -0.132471669963     0.830598423051
    H            3.456585150278     1.391438964635     1.695406550814

  Mulliken Charges: (a.u.)
   Center  Symbol    Alpha    Beta     Spin     Total
       1     H     0.42028  0.42028  0.00000  0.15944
       2     C     3.06975  3.06975  0.00000 -0.13949
       3     C     3.07550  3.07550  0.00000 -0.15100
       4     C     3.07492  3.07492  0.00000 -0.14985
       5     H     0.42037  0.42037  0.00000  0.15925
       6     C     3.07590  3.07590  0.00000 -0.15180
       7     H     0.42188  0.42188  0.00000  0.15625
       8     C     3.08211  3.08211  0.00000 -0.16422
       9     H     0.40667  0.40667  0.00000  0.18666
      10     C     3.01228  3.01228  0.00000 -0.02457
      11     H     0.41102  0.41102  0.00000  0.17795
      12     C     2.78241  2.78241  0.00000  0.43517
      13     O     4.14833  4.14833  0.00000 -0.29667
      14     O     4.21129  4.21129  0.00000 -0.42259
      15     C     3.03662  3.03662  0.00000 -0.07323
      16     H     0.45258  0.45258  0.00000  0.09485
      17     H     0.45279  0.45279  0.00000  0.09443
      18     H     0.44530  0.44530  0.00000  0.10941

   Total alpha = 36.00000, Total beta = 36.00000, Total charge =  0.00000

*** Psi4 exiting successfully. Buy a developer a beer!
