                              Psi4 1.0.54 Driver

  ==> Input File <==

--------------------------------------------------------------------------
set {
	reference rhf
	basis cc-pvtz
}

set_num_threads( 4 )
memory 2 gb

molecule MOL {
0 1

H	 -2.498963	 -0.741158	 -0.729149
O	 -2.346257	 -0.289210	 0.080372
C	 -1.183935	 0.486039	 -0.009831
C	 0.062853	 -0.375310	 0.027457
H	 -1.178881	 1.094526	 -0.908634
H	 -1.184406	 1.155156	 0.838676
O	 0.521490	 -0.423482	 1.338480
H	 0.825803	 0.045657	 -0.629499
H	 -0.172240	 -1.371267	 -0.341834
C	 1.651352	 -1.209954	 1.528466
H	 2.493427	 -0.843251	 0.945617
H	 1.909998	 -1.170230	 2.576421
H	 1.465970	 -2.245112	 1.251696

	symmetry c1
}
set optking {
	frozen_dihedral = ("
		8 4 3 5
	")
}

ee,wfn = optimize('scf', return_wfn=True)
oeprop( wfn, 'DIPOLE', 'QUADRUPOLE', 'MULLIKEN_CHARGES')
f=open( 'psi4out.xyz', 'w' )
f.write( "13  " )
f.write( str(ee) + "\n" )
f.write( MOL.save_string_xyz() )
f.close()
--------------------------------------------------------------------------

    Molecular point group: c1
  Charge       = 0
  Multiplicity = 1
  Basis Set: CC-PVTZ
  Basis Set:
  @DF-RHF Final Energy:  -268.05708593460173
    Total Energy =                       -268.0570859346016732
    Molecular point group: c1
  Basis Set: CC-PVTZ
  Basis Set:
  Basis Set: CC-PVTZ
  Basis Set:
  @DF-RHF Final Energy:  -268.05761150710168
    Total Energy =                       -268.0576115071017966
  Basis Set: CC-PVTZ
  Basis Set:
  Basis Set: CC-PVTZ
  Basis Set:
  @DF-RHF Final Energy:  -268.05780641329022
    Total Energy =                       -268.0578064132902227
  Basis Set: CC-PVTZ
  Basis Set:
  Basis Set: CC-PVTZ
  Basis Set:
  @DF-RHF Final Energy:  -268.05781818985758
    Total Energy =                       -268.0578181898578123
  Basis Set: CC-PVTZ
  Basis Set:
  Charge       = 0
  Multiplicity = 1
  Basis Set: CC-PVTZ
  Basis Set:

    Orbital Energies (a.u.)
    -----------------------

    Doubly Occupied:

       1A    -20.553451     2A    -20.549178     3A    -11.271089
       4A    -11.268176     5A    -11.265582     6A     -1.390747
       7A     -1.365507     8A     -1.018843     9A     -0.915559
      10A     -0.843366    11A     -0.702832    12A     -0.676681
      13A     -0.663913    14A     -0.638912    15A     -0.600021
      16A     -0.567549    17A     -0.537204    18A     -0.499000
      19A     -0.478779    20A     -0.440406    21A     -0.421532

  @DF-RHF Final Energy:  -268.05782046657299

   => Energetics <=

    Nuclear Repulsion Energy =            191.7883896384350351
    One-Electron Energy =                -746.3557737648617376
    Two-Electron Energy =                 286.5095636598535975
    DFT Exchange-Correlation Energy =       0.0000000000000000
    Empirical Dispersion Energy =           0.0000000000000000
    PCM Polarization Energy =               0.0000000000000000
    EFP Energy =                            0.0000000000000000
    Total Energy =                       -268.0578204665731619
    Molecular point group: c1
  Basis Set: CC-PVTZ
  Basis Set:

  -Total Gradient:
     Atom            X                  Y                   Z
    ------   -----------------  -----------------  -----------------
       1       -0.000065391585    -0.000125084137    -0.000169868494
       2        0.000109496234     0.000143178272     0.000135236891
       3       -0.002883780214    -0.004377924887    -0.003295318279
       4        0.002242868920     0.003560029330     0.004496143285
       5        0.001992216442     0.002995847312     0.002067291849
       6        0.000025227505     0.000045289233     0.000002334287
       7       -0.000018360220    -0.000002714222    -0.000043923630
       8       -0.001391535488    -0.002231002139    -0.003181122846
       9       -0.000003817352    -0.000006061523     0.000003142198
      10       -0.000017891011    -0.000004447291    -0.000023036065
      11        0.000013453577     0.000001541000     0.000006639566
      12       -0.000005115426     0.000012208711    -0.000002545593
      13        0.000002628624    -0.000010859658     0.000005026835

  **** Optimization is complete! (in 5 steps) ****
    Final optimized geometry and variables:
    Molecular point group: c1

    Geometry (in Angstrom), charge = 0, multiplicity = 1:

    H           -2.232679717703    -0.349177073724    -1.247781974757
    O           -2.087626833675     0.163364402374    -0.473584956584
    C           -0.898392406334     0.888734816320    -0.590211546682
    C            0.356907007146     0.030009665604    -0.550185283358
    H           -0.892476487025     1.506347440923    -1.484488903683
    H           -0.867935177356     1.562670643227     0.253978986541
    O            0.812996961683    -0.086472940158     0.756379276473
    H            1.124116583723     0.456399359185    -1.196393198587
    H            0.125804625623    -0.955132541772    -0.957559335527
    C            1.913657124170    -0.919817594745     0.909795770562
    H            2.765505588590    -0.565848013226     0.332578287167
    H            2.180670759739    -0.924734859902     1.956307794510
    H            1.688081215067    -1.938070888315     0.600934578394

  Mulliken Charges: (a.u.)
   Center  Symbol    Alpha    Beta     Spin     Total
       1     H     0.39621  0.39621  0.00000  0.20759
       2     O     4.19835  4.19835  0.00000 -0.39670
       3     C     2.96759  2.96759  0.00000  0.06482
       4     C     2.96220  2.96220  0.00000  0.07559
       5     H     0.47199  0.47199  0.00000  0.05601
       6     H     0.45345  0.45345  0.00000  0.09310
       7     O     4.16970  4.16970  0.00000 -0.33941
       8     H     0.47765  0.47765  0.00000  0.04471
       9     H     0.48367  0.48367  0.00000  0.03265
      10     C     3.03032  3.03032  0.00000 -0.06065
      11     H     0.47247  0.47247  0.00000  0.05507
      12     H     0.44558  0.44558  0.00000  0.10885
      13     H     0.47081  0.47081  0.00000  0.05838

   Total alpha = 21.00000, Total beta = 21.00000, Total charge = -0.00000

*** Psi4 exiting successfully. Buy a developer a beer!
