                              Psi4 1.0.54 Driver

  ==> Input File <==

--------------------------------------------------------------------------
set {
	reference rhf
	basis cc-pvtz
}

set_num_threads( 4 )
memory 2 gb

molecule MOL {
0 1

H	 -2.722349	 -1.316189	 1.076366
O	 -1.898120	 -0.998991	 0.756882
C	 -2.021813	 0.336996	 0.342658
C	 -0.669613	 0.837286	 -0.127252
H	 -2.740221	 0.414473	 -0.469506
H	 -2.382094	 0.956745	 1.161494
C	 0.490865	 -0.082543	 0.241244
H	 -0.708709	 0.967192	 -1.204587
H	 -0.507562	 1.822272	 0.303070
C	 1.839800	 0.429565	 -0.255472
H	 0.305636	 -1.070211	 -0.165276
H	 0.527397	 -0.195943	 1.322876
C	 3.001144	 -0.485193	 0.119072
H	 1.804373	 0.541073	 -1.335756
H	 2.020437	 1.423114	 0.146921
H	 2.866892	 -1.477297	 -0.298806
H	 3.943543	 -0.095749	 -0.249061
H	 3.085064	 -0.590459	 1.195790

	symmetry c1
}
set optking {
	frozen_dihedral = ("
		2 3 4 8
	")
}

ee,wfn = optimize('scf', return_wfn=True)
oeprop( wfn, 'DIPOLE', 'QUADRUPOLE', 'MULLIKEN_CHARGES')
f=open( 'psi4out.xyz', 'w' )
f.write( "18  " )
f.write( str(ee) + "\n" )
f.write( MOL.save_string_xyz() )
f.close()
--------------------------------------------------------------------------

    Molecular point group: c1
  Charge       = 0
  Multiplicity = 1
  Basis Set: CC-PVTZ
  Basis Set:
  @DF-RHF Final Energy:  -271.27767114774315
    Total Energy =                       -271.2776711477432627
    Molecular point group: c1
  Basis Set: CC-PVTZ
  Basis Set:
  Basis Set: CC-PVTZ
  Basis Set:
  @DF-RHF Final Energy:  -271.27816194298299
    Total Energy =                       -271.2781619429829902
  Basis Set: CC-PVTZ
  Basis Set:
  Basis Set: CC-PVTZ
  Basis Set:
  @DF-RHF Final Energy:  -271.27906020388514
    Total Energy =                       -271.2790602038853081
  Basis Set: CC-PVTZ
  Basis Set:
  Basis Set: CC-PVTZ
  Basis Set:
  @DF-RHF Final Energy:  -271.27908967963936
    Total Energy =                       -271.2790896796390712
  Basis Set: CC-PVTZ
  Basis Set:
  Basis Set: CC-PVTZ
  Basis Set:
  @DF-RHF Final Energy:  -271.27909144515246
    Total Energy =                       -271.2790914451524031
  Basis Set: CC-PVTZ
  Basis Set:
  Basis Set: CC-PVTZ
  Basis Set:
  @DF-RHF Final Energy:  -271.27909331917078
    Total Energy =                       -271.2790933191708973
  Basis Set: CC-PVTZ
  Basis Set:
  Charge       = 0
  Multiplicity = 1
  Basis Set: CC-PVTZ
  Basis Set:

    Orbital Energies (a.u.)
    -----------------------

    Doubly Occupied:

       1A    -20.545727     2A    -11.266802     3A    -11.211073
       4A    -11.207241     5A    -11.202419     6A    -11.201044
       7A     -1.363704     8A     -1.073028     9A     -1.005836
      10A     -0.914425    11A     -0.818136    12A     -0.782983
      13A     -0.698698    14A     -0.657072    15A     -0.618000
      16A     -0.583080    17A     -0.573712    18A     -0.552356
      19A     -0.517907    20A     -0.501988    21A     -0.494302
      22A     -0.463727    23A     -0.460118    24A     -0.444539
      25A     -0.425744

  @DF-RHF Final Energy:  -271.27909338728807

   => Energetics <=

    Nuclear Repulsion Energy =            249.9562624716645303
    One-Electron Energy =                -863.3033913426260142
    Two-Electron Energy =                 342.0680354836736115
    DFT Exchange-Correlation Energy =       0.0000000000000000
    Empirical Dispersion Energy =           0.0000000000000000
    PCM Polarization Energy =               0.0000000000000000
    EFP Energy =                            0.0000000000000000
    Total Energy =                       -271.2790933872878441
    Molecular point group: c1
  Basis Set: CC-PVTZ
  Basis Set:

  -Total Gradient:
     Atom            X                  Y                   Z
    ------   -----------------  -----------------  -----------------
       1        0.000002822353     0.000009914977     0.000000652161
       2        0.000749316579     0.000927334955     0.003134393554
       3       -0.001270959220    -0.000263822741    -0.004000562221
       4        0.001725239494    -0.004751497484     0.000213982832
       5        0.000002074791     0.000002579063    -0.000002245115
       6       -0.000000948866    -0.000004442794     0.000000889783
       7       -0.000001968815     0.000003738270     0.000003919983
       8       -0.001198973781     0.004080660665     0.000653317362
       9       -0.000002825542    -0.000000801439     0.000002331684
      10        0.000001761892    -0.000005821921    -0.000012589512
      11       -0.000000441291     0.000001312953    -0.000001310750
      12       -0.000003115144    -0.000001751342     0.000002521201
      13       -0.000001085272     0.000002653563     0.000005897505
      14        0.000000454737     0.000000854602    -0.000002202057
      15       -0.000000950475    -0.000001976536    -0.000000178237
      16       -0.000000551651     0.000002081196    -0.000001249923
      17       -0.000000768193     0.000001662059     0.000001489065
      18        0.000000918400    -0.000002678048     0.000000942685

  **** Optimization is complete! (in 7 steps) ****
    Final optimized geometry and variables:
    Molecular point group: c1

    Geometry (in Angstrom), charge = 0, multiplicity = 1:

    H           -2.925552115372    -1.293247828097     0.780571199389
    O           -2.068821346801    -1.011376309460     0.518902884604
    C           -2.113367005907     0.338695807252     0.132497196448
    C           -0.728493603902     0.820261520713    -0.333796999205
    H           -2.838653148350     0.479464505601    -0.663130342004
    H           -2.439472001164     0.940867756576     0.976157750223
    C            0.445790638916    -0.080929116503     0.037882444054
    H           -0.744981906308     0.987265742857    -1.406129356032
    H           -0.559759306546     1.803115928391     0.096969646935
    C            1.784245149933     0.500608382009    -0.409000769977
    H            0.309034348800    -1.060126581121    -0.404269339634
    H            0.459183454486    -0.235623539799     1.112059201533
    C            2.968990746683    -0.390247682193    -0.050135080257
    H            1.767910330558     0.659816191662    -1.484118540090
    H            1.922959882077     1.480397899544     0.040745949809
    H            2.878269878193    -1.366566562895    -0.514328322882
    H            3.904698992298     0.047253966637    -0.379562190252
    H            3.033686815099    -0.541284686717     1.022303411095

  Mulliken Charges: (a.u.)
   Center  Symbol    Alpha    Beta     Spin     Total
       1     H     0.39983  0.39983  0.00000  0.20035
       2     O     4.18940  4.18940  0.00000 -0.37880
       3     C     2.96729  2.96729  0.00000  0.06542
       4     C     3.10495  3.10495  0.00000 -0.20990
       5     H     0.47008  0.47008  0.00000  0.05984
       6     H     0.47304  0.47304  0.00000  0.05392
       7     C     3.07889  3.07889  0.00000 -0.15778
       8     H     0.45339  0.45339  0.00000  0.09321
       9     H     0.45577  0.45577  0.00000  0.08846
      10     C     3.08527  3.08527  0.00000 -0.17054
      11     H     0.44658  0.44658  0.00000  0.10684
      12     H     0.45210  0.45210  0.00000  0.09580
      13     C     3.14983  3.14983  0.00000 -0.29966
      14     H     0.45649  0.45649  0.00000  0.08702
      15     H     0.45697  0.45697  0.00000  0.08606
      16     H     0.45486  0.45486  0.00000  0.09028
      17     H     0.44992  0.44992  0.00000  0.10016
      18     H     0.45534  0.45534  0.00000  0.08932

   Total alpha = 25.00000, Total beta = 25.00000, Total charge =  0.00000

*** Psi4 exiting successfully. Buy a developer a beer!
