  ==> Input File <==

--------------------------------------------------------------------------
set {
	reference rhf
	basis 6-31G*
}

set_num_threads( 4 )
memory 2 gb

molecule MOL {
0 1

H	 3.194707	 1.296884	 -0.635955
O	 2.264611	 1.178500	 -0.469633
C	 2.077727	 -0.067559	 -0.035091
C	 0.624473	 -0.343591	 0.253101
O	 2.977054	 -0.832800	 0.093879
C	 -0.265902	 0.883932	 0.072916
H	 0.324016	 -1.163849	 -0.390541
H	 0.565024	 -0.726111	 1.268924
C	 -1.728698	 0.646073	 0.462102
H	 -0.209144	 1.219470	 -0.958188
H	 0.135059	 1.692851	 0.673903
C	 -2.482460	 -0.343073	 -0.431425
H	 -2.245265	 1.602650	 0.432430
H	 -1.779332	 0.308348	 1.496285
C	 -3.960546	 -0.461025	 -0.060175
H	 -2.395034	 -0.026811	 -1.468912
H	 -2.024850	 -1.327147	 -0.371646
H	 -4.472726	 -1.168004	 -0.705284
H	 -4.465146	 0.496508	 -0.151489
H	 -4.081218	 -0.800940	 0.964585

	symmetry c1
}
set optking {
	frozen_dihedral = ("
		5 3 4 7
	")
}

ee = optimize('scf')
oeprop('DIPOLE', 'QUADRUPOLE', 'MULLIKEN_CHARGES')
f=open( 'psi4out.xyz', 'w' )
f.write( "20  " )
f.write( str(ee) + "\n" )
f.write( MOL.save_string_xyz() )
f.close()
--------------------------------------------------------------------------

    Molecular point group: c1
  Charge       = 0
  Multiplicity = 1
  Basis Set: 6-31G*
  Basis Set:
  @DF-RHF Final Energy:  -383.94446656042828
    Total Energy =                       -383.9444665604282250
    Molecular point group: c1
  Basis Set: 6-31G*
  Basis Set:
  Basis Set: 6-31G*
  Basis Set:
  @DF-RHF Final Energy:  -383.94542918733771
    Total Energy =                       -383.9454291873378224
  Basis Set: 6-31G*
  Basis Set:
  Basis Set: 6-31G*
  Basis Set:
  @DF-RHF Final Energy:  -383.94578672399683
    Total Energy =                       -383.9457867239968891
  Basis Set: 6-31G*
  Basis Set:
  Basis Set: 6-31G*
  Basis Set:
  @DF-RHF Final Energy:  -383.94587433816343
    Total Energy =                       -383.9458743381633212
  Basis Set: 6-31G*
  Basis Set:
  Basis Set: 6-31G*
  Basis Set:
  @DF-RHF Final Energy:  -383.94589009576396
    Total Energy =                       -383.9458900957639003
  Basis Set: 6-31G*
  Basis Set:
  Basis Set: 6-31G*
  Basis Set:
  @DF-RHF Final Energy:  -383.94588662332313
    Total Energy =                       -383.9458866233229628
  Basis Set: 6-31G*
  Basis Set:
  Basis Set: 6-31G*
  Basis Set:
  @DF-RHF Final Energy:  -383.94589600512609
    Total Energy =                       -383.9458960051259169
  Basis Set: 6-31G*
  Basis Set:
  Charge       = 0
  Multiplicity = 1
  Basis Set: 6-31G*
  Basis Set:

    Orbital Energies (a.u.)
    -----------------------

    Doubly Occupied:

       1A    -20.615349     2A    -20.546144     3A    -11.381500
       4A    -11.240480     5A    -11.226701     6A    -11.222649
       7A    -11.221624     8A    -11.213376     9A     -1.475507
      10A     -1.363710    11A     -1.098031    12A     -1.041330
      13A     -0.959435    14A     -0.861943    15A     -0.827182
      16A     -0.791723    17A     -0.698873    18A     -0.679142
      19A     -0.664065    20A     -0.633244    21A     -0.603156
      22A     -0.590898    23A     -0.576316    24A     -0.551337
      25A     -0.546959    26A     -0.520632    27A     -0.501375
      28A     -0.482679    29A     -0.473956    30A     -0.469271
      31A     -0.456005    32A     -0.433335

  @DF-RHF Final Energy:  -383.94589675258464

   => Energetics <=

    Nuclear Repulsion Energy =            376.3972926248800377
    One-Electron Energy =               -1268.7505242625363735
    Two-Electron Energy =                 508.4073348850717480
    DFT Exchange-Correlation Energy =       0.0000000000000000
    Empirical Dispersion Energy =           0.0000000000000000
    PCM Polarization Energy =               0.0000000000000000
    EFP Energy =                            0.0000000000000000
    Total Energy =                       -383.9458967525845878
    Molecular point group: c1
  Basis Set: 6-31G*
  Basis Set:

  -Total Gradient:
     Atom            X                  Y                   Z
    ------   -----------------  -----------------  -----------------
       1        0.000008219374    -0.000002557075    -0.000013459516
       2        0.000046614959     0.000060199580     0.000021636348
       3        0.000073425946     0.000046049186     0.000352529888
       4       -0.000072907596     0.000232835917    -0.000265910807
       5       -0.000084338236    -0.000069333784    -0.000231728875
       6       -0.000060917388    -0.000014940932    -0.000114077603
       7        0.000053650215    -0.000154794014     0.000198202392
       8        0.000005961972    -0.000019583471     0.000008204545
       9        0.000037484104    -0.000080234896     0.000041277498
      10       -0.000001042093     0.000020177893    -0.000011088466
      11        0.000022538719    -0.000048455021     0.000020710622
      12       -0.000014790588    -0.000008847350     0.000006674940
      13        0.000024526534    -0.000002767716    -0.000017221041
      14       -0.000009180151     0.000006119061     0.000016190360
      15       -0.000002519255     0.000009648558    -0.000007186125
      16       -0.000000330951    -0.000001379925    -0.000008060522
      17       -0.000023079702     0.000023587463     0.000004882757
      18        0.000000182585     0.000003799757    -0.000001476920
      19       -0.000007074458     0.000000916858     0.000002161186
      20        0.000003576011    -0.000000440092    -0.000002260658

  **** Optimization is complete! (in 8 steps) ****
    Final optimized geometry and variables:
    Molecular point group: c1

    Geometry (in Angstrom), charge = 0, multiplicity = 1:

    H            3.343014531654     1.091284616535    -0.626956667563
    O            2.402961045005     1.059080993209    -0.476338446995
    C            2.107751505671    -0.152379885768    -0.014119739949
    C            0.638742310323    -0.371447445610     0.265766472086
    O            2.941987809722    -0.983662071981     0.148776752584
    C           -0.277300207638     0.841822666372     0.098836651916
    H            0.339302798606    -1.189943429677    -0.380298324881
    H            0.583704286133    -0.761054296076     1.277863245094
    C           -1.732126021299     0.563436544867     0.493582581053
    H           -0.238220526504     1.190532177276    -0.928598422544
    H            0.101246655307     1.655055452636     0.709331534730
    C           -2.469365807987    -0.428538319931    -0.410586011197
    H           -2.270612634988     1.508277420250     0.481859762533
    H           -1.767515017102     0.208989350955     1.522642195251
    C           -3.942724827481    -0.582023495782    -0.033547450893
    H           -2.394085264155    -0.095622499796    -1.443855661302
    H           -1.991756345762    -1.403668839320    -0.367219310494
    H           -4.443402718678    -1.290244134112    -0.686171981138
    H           -4.467558526965     0.366032012121    -0.108610858851
    H           -4.050807082432    -0.939062816706     0.986728486658

  Mulliken Charges: (a.u.)
   Center  Symbol    Alpha    Beta     Spin     Total
       1     H     0.26721  0.26721  0.00000  0.46557
       2     O     4.34833  4.34833  0.00000 -0.69666
       3     C     2.62124  2.62124  0.00000  0.75751
       4     C     3.21628  3.21628  0.00000 -0.43256
       5     O     4.28327  4.28327  0.00000 -0.56654
       6     C     3.15440  3.15440  0.00000 -0.30879
       7     H     0.39443  0.39443  0.00000  0.21114
       8     H     0.39649  0.39649  0.00000  0.20703
       9     C     3.15593  3.15593  0.00000 -0.31185
      10     H     0.41290  0.41290  0.00000  0.17420
      11     H     0.41128  0.41128  0.00000  0.17745
      12     C     3.15521  3.15521  0.00000 -0.31043
      13     H     0.41807  0.41807  0.00000  0.16386
      14     H     0.42267  0.42267  0.00000  0.15465
      15     C     3.23934  3.23934  0.00000 -0.47868
      16     H     0.42177  0.42177  0.00000  0.15646
      17     H     0.42151  0.42151  0.00000  0.15697
      18     H     0.41792  0.41792  0.00000  0.16417
      19     H     0.42088  0.42088  0.00000  0.15825
      20     H     0.42087  0.42087  0.00000  0.15825

   Total alpha = 32.00000, Total beta = 32.00000, Total charge = -0.00000
