  ==> Input File <==

--------------------------------------------------------------------------
set {
	reference rhf
	basis 6-31G*
}

set_num_threads( 4 )
memory 2 gb

molecule MOL {
0 1

H	 2.246025	 -3.153082	 1.893359
C	 2.366470	 -2.354327	 1.168629
C	 1.090661	 -1.521669	 1.050491
H	 3.205828	 -1.743190	 1.488341
H	 2.631859	 -2.808610	 0.218133
C	 1.217350	 -0.386724	 0.039429
H	 0.829001	 -1.097831	 2.015004
H	 0.264026	 -2.168739	 0.761758
N	 0.000003	 0.397874	 -0.023260
H	 2.025602	 0.273896	 0.341547
H	 1.500443	 -0.795397	 -0.936390
C	 -1.217365	 -0.386708	 0.039277
H	 -0.000031	 1.072115	 0.718656
C	 -2.452633	 0.504241	 -0.042481
H	 -1.215291	 -1.074557	 -0.802042
H	 -1.269739	 -1.003477	 0.942735
C	 -3.758029	 -0.289423	 -0.010781
H	 -2.394220	 1.093569	 -0.952170
H	 -2.440793	 1.210787	 0.785871
H	 -3.816659	 -0.981993	 -0.845726
H	 -4.617837	 0.370165	 -0.069296
H	 -3.847478	 -0.867502	 0.904682

	symmetry c1
}
set optking {
	frozen_dihedral = ("
		10 6 9 12
	")
}

ee = optimize('scf')
oeprop('DIPOLE', 'QUADRUPOLE', 'MULLIKEN_CHARGES')
f=open( 'psi4out.xyz', 'w' )
f.write( "22  " )
f.write( str(ee) + "\n" )
f.write( MOL.save_string_xyz() )
f.close()
--------------------------------------------------------------------------

    Molecular point group: c1
  Charge       = 0
  Multiplicity = 1
  Basis Set: 6-31G*
  Basis Set:
  @DF-RHF Final Energy:  -290.37249894670794
    Total Energy =                       -290.3724989467077648
    Molecular point group: c1
  Basis Set: 6-31G*
  Basis Set:
  Basis Set: 6-31G*
  Basis Set:
  @DF-RHF Final Energy:  -290.37338177724206
    Total Energy =                       -290.3733817772421162
  Basis Set: 6-31G*
  Basis Set:
  Basis Set: 6-31G*
  Basis Set:
  @DF-RHF Final Energy:  -290.37739662977970
    Total Energy =                       -290.3773966297798097
  Basis Set: 6-31G*
  Basis Set:
  Basis Set: 6-31G*
  Basis Set:
  @DF-RHF Final Energy:  -290.37813022608645
    Total Energy =                       -290.3781302260863413
  Basis Set: 6-31G*
  Basis Set:
  @DF-RHF Final Energy:  -290.37822197241718
    Total Energy =                       -290.3782219724171796
  Basis Set: 6-31G*
  Basis Set:
  @DF-RHF Final Energy:  -290.37824388895075
    Total Energy =                       -290.3782438889509194
  Basis Set: 6-31G*
  Basis Set:
  Basis Set: 6-31G*
  Basis Set:
  @DF-RHF Final Energy:  -290.37825088517974
    Total Energy =                       -290.3782508851796820
  Basis Set: 6-31G*
  Basis Set:
  Basis Set: 6-31G*
  Basis Set:
  @DF-RHF Final Energy:  -290.37825210447079
    Total Energy =                       -290.3782521044709029
  Basis Set: 6-31G*
  Basis Set:
  Charge       = 0
  Multiplicity = 1
  Basis Set: 6-31G*
  Basis Set:

    Orbital Energies (a.u.)
    -----------------------

    Doubly Occupied:

       1A    -15.532866     2A    -11.239033     3A    -11.237374
       4A    -11.213718     5A    -11.211830     6A    -11.211049
       7A    -11.208798     8A     -1.201557     9A     -1.056583
      10A     -1.027124    11A     -0.929492    12A     -0.873319
      13A     -0.811980    14A     -0.787880    15A     -0.669665
      16A     -0.629335    17A     -0.616327    18A     -0.603567
      19A     -0.577754    20A     -0.556989    21A     -0.540713
      22A     -0.525783    23A     -0.501528    24A     -0.495386
      25A     -0.483769    26A     -0.470242    27A     -0.463740
      28A     -0.461967    29A     -0.352428

  @DF-RHF Final Energy:  -290.37825226939805

   => Energetics <=

    Nuclear Repulsion Energy =            317.6643513216156975
    One-Electron Energy =               -1021.1016188468818200
    Two-Electron Energy =                 413.0590152558679620
    DFT Exchange-Correlation Energy =       0.0000000000000000
    Empirical Dispersion Energy =           0.0000000000000000
    PCM Polarization Energy =               0.0000000000000000
    EFP Energy =                            0.0000000000000000
    Total Energy =                       -290.3782522693982173
    Molecular point group: c1
  Basis Set: 6-31G*
  Basis Set:

  -Total Gradient:
     Atom            X                  Y                   Z
    ------   -----------------  -----------------  -----------------
       1        0.000003948913    -0.000000492556     0.000002298357
       2        0.000000006248     0.000002744041     0.000006897839
       3       -0.000005595396    -0.000009093135    -0.000000902748
       4       -0.000001212856     0.000000028049    -0.000004662579
       5       -0.000001690180    -0.000003086483    -0.000000478380
       6        0.001202513942     0.001602403547    -0.004309135852
       7        0.000004895592    -0.000003341143    -0.000001132734
       8       -0.000002192678     0.000004346599    -0.000000421225
       9       -0.000217324252    -0.000716271913    -0.005223485931
      10       -0.000998639035    -0.001186629745     0.005187656583
      11       -0.000002662788     0.000000602437     0.000001245216
      12        0.000018311567     0.000315198604     0.004345379699
      13        0.000006661953    -0.000001382711    -0.000005386054
      14        0.000000539178    -0.000001833513     0.000002401391
      15       -0.000002243100    -0.000002529167    -0.000001315198
      16       -0.000004160257     0.000001761002    -0.000001956339
      17       -0.000002093866    -0.000001055887     0.000000850644
      18        0.000001829818    -0.000003043478     0.000000210766
      19       -0.000000244840     0.000001291028     0.000001257160
      20        0.000000345856     0.000000519708     0.000000219240
      21       -0.000000408558    -0.000000050859     0.000000286856
      22       -0.000000585260    -0.000000084425     0.000000173291

  **** Optimization is complete! (in 9 steps) ****
    Final optimized geometry and variables:
    Molecular point group: c1

    Geometry (in Angstrom), charge = 0, multiplicity = 1:

    H            2.978303645776    -2.567591500823     1.461963439833
    C            2.968561790608    -1.721520460244     0.782309803693
    C            1.593394134202    -1.054032102178     0.748776426845
    H            3.737186087058    -1.026608064255     1.109118405394
    H            3.251418845950    -2.085918845255    -0.201395020300
    C            1.563164145878     0.136422385744    -0.219989377748
    H            1.329444837641    -0.712723749513     1.748103988182
    H            0.847749064044    -1.791272088593     0.466495404540
    N            0.337285445038     0.921588803214    -0.273588417431
    H            2.354454202934     0.813581821530     0.087331604405
    H            1.800549997122    -0.213635020943    -1.221405057527
    C           -0.919740492977     0.198305403788    -0.220269682877
    H            0.349224847053     1.600893765406     0.461939726260
    C           -2.092502360296     1.145570264559    -0.455548721245
    H           -0.909396573492    -0.556399389478    -1.002999544125
    H           -1.070053457042    -0.333388664399     0.721342925120
    C           -3.444468410638     0.434086174354    -0.423158101045
    H           -1.950813930503     1.641186439437    -1.410581493892
    H           -2.078264056902     1.926754408585     0.302882943918
    H           -3.503340818793    -0.332631231266    -1.190672941183
    H           -4.257823115078     1.132336388532    -0.592802013548
    H           -3.616802158806    -0.045678083721     0.536330294595

  Mulliken Charges: (a.u.)
   Center  Symbol    Alpha    Beta     Spin     Total
       1     H     0.41771  0.41771  0.00000  0.16459
       2     C     3.24273  3.24273  0.00000 -0.48546
       3     C     3.16314  3.16314  0.00000 -0.32629
       4     H     0.42179  0.42179  0.00000  0.15642
       5     H     0.42051  0.42051  0.00000  0.15899
       6     C     3.04825  3.04825  0.00000 -0.09651
       7     H     0.42528  0.42528  0.00000  0.14945
       8     H     0.41983  0.41983  0.00000  0.16035
       9     N     3.85664  3.85664  0.00000 -0.71328
      10     H     0.42262  0.42262  0.00000  0.15476
      11     H     0.42057  0.42057  0.00000  0.15886
      12     C     3.05386  3.05386  0.00000 -0.10773
      13     H     0.33491  0.33491  0.00000  0.33018
      14     C     3.15208  3.15208  0.00000 -0.30417
      15     H     0.42239  0.42239  0.00000  0.15521
      16     H     0.43262  0.43262  0.00000  0.13477
      17     C     3.24351  3.24351  0.00000 -0.48702
      18     H     0.41322  0.41322  0.00000  0.17356
      19     H     0.42709  0.42709  0.00000  0.14582
      20     H     0.42118  0.42118  0.00000  0.15765
      21     H     0.41787  0.41787  0.00000  0.16426
      22     H     0.42220  0.42220  0.00000  0.15559

   Total alpha = 29.00000, Total beta = 29.00000, Total charge =  0.00000
