  ==> Input File <==

--------------------------------------------------------------------------
set {
	reference rhf
	basis cc-pvtz
}

set_num_threads( 4 )
memory 2 gb

molecule MOL {
0 1

H	 2.739147	 0.852510	 2.257342
O	 1.817102	 0.710121	 2.371291
C	 1.186133	 0.612682	 1.184762
C	 1.859568	 0.716679	 -0.022860
C	 -0.177506	 0.402098	 1.197529
H	 2.921854	 0.880725	 -0.030962
C	 1.169093	 0.610050	 -1.213167
H	 -0.700480	 0.321336	 2.128560
C	 -0.861704	 0.296439	 0.000000
H	 1.700650	 0.692137	 -2.141354
C	 -0.195100	 0.399381	 -1.209076
C	 -2.330689	 0.069587	 0.000000
H	 -0.734706	 0.316051	 -2.133073
O	 -2.848621	 -0.993976	 0.000000
H	 -2.934306	 0.982410	 0.000000

	symmetry c1
}
set optking {
	frozen_dihedral = ("
		11 9 12 14
	")
}

ee = optimize('scf')
oeprop('DIPOLE', 'QUADRUPOLE', 'MULLIKEN_CHARGES')
f=open( 'psi4out.xyz', 'w' )
f.write( "15  " )
f.write( str(ee) + "\n" )
f.write( MOL.save_string_xyz() )
f.close()
--------------------------------------------------------------------------

    Molecular point group: c1
  Charge       = 0
  Multiplicity = 1
  Basis Set: CC-PVTZ
  Basis Set:
  @DF-RHF Final Energy:  -418.42689375919809
    Total Energy =                       -418.4268937591981512
    Molecular point group: c1
  Basis Set: CC-PVTZ
  Basis Set:
  Basis Set: CC-PVTZ
  Basis Set:
  @DF-RHF Final Energy:  -418.42710647086318
    Total Energy =                       -418.4271064708632366
  Basis Set: CC-PVTZ
  Basis Set:
  Basis Set: CC-PVTZ
  Basis Set:
  @DF-RHF Final Energy:  -418.42630751491913
    Total Energy =                       -418.4263075149192446
  Basis Set: CC-PVTZ
  Basis Set:
  Basis Set: CC-PVTZ
  Basis Set:
  @DF-RHF Final Energy:  -418.42723906333072
    Total Energy =                       -418.4272390633307168
  Basis Set: CC-PVTZ
  Basis Set:
  Basis Set: CC-PVTZ
  Basis Set:
  @DF-RHF Final Energy:  -418.42724334708180
    Total Energy =                       -418.4272433470820260
  Basis Set: CC-PVTZ
  Basis Set:
  Charge       = 0
  Multiplicity = 1
  Basis Set: CC-PVTZ
  Basis Set:

    Orbital Energies (a.u.)
    -----------------------

    Doubly Occupied:

       1A    -20.596678     2A    -20.564323     3A    -11.333376
       4A    -11.312410     5A    -11.256548     6A    -11.249484
       7A    -11.238583     8A    -11.237222     9A    -11.235984
      10A     -1.428600    11A     -1.418775    12A     -1.172027
      13A     -1.050999    14A     -1.026905    15A     -0.901670
      16A     -0.845482    17A     -0.821288    18A     -0.742889
      19A     -0.703281    20A     -0.679956    21A     -0.669323
      22A     -0.643662    23A     -0.616264    24A     -0.607571
      25A     -0.587149    26A     -0.546439    27A     -0.534692
      28A     -0.515431    29A     -0.498555    30A     -0.426690
      31A     -0.357492    32A     -0.328517

  @DF-RHF Final Energy:  -418.42724393280258

   => Energetics <=

    Nuclear Repulsion Energy =            402.8256488108666531
    One-Electron Energy =               -1368.2092531329253688
    Two-Electron Energy =                 546.9563603892562469
    DFT Exchange-Correlation Energy =       0.0000000000000000
    Empirical Dispersion Energy =           0.0000000000000000
    PCM Polarization Energy =               0.0000000000000000
    EFP Energy =                            0.0000000000000000
    Total Energy =                       -418.4272439328025257
    Molecular point group: c1
  Basis Set: CC-PVTZ
  Basis Set:

  -Total Gradient:
     Atom            X                  Y                   Z
    ------   -----------------  -----------------  -----------------
       1       -0.000004746714     0.000012026458    -0.000001610993
       2        0.000008990924     0.000026895539    -0.000013902378
       3       -0.000094690748    -0.000123806589     0.000077920236
       4        0.000005402140     0.000017382500    -0.000141961613
       5        0.000064504255     0.000029394361     0.000052078694
       6       -0.000002480844     0.000005072943     0.000011629759
       7        0.000134951386     0.000026765856     0.000093118915
       8        0.000006328749     0.000007051485     0.000000498940
       9        0.000074696771    -0.000215103375    -0.000057380049
      10       -0.000010311088    -0.000001379990    -0.000008514382
      11       -0.000175988990     0.000151607457     0.000080208302
      12       -0.000087984821     0.000019298845    -0.000334866356
      13        0.000011271314     0.000004264551    -0.000002363836
      14        0.000037871695     0.000038203593     0.000240415736
      15        0.000032185958     0.000002326365     0.000004729027

  **** Optimization is complete! (in 6 steps) ****
    Final optimized geometry and variables:
    Molecular point group: c1

    Geometry (in Angstrom), charge = 0, multiplicity = 1:

    H            2.780270461830     0.540010597326     1.959239793258
    O            1.855195586318     0.410861357017     2.066627146436
    C            1.237099411253     0.312903011143     0.874942220006
    C            1.915357127405     0.418468957388    -0.325387954597
    C           -0.130979322394     0.099467847814     0.883388460619
    H            2.977009524048     0.584767702277    -0.331871335584
    C            1.220678208183     0.307817819049    -1.514558748763
    H           -0.637886054713     0.015506959855     1.825004680078
    C           -0.810419864839    -0.014351584843    -0.311542606915
    H            1.752107480073     0.387491926345    -2.443458226682
    C           -0.142115232747     0.094522121435    -1.520143942458
    C           -2.295755105219    -0.229420783552    -0.296813262077
    H           -0.673992785195     0.003342543683    -2.447158444139
    O           -2.808321890858    -1.292513802059    -0.300096444868
    H           -2.904485435051     0.680640100293    -0.282410031789

  Mulliken Charges: (a.u.)
   Center  Symbol    Alpha    Beta     Spin     Total
       1     H     0.38624  0.38624  0.00000  0.22751
       2     O     4.17142  4.17142  0.00000 -0.34283
       3     C     2.83588  2.83588  0.00000  0.32824
       4     C     3.14191  3.14191  0.00000 -0.28381
       5     C     3.13573  3.13573  0.00000 -0.27147
       6     H     0.43267  0.43267  0.00000  0.13467
       7     C     3.05278  3.05278  0.00000 -0.10556
       8     H     0.41834  0.41834  0.00000  0.16332
       9     C     2.91821  2.91821  0.00000  0.16357
      10     H     0.41973  0.41973  0.00000  0.16054
      11     C     3.12061  3.12061  0.00000 -0.24122
      12     C     2.93069  2.93069  0.00000  0.13862
      13     H     0.42327  0.42327  0.00000  0.15346
      14     O     4.15474  4.15474  0.00000 -0.30947
      15     H     0.45779  0.45779  0.00000  0.08443

   Total alpha = 32.00000, Total beta = 32.00000, Total charge = -0.00000
