                              Psi4 1.0.54 Driver

  ==> Input File <==

--------------------------------------------------------------------------
set {
	reference rhf
	basis cc-pvtz
}

set_num_threads( 4 )
memory 2 gb

molecule MOL {
0 1

H	 -3.544463	 0.972728	 1.742812
C	 -3.557161	 0.392093	 0.810295
C	 -2.653809	 0.914422	 -0.273689
O	 -4.254465	 -0.557575	 0.714359
C	 -1.216901	 1.136108	 0.207794
H	 -2.692686	 0.232155	 -1.112935
H	 -3.073323	 1.864950	 -0.595881
C	 -0.247837	 0.040196	 -0.230469
H	 -0.872882	 2.093195	 -0.169002
H	 -1.209325	 1.218376	 1.291938
C	 1.181757	 0.280428	 0.247371
H	 -0.259600	 -0.030819	 -1.314870
H	 -0.591284	 -0.923375	 0.136958
C	 2.151032	 -0.811012	 -0.202643
H	 1.515939	 1.247397	 -0.115449
H	 1.191514	 0.341223	 1.333422
C	 3.580021	 -0.656538	 0.320835
H	 2.170545	 -0.847575	 -1.289412
H	 1.766632	 -1.772905	 0.124928
C	 4.327657	 0.562694	 -0.213579
H	 4.138806	 -1.549270	 0.057813
H	 3.561991	 -0.620783	 1.406976
H	 4.355973	 0.557257	 -1.298551
H	 3.867136	 1.491650	 0.100501
H	 5.351524	 0.571613	 0.142204

	symmetry c1
}
set optking {
	frozen_dihedral = ("
		6 3 5 8
	")
}

ee,wfn = optimize('scf', return_wfn=True)
oeprop( wfn, 'DIPOLE', 'QUADRUPOLE', 'MULLIKEN_CHARGES')
f=open( 'psi4out.xyz', 'w' )
f.write( "25  " )
f.write( str(ee) + "\n" )
f.write( MOL.save_string_xyz() )
f.close()
--------------------------------------------------------------------------

    Molecular point group: c1
  Charge       = 0
  Multiplicity = 1
  Basis Set: CC-PVTZ
  Basis Set:
  @DF-RHF Final Energy:  -387.25708178758020
    Total Energy =                       -387.2570817875796365
    Molecular point group: c1
  Basis Set: CC-PVTZ
  Basis Set:
  Basis Set: CC-PVTZ
  Basis Set:
  @DF-RHF Final Energy:  -387.25713875735454
    Total Energy =                       -387.2571387573545962
  Basis Set: CC-PVTZ
  Basis Set:
  Basis Set: CC-PVTZ
  Basis Set:
  @DF-RHF Final Energy:  -387.25455922253519
    Total Energy =                       -387.2545592225349083
  Basis Set: CC-PVTZ
  Basis Set:
  Basis Set: CC-PVTZ
  Basis Set:
  @DF-RHF Final Energy:  -387.25736453855245
    Total Energy =                       -387.2573645385522241
  Basis Set: CC-PVTZ
  Basis Set:
  @DF-RHF Final Energy:  -387.25739219246077
    Total Energy =                       -387.2573921924609976
  Basis Set: CC-PVTZ
  Basis Set:
  @DF-RHF Final Energy:  -387.25741547917295
    Total Energy =                       -387.2574154791727779
  Basis Set: CC-PVTZ
  Basis Set:
  Basis Set: CC-PVTZ
  Basis Set:
  @DF-RHF Final Energy:  -387.25742080791457
    Total Energy =                       -387.2574208079142863
  Basis Set: CC-PVTZ
  Basis Set:
  Basis Set: CC-PVTZ
  Basis Set:
  @DF-RHF Final Energy:  -387.25742316543915
    Total Energy =                       -387.2574231654394907
  Basis Set: CC-PVTZ
  Basis Set:
  Charge       = 0
  Multiplicity = 1
  Basis Set: CC-PVTZ
  Basis Set:

    Orbital Energies (a.u.)
    -----------------------

    Doubly Occupied:

       1A    -20.551702     2A    -11.320827     3A    -11.233641
       4A    -11.233061     5A    -11.221433     6A    -11.217076
       7A    -11.216063     8A    -11.214877     9A    -11.208769
      10A     -1.406677    11A     -1.104073    12A     -1.069969
      13A     -1.014458    14A     -0.944321    15A     -0.875408
      16A     -0.814941    17A     -0.794227    18A     -0.780783
      19A     -0.672966    20A     -0.661493    21A     -0.634993
      22A     -0.624704    23A     -0.607336    24A     -0.588189
      25A     -0.575253    26A     -0.556062    27A     -0.531864
      28A     -0.525169    29A     -0.514498    30A     -0.496546
      31A     -0.488453    32A     -0.480507    33A     -0.464973
      34A     -0.459071    35A     -0.443171    36A     -0.411525

  @DF-RHF Final Energy:  -387.25742350059824

   => Energetics <=

    Nuclear Repulsion Energy =            437.1352253766860372
    One-Electron Energy =               -1390.8671430392664661
    Two-Electron Energy =                 566.4744941619826477
    DFT Exchange-Correlation Energy =       0.0000000000000000
    Empirical Dispersion Energy =           0.0000000000000000
    PCM Polarization Energy =               0.0000000000000000
    EFP Energy =                            0.0000000000000000
    Total Energy =                       -387.2574235005977243
    Molecular point group: c1
  Basis Set: CC-PVTZ
  Basis Set:

  -Total Gradient:
     Atom            X                  Y                   Z
    ------   -----------------  -----------------  -----------------
       1       -0.000007231782     0.000000908522     0.000017819253
       2       -0.000042539439    -0.000082449003    -0.000061428362
       3        0.000575544536     0.003817534071    -0.003697611900
       4        0.000027734425     0.000061494343     0.000035306851
       5       -0.000760867145    -0.002342524140     0.003530117998
       6       -0.000298396250    -0.002662670088     0.002293921700
       7        0.000000477779     0.000001396211     0.000007941118
       8        0.000498730627     0.001228039401    -0.002156978062
       9        0.000009833218    -0.000008179541     0.000014192162
      10        0.000011992477    -0.000007266121    -0.000014974186
      11       -0.000016509428    -0.000005071329     0.000012558390
      12       -0.000013658586     0.000010919312     0.000014212510
      13        0.000011780798     0.000000823952    -0.000005574353
      14       -0.000001239093    -0.000033640496     0.000032634597
      15        0.000030756248     0.000023363812     0.000001317927
      16        0.000010687203    -0.000001554048    -0.000010406741
      17        0.000008803070    -0.000009813824    -0.000031454631
      18       -0.000003263512    -0.000010220535     0.000013585274
      19       -0.000011270567     0.000006453112     0.000006334531
      20       -0.000009355432    -0.000006382157     0.000005527104
      21        0.000009392821     0.000002907736    -0.000008445535
      22        0.000002057687    -0.000014356548    -0.000012253639
      23        0.000002669163    -0.000004341523     0.000013809277
      24       -0.000030653116     0.000023010245    -0.000003782527
      25       -0.000005475700     0.000011618635     0.000003631244

  **** Optimization is complete! (in 9 steps) ****
    Final optimized geometry and variables:
    Molecular point group: c1

    Geometry (in Angstrom), charge = 0, multiplicity = 1:

    H           -3.506060092162     0.871513225940     1.562617352182
    C           -3.455173637094     0.254447589593     0.655548022102
    C           -2.600684902353     0.816293567986    -0.449976333904
    O           -4.041956587743    -0.770459286265     0.603907194645
    C           -1.150006861021     1.054524994991     0.015322179323
    H           -2.643307528077     0.113946762733    -1.271289787653
    H           -3.057207929461     1.750206559699    -0.762685449233
    C           -0.196167179696    -0.058450636591    -0.413621632301
    H           -0.792933112018     1.994688595747    -0.389565443183
    H           -1.121342596249     1.167717526118     1.095812634312
    C            1.231091663348     0.148134917986     0.085014865413
    H           -0.195295519427    -0.119498771711    -1.498365147299
    H           -0.570132910434    -1.014356900420    -0.055917568767
    C            2.184664367400    -0.955511386399    -0.369040018163
    H            1.588719955348     1.113581879833    -0.259568987876
    H            1.228491463842     0.192897901828     1.171794512651
    C            3.609254231708    -0.837298095317     0.175258020178
    H            2.218230024428    -0.975822982209    -1.455959881638
    H            1.776900670666    -1.914291237714    -0.061286210379
    C            4.384936119992     0.378897276876    -0.324977982207
    H            4.155603156889    -1.734500829840    -0.098561703234
    H            3.577631825759    -0.822831926549     1.261519890956
    H            4.427628783174     0.394367468992    -1.409397629903
    H            3.936344883993     1.309419857840     0.001546346300
    H            5.403970124007     0.362885887995     0.044166900970

  Mulliken Charges: (a.u.)
   Center  Symbol    Alpha    Beta     Spin     Total
       1     H     0.46577  0.46577  0.00000  0.06847
       2     C     2.90291  2.90291  0.00000  0.19417
       3     C     3.09065  3.09065  0.00000 -0.18131
       4     O     4.16555  4.16555  0.00000 -0.33111
       5     C     3.11126  3.11126  0.00000 -0.22253
       6     H     0.44359  0.44359  0.00000  0.11281
       7     H     0.44004  0.44004  0.00000  0.11992
       8     C     3.08779  3.08779  0.00000 -0.17559
       9     H     0.44424  0.44424  0.00000  0.11152
      10     H     0.45329  0.45329  0.00000  0.09343
      11     C     3.09366  3.09366  0.00000 -0.18732
      12     H     0.45104  0.45104  0.00000  0.09793
      13     H     0.44667  0.44667  0.00000  0.10665
      14     C     3.09555  3.09555  0.00000 -0.19111
      15     H     0.45261  0.45261  0.00000  0.09477
      16     H     0.45359  0.45359  0.00000  0.09281
      17     C     3.09055  3.09055  0.00000 -0.18110
      18     H     0.45354  0.45354  0.00000  0.09292
      19     H     0.44790  0.44790  0.00000  0.10421
      20     C     3.15275  3.15275  0.00000 -0.30550
      21     H     0.44773  0.44773  0.00000  0.10454
      22     H     0.45442  0.45442  0.00000  0.09117
      23     H     0.45471  0.45471  0.00000  0.09059
      24     H     0.45432  0.45432  0.00000  0.09135
      25     H     0.44584  0.44584  0.00000  0.10831

   Total alpha = 36.00000, Total beta = 36.00000, Total charge = -0.00000

*** Psi4 exiting successfully. Buy a developer a beer!
