                              Psi4 1.0.54 Driver

  ==> Input File <==

--------------------------------------------------------------------------
set {
	reference rhf
	basis cc-pvtz
}

set_num_threads( 4 )
memory 2 gb

molecule MOL {
0 1

H	 1.403637	 -2.655920	 -2.871810
O	 2.262181	 -2.314802	 -3.040245
C	 2.175040	 -1.117221	 -3.766521
C	 1.671449	 0.057391	 -2.941070
H	 3.177442	 -0.910297	 -4.116311
H	 1.548301	 -1.251579	 -4.646065
C	 0.227850	 -0.084488	 -2.463849
H	 2.328451	 0.185565	 -2.086039
H	 1.763245	 0.955452	 -3.547252
C	 -0.253120	 1.127381	 -1.667057
H	 0.137975	 -0.976961	 -1.853589
H	 -0.423615	 -0.226834	 -3.324441
C	 -1.717087	 1.071705	 -1.226652
H	 0.380164	 1.253566	 -0.792269
H	 -0.110816	 2.017571	 -2.273507
C	 -2.041121	 -0.006551	 -0.194127
H	 -1.985083	 2.039244	 -0.811232
H	 -2.349445	 0.933987	 -2.100901
C	 -3.489218	 0.042606	 0.286507
H	 -1.377071	 0.105106	 0.660296
H	 -1.842714	 -0.991005	 -0.607030
C	 -4.219984	 1.311773	 -0.139038
H	 -4.022855	 -0.824300	 -0.093339
H	 -3.510372	 -0.038577	 1.370031
H	 -4.244251	 1.405725	 -1.219696
H	 -5.244345	 1.313233	 0.215630
H	 -3.732090	 2.196311	 0.257073

	symmetry c1
}
set optking {
	frozen_dihedral = ("
		20 16 19 22
	")
}

ee,wfn = optimize('scf', return_wfn=True)
oeprop( wfn, 'DIPOLE', 'QUADRUPOLE', 'MULLIKEN_CHARGES')
f=open( 'psi4out.xyz', 'w' )
f.write( "27  " )
f.write( str(ee) + "\n" )
f.write( MOL.save_string_xyz() )
f.close()
--------------------------------------------------------------------------

    Molecular point group: c1
  Charge       = 0
  Multiplicity = 1
  Basis Set: CC-PVTZ
  Basis Set:
  @DF-RHF Final Energy:  -388.41385681606084
    Total Energy =                       -388.4138568160610703
    Molecular point group: c1
  Basis Set: CC-PVTZ
  Basis Set:
  Basis Set: CC-PVTZ
  Basis Set:
  @DF-RHF Final Energy:  -388.40018610238383
    Total Energy =                       -388.4001861023833726
  Basis Set: CC-PVTZ
  Basis Set:
  Basis Set: CC-PVTZ
  Basis Set:
  @DF-RHF Final Energy:  -388.41705889637979
    Total Energy =                       -388.4170588963791033
  Basis Set: CC-PVTZ
  Basis Set:
  Basis Set: CC-PVTZ
  Basis Set:
  @DF-RHF Final Energy:  -388.41819397378589
    Total Energy =                       -388.4181939737859466
  Basis Set: CC-PVTZ
  Basis Set:
  Basis Set: CC-PVTZ
  Basis Set:
  @DF-RHF Final Energy:  -388.41831114540810
    Total Energy =                       -388.4183111454084383
  Basis Set: CC-PVTZ
  Basis Set:
  Basis Set: CC-PVTZ
  Basis Set:
  @DF-RHF Final Energy:  -388.41830183301568
    Total Energy =                       -388.4183018330153345
  Basis Set: CC-PVTZ
  Basis Set:
  Basis Set: CC-PVTZ
  Basis Set:
  @DF-RHF Final Energy:  -388.41835747033133
    Total Energy =                       -388.4183574703308750
  Basis Set: CC-PVTZ
  Basis Set:
  Charge       = 0
  Multiplicity = 1
  Basis Set: CC-PVTZ
  Basis Set:

    Orbital Energies (a.u.)
    -----------------------

    Doubly Occupied:

       1A    -20.545295     2A    -11.264931     3A    -11.216592
       4A    -11.214614     5A    -11.214560     6A    -11.213162
       7A    -11.213006     8A    -11.212045     9A    -11.206752
      10A     -1.363150    11A     -1.094623    12A     -1.059109
      13A     -1.009886    14A     -0.947032    15A     -0.896036
      16A     -0.831344    17A     -0.798465    18A     -0.763878
      19A     -0.696038    20A     -0.649303    21A     -0.637370
      22A     -0.615702    23A     -0.607146    24A     -0.588226
      25A     -0.579735    26A     -0.555527    27A     -0.536546
      28A     -0.526980    29A     -0.512378    30A     -0.500305
      31A     -0.484828    32A     -0.476424    33A     -0.468590
      34A     -0.451391    35A     -0.447380    36A     -0.440225
      37A     -0.425866

  @DF-RHF Final Energy:  -388.41835702719953

   => Energetics <=

    Nuclear Repulsion Energy =            462.5475939356154527
    One-Electron Energy =               -1443.4030130164624097
    Two-Electron Energy =                 592.4370620536471961
    DFT Exchange-Correlation Energy =       0.0000000000000000
    Empirical Dispersion Energy =           0.0000000000000000
    PCM Polarization Energy =               0.0000000000000000
    EFP Energy =                            0.0000000000000000
    Total Energy =                       -388.4183570271998178
    Molecular point group: c1
  Basis Set: CC-PVTZ
  Basis Set:

  -Total Gradient:
     Atom            X                  Y                   Z
    ------   -----------------  -----------------  -----------------
       1       -0.000004834842    -0.000024006460     0.000013719951
       2        0.000009128491    -0.000051068674     0.000024313224
       3        0.000009310683     0.000015914563     0.000008781344
       4        0.000023750808     0.000002804121    -0.000001216051
       5       -0.000006008410     0.000018742497    -0.000009544220
       6       -0.000002003975     0.000015145358    -0.000010740581
       7       -0.000013985988     0.000003834101    -0.000043603763
       8        0.000015972250     0.000008522485    -0.000000826341
       9       -0.000010456308     0.000004146095     0.000000791358
      10        0.000019167094    -0.000008498098     0.000060239212
      11        0.000000269623    -0.000001615358    -0.000008241529
      12       -0.000010558475     0.000003340360    -0.000014801873
      13        0.000019286459    -0.000042777981    -0.000078230240
      14        0.000031233512     0.000023123346    -0.000001716709
      15       -0.000021960421    -0.000013418655     0.000007623954
      16       -0.001690064391     0.004622413149    -0.001572478877
      17       -0.000036026360     0.000001753941     0.000031008099
      18        0.000061793787     0.000000533613    -0.000008761630
      19        0.001598492016     0.001329438129     0.004172985880
      20        0.001035755301    -0.004321988862     0.000228509945
      21       -0.000014755347     0.000013040866    -0.000001419886
      22       -0.001029257188    -0.001575837879    -0.002858286617
      23        0.000009922332     0.000007446291    -0.000017713983
      24        0.000016329019    -0.000027465842     0.000023735016
      25       -0.000064362799    -0.000006002477     0.000040297611
      26        0.000027539058     0.000000489823     0.000012007207
      27        0.000026324079     0.000001991547     0.000003569492

  **** Optimization is complete! (in 8 steps) ****
    Final optimized geometry and variables:
    Molecular point group: c1

    Geometry (in Angstrom), charge = 0, multiplicity = 1:

    H            2.279554837087    -2.265391097477    -1.347406403469
    O            3.061196279839    -1.796288179773    -1.572302424033
    C            2.740304979241    -0.628869508903    -2.281882948197
    C            2.119534435548     0.456593715991    -1.415319737360
    H            3.672141940782    -0.270632640508    -2.698194103542
    H            2.082697425372    -0.861363390856    -3.117285006114
    C            0.753283553273     0.093490932794    -0.837796817894
    H            2.807613348664     0.689563447383    -0.608262940950
    H            2.027038450242     1.355150621106    -2.020623184224
    C            0.145930978573     1.221882828791    -0.005205031753
    H            0.848263650720    -0.797858579747    -0.227089347311
    H            0.073537062876    -0.155025003505    -1.651046355139
    C           -1.263768740595     0.954039104657     0.528340220774
    H            0.807976237769     1.447806472931     0.827160343537
    H            0.113199726558     2.119379137238    -0.616629136618
    C           -1.332064242640    -0.149636569165     1.583319751915
    H           -1.643688648117     1.878964031670     0.947182677704
    H           -1.916086814213     0.708256413760    -0.305629402615
    C           -2.718368033974    -0.441971657432     2.213459688673
    H           -0.618417972977     0.064343704490     2.373908589905
    H           -0.975464244353    -1.073571908310     1.142015907967
    C           -3.816466115049     0.600072411254     2.003481015077
    H           -3.086167156264    -1.382521243969     1.815925396612
    H           -2.590230256563    -0.605077859919     3.277613512816
    H           -4.041494888836     0.744907573603     0.954329551425
    H           -4.728625985931     0.276023778360     2.491601700469
    H           -3.550032540372     1.564410035946     2.421882188439

  Mulliken Charges: (a.u.)
   Center  Symbol    Alpha    Beta     Spin     Total
       1     H     0.39229  0.39229  0.00000  0.21541
       2     O     4.20553  4.20553  0.00000 -0.41105
       3     C     2.97990  2.97990  0.00000  0.04020
       4     C     3.08947  3.08947  0.00000 -0.17893
       5     H     0.44856  0.44856  0.00000  0.10288
       6     H     0.46974  0.46974  0.00000  0.06052
       7     C     3.10250  3.10250  0.00000 -0.20500
       8     H     0.45077  0.45077  0.00000  0.09845
       9     H     0.45526  0.45526  0.00000  0.08948
      10     C     3.09971  3.09971  0.00000 -0.19942
      11     H     0.45571  0.45571  0.00000  0.08859
      12     H     0.45407  0.45407  0.00000  0.09186
      13     C     3.09965  3.09965  0.00000 -0.19930
      14     H     0.45145  0.45145  0.00000  0.09710
      15     H     0.44800  0.44800  0.00000  0.10399
      16     C     3.10014  3.10014  0.00000 -0.20029
      17     H     0.44389  0.44389  0.00000  0.11223
      18     H     0.45213  0.45213  0.00000  0.09575
      19     C     3.08553  3.08553  0.00000 -0.17105
      20     H     0.45102  0.45102  0.00000  0.09795
      21     H     0.45245  0.45245  0.00000  0.09509
      22     C     3.15771  3.15771  0.00000 -0.31541
      23     H     0.45364  0.45364  0.00000  0.09272
      24     H     0.44996  0.44996  0.00000  0.10007
      25     H     0.45251  0.45251  0.00000  0.09498
      26     H     0.44477  0.44477  0.00000  0.11046
      27     H     0.45364  0.45364  0.00000  0.09273

   Total alpha = 37.00000, Total beta = 37.00000, Total charge = -0.00000

*** Psi4 exiting successfully. Buy a developer a beer!
