  ==> Input File <==

--------------------------------------------------------------------------
set {
	reference rhf
	basis 6-31G*
}

set_num_threads( 1 )
memory 2 gb

molecule MOL {
0 1

H	 -2.047595	 -0.728869	 -0.569114
O	 -2.035884	 -0.060112	 0.102722
C	 -0.955155	 0.788182	 -0.092531
C	 0.353668	 0.040312	 -0.004810
H	 -0.985057	 1.290372	 -1.054184
H	 -0.974469	 1.533190	 0.688632
F	 0.394464	 -0.937475	 -0.903053
F	 1.368604	 0.853376	 -0.249821
F	 0.546173	 -0.502608	 1.179981

	symmetry c1
}
set optking {
	frozen_dihedral = ("
		7 4 3 5
	")
}

ee = energy('scf')
oeprop('DIPOLE', 'QUADRUPOLE', 'MULLIKEN_CHARGES')
f=open( 'psi4out.xyz', 'w' )
f.write( "9  " )
f.write( str(ee) + "\n" )
f.write( MOL.save_string_xyz() )
f.close()
--------------------------------------------------------------------------

    Molecular point group: c1

    Geometry (in Angstrom), charge = 0, multiplicity = 1:

       Center              X                  Y                   Z               Mass
    ------------   -----------------  -----------------  -----------------  -----------------
           H         -2.048112730129    -0.728319370466    -0.569593410246     1.007825032070
           O         -2.036401730129    -0.059562370466     0.102242589754    15.994914619560
           C         -0.955672730129     0.788731629534    -0.093010410246    12.000000000000
           C          0.353150269871     0.040861629534    -0.005289410246    12.000000000000
           H         -0.985574730129     1.290921629534    -1.054663410246     1.007825032070
           H         -0.974986730129     1.533739629534     0.688152589754     1.007825032070
           F          0.393946269871    -0.936925370466    -0.903532410246    18.998403224000
           F          1.368086269871     0.853925629534    -0.250300410246    18.998403224000
           F          0.545655269871    -0.502058370466     1.179501589754    18.998403224000

  Charge       = 0
  Multiplicity = 1
  Basis Set: 6-31G*
  Basis Set:

    Orbital Energies (a.u.)
    -----------------------

    Doubly Occupied:

       1A    -26.345495     2A    -26.344116     3A    -26.340198
       4A    -20.590245     5A    -11.501253     6A    -11.309707
       7A     -1.741362     8A     -1.640265     9A     -1.637894
      10A     -1.402569    11A     -1.048516    12A     -0.924558
      13A     -0.831661    14A     -0.829695    15A     -0.807718
      16A     -0.725852    17A     -0.712869    18A     -0.696507
      19A     -0.665638    20A     -0.660164    21A     -0.643685
      22A     -0.629112    23A     -0.617236    24A     -0.530527
      25A     -0.480272

  @DF-RHF Final Energy:  -450.66277436482278

   => Energetics <=

    Nuclear Repulsion Energy =            277.1957999177532201
    One-Electron Energy =               -1176.4029315689065243
    Two-Electron Energy =                 448.5443572863307509
    DFT Exchange-Correlation Energy =       0.0000000000000000
    Empirical Dispersion Energy =           0.0000000000000000
    PCM Polarization Energy =               0.0000000000000000
    EFP Energy =                            0.0000000000000000
    Total Energy =                       -450.6627743648225533

  Mulliken Charges: (a.u.)
   Center  Symbol    Alpha    Beta     Spin     Total
       1     H     0.27258  0.27258  0.00000  0.45484
       2     O     4.36232  4.36232  0.00000 -0.72465
       3     C     3.05029  3.05029  0.00000 -0.10059
       4     C     2.46695  2.46695  0.00000  1.06610
       5     H     0.40980  0.40980  0.00000  0.18039
       6     H     0.39555  0.39555  0.00000  0.20891
       7     F     4.68622  4.68622  0.00000 -0.37243
       8     F     4.68146  4.68146  0.00000 -0.36292
       9     F     4.67482  4.67482  0.00000 -0.34965

   Total alpha = 25.00000, Total beta = 25.00000, Total charge =  0.00000
