                              Psi4 1.0.54 Driver

  ==> Input File <==

--------------------------------------------------------------------------
set {
	reference rhf
	basis cc-pvtz
}

set_num_threads( 4 )
memory 2 gb

molecule MOL {
0 1

O	 1.309129	 0.980223	 -0.856223
C	 0.860843	 0.273204	 -0.013120
C	 -0.623368	 -0.117453	 -0.005652
C	 1.763952	 -0.252805	 1.084938
C	 -0.892588	 -1.253841	 -1.002900
C	 -1.473463	 1.100646	 -0.372896
C	 -0.981836	 -0.579025	 1.418506
H	 -0.609333	 -0.970024	 -2.010649
H	 -1.950451	 -1.487353	 -1.013175
H	 -0.360848	 -2.161259	 -0.746463
H	 -1.232203	 1.461623	 -1.364827
H	 -2.524364	 0.834451	 -0.354500
H	 -1.312381	 1.914833	 0.318657
H	 -2.035706	 -0.826342	 1.468082
H	 -0.425078	 -1.458934	 1.716857
H	 -0.788494	 0.205047	 2.140903
H	 2.029654	 -1.280908	 0.865460
H	 2.664912	 0.340695	 1.107231
H	 1.288189	 -0.239226	 2.055864

	symmetry c1
}
set optking {
	frozen_dihedral = ("
		1 2 3 5
	")
}

ee,wfn = optimize('scf', return_wfn=True)
oeprop( wfn, 'DIPOLE', 'QUADRUPOLE', 'MULLIKEN_CHARGES')
f=open( 'psi4out.xyz', 'w' )
f.write( "19  " )
f.write( str(ee) + "\n" )
f.write( MOL.save_string_xyz() )
f.close()
--------------------------------------------------------------------------

    Molecular point group: c1
  Charge       = 0
  Multiplicity = 1
  Basis Set: CC-PVTZ
  Basis Set:
  @DF-RHF Final Energy:  -309.16860687268399
    Total Energy =                       -309.1686068726838812
    Molecular point group: c1
  Basis Set: CC-PVTZ
  Basis Set:
  Basis Set: CC-PVTZ
  Basis Set:
  @DF-RHF Final Energy:  -308.92643384464594
    Total Energy =                       -308.9264338446455440
  Basis Set: CC-PVTZ
  Basis Set:
  Basis Set: CC-PVTZ
  Basis Set:
  @DF-RHF Final Energy:  -309.05977974310724
    Total Energy =                       -309.0597797431072422
  Basis Set: CC-PVTZ
  Basis Set:
  Basis Set: CC-PVTZ
  Basis Set:
  @DF-RHF Final Energy:  -309.15597196820863
    Total Energy =                       -309.1559719682088030
  Basis Set: CC-PVTZ
  Basis Set:
  @DF-RHF Final Energy:  -309.17020178090911
    Total Energy =                       -309.1702017809089966
  @DF-RHF Final Energy:  -309.17256990232471
    Total Energy =                       -309.1725699023247671
  @DF-RHF Final Energy:  -309.16866661610987
    Total Energy =                       -309.1686666161099311
  @DF-RHF Final Energy:  -309.17246174744093
    Total Energy =                       -309.1724617474406500
  @DF-RHF Final Energy:  -309.17338704327392
    Total Energy =                       -309.1733870432739195
  @DF-RHF Final Energy:  -309.17345129594520
    Total Energy =                       -309.1734512959453127
  @DF-RHF Final Energy:  -309.17350307786319
    Total Energy =                       -309.1735030778631312
  Basis Set: CC-PVTZ
  Basis Set:
  @DF-RHF Final Energy:  -309.17358419902979
    Total Energy =                       -309.1735841990300742
  Basis Set: CC-PVTZ
  Basis Set:
  Basis Set: CC-PVTZ
  Basis Set:
  @DF-RHF Final Energy:  -309.17358186991640
    Total Energy =                       -309.1735818699165179
  Basis Set: CC-PVTZ
  Basis Set:
  Basis Set: CC-PVTZ
  Basis Set:
  @DF-RHF Final Energy:  -309.17358775659136
    Total Energy =                       -309.1735877565914734
  Basis Set: CC-PVTZ
  Basis Set:
  Charge       = 0
  Multiplicity = 1
  Basis Set: CC-PVTZ
  Basis Set:

    Orbital Energies (a.u.)
    -----------------------

    Doubly Occupied:

       1A    -20.536682     2A    -11.318298     3A    -11.245585
       4A    -11.225840     5A    -11.220520     6A    -11.219826
       7A    -11.209032     8A     -1.398337     9A     -1.109778
      10A     -1.004309    11A     -0.945494    12A     -0.937427
      13A     -0.834587    14A     -0.705610    15A     -0.666863
      16A     -0.633983    17A     -0.623335    18A     -0.592401
      19A     -0.588794    20A     -0.570597    21A     -0.549729
      22A     -0.546836    23A     -0.524897    24A     -0.514165
      25A     -0.503085    26A     -0.473235    27A     -0.464202
      28A     -0.393911

  @DF-RHF Final Energy:  -309.17358842099242

   => Energetics <=

    Nuclear Repulsion Energy =            326.8894389967431948
    One-Electron Energy =               -1067.0113433189635543
    Two-Electron Energy =                 430.9483159012282272
    DFT Exchange-Correlation Energy =       0.0000000000000000
    Empirical Dispersion Energy =           0.0000000000000000
    PCM Polarization Energy =               0.0000000000000000
    EFP Energy =                            0.0000000000000000
    Total Energy =                       -309.1735884209921892
    Molecular point group: c1
  Basis Set: CC-PVTZ
  Basis Set:

  -Total Gradient:
     Atom            X                  Y                   Z
    ------   -----------------  -----------------  -----------------
       1       -0.000460043540    -0.000916384761    -0.000887101775
       2        0.000546820495     0.001485332663     0.001132271809
       3        0.000165617623    -0.001404816174     0.000168205259
       4       -0.000027791341    -0.000023611159    -0.000020411481
       5       -0.000233364639     0.000821163682    -0.000394417088
       6        0.000012461020     0.000003146966    -0.000028413932
       7        0.000026375176    -0.000009891799     0.000006480913
       8        0.000006442096     0.000045451597    -0.000069200813
       9       -0.000080763402    -0.000001229463     0.000053630484
      10        0.000032055260    -0.000052513485     0.000000770797
      11        0.000006513708     0.000019618627    -0.000003995597
      12       -0.000019347991    -0.000002460152    -0.000003457599
      13        0.000008723771     0.000015417472     0.000018877834
      14        0.000005428979    -0.000002394253    -0.000009336120
      15        0.000012432332     0.000000843281     0.000005334596
      16       -0.000005348853    -0.000001744757     0.000011848010
      17        0.000005828575     0.000006372866     0.000006536289
      18        0.000001729674     0.000007283617     0.000004535640
      19       -0.000003768942     0.000010415230     0.000007842775

  **** Optimization is complete! (in 15 steps) ****
    Final optimized geometry and variables:
    Molecular point group: c1

    Geometry (in Angstrom), charge = 0, multiplicity = 1:

    O            0.939236549376     0.891398186021    -1.304322778644
    C            0.786665192878     0.091040656832    -0.439145373684
    C           -0.556681159665    -0.000416150052     0.304432323538
    C            1.892201076208    -0.889016445477    -0.111548327945
    C           -1.500911554600    -0.801639872423    -0.609696401696
    C           -1.114225710228     1.414648056525     0.497030906118
    C           -0.441576847935    -0.693087527848     1.667046405017
    H           -1.619173968955    -0.307874209074    -1.565091256973
    H           -2.476723129827    -0.891309251727    -0.146238497713
    H           -1.129170251135    -1.804987798581    -0.790436917706
    H           -1.208104341955     1.927761247517    -0.448046213620
    H           -2.090811248433     1.366532592688     0.965514452772
    H           -0.466848180881     2.006473966969     1.134676664069
    H           -1.412619701976    -0.711211444685     2.147083629720
    H           -0.102525874047    -1.717819024575     1.583026346705
    H            0.237643121467    -0.166116748824     2.327817680316
    H            1.536014249893    -1.910132357919    -0.177917833575
    H            2.704931400639    -0.741837228416    -0.805552246773
    H            2.248299042183    -0.736808763657     0.900158056016

  Mulliken Charges: (a.u.)
   Center  Symbol    Alpha    Beta     Spin     Total
       1     O     4.18009  4.18009  0.00000 -0.36019
       2     C     2.84801  2.84801  0.00000  0.30398
       3     C     3.00631  3.00631  0.00000 -0.01261
       4     C     3.16427  3.16427  0.00000 -0.32853
       5     C     3.15444  3.15444  0.00000 -0.30888
       6     C     3.15288  3.15288  0.00000 -0.30575
       7     C     3.16538  3.16538  0.00000 -0.33077
       8     H     0.43845  0.43845  0.00000  0.12310
       9     H     0.44779  0.44779  0.00000  0.10441
      10     H     0.44852  0.44852  0.00000  0.10296
      11     H     0.43507  0.43507  0.00000  0.12986
      12     H     0.45136  0.45136  0.00000  0.09729
      13     H     0.44990  0.44990  0.00000  0.10020
      14     H     0.44257  0.44257  0.00000  0.11486
      15     H     0.44559  0.44559  0.00000  0.10882
      16     H     0.44465  0.44465  0.00000  0.11070
      17     H     0.44641  0.44641  0.00000  0.10718
      18     H     0.43175  0.43175  0.00000  0.13650
      19     H     0.44657  0.44657  0.00000  0.10685

   Total alpha = 28.00000, Total beta = 28.00000, Total charge = -0.00000

*** Psi4 exiting successfully. Buy a developer a beer!
