                              Psi4 1.0.54 Driver

  ==> Input File <==

--------------------------------------------------------------------------
set {
	reference rhf
	basis cc-pvtz
}

set_num_threads( 4 )
memory 2 gb

molecule MOL {
0 1

H	 -3.193048	 -2.360580	 2.311751
C	 -2.861424	 -1.603265	 1.631452
C	 -1.674165	 -1.701927	 1.085533
H	 -3.514387	 -0.781241	 1.413017
O	 -1.189946	 -0.765863	 0.237511
H	 -1.015107	 -2.525714	 1.290823
C	 0.026572	 -0.995256	 -0.379403
C	 1.057223	 0.049888	 -0.004615
H	 -0.054361	 -1.010670	 -1.459674
H	 0.397526	 -1.952058	 -0.044198
F	 2.203233	 -0.234060	 -0.590375
F	 0.698147	 1.254887	 -0.392621
F	 1.266440	 0.094219	 1.288722

	symmetry c1
}
set optking {
	frozen_dihedral = ("
		3 5 7 9
	")
}

ee,wfn = optimize('scf', return_wfn=True)
oeprop( wfn, 'DIPOLE', 'QUADRUPOLE', 'MULLIKEN_CHARGES')
f=open( 'psi4out.xyz', 'w' )
f.write( "13  " )
f.write( str(ee) + "\n" )
f.write( MOL.save_string_xyz() )
f.close()
--------------------------------------------------------------------------

    Molecular point group: c1
  Charge       = 0
  Multiplicity = 1
  Basis Set: CC-PVTZ
  Basis Set:
  @DF-RHF Final Energy:  -527.74009196318161
    Total Energy =                       -527.7400919631818397
    Molecular point group: c1
  Basis Set: CC-PVTZ
  Basis Set:
  Basis Set: CC-PVTZ
  Basis Set:
  @DF-RHF Final Energy:  -527.74061924163402
    Total Energy =                       -527.7406192416337944
  Basis Set: CC-PVTZ
  Basis Set:
  Basis Set: CC-PVTZ
  Basis Set:
  @DF-RHF Final Energy:  -527.74127182402412
    Total Energy =                       -527.7412718240240110
  Basis Set: CC-PVTZ
  Basis Set:
  Basis Set: CC-PVTZ
  Basis Set:
  @DF-RHF Final Energy:  -527.74129178959015
    Total Energy =                       -527.7412917895902638
  Basis Set: CC-PVTZ
  Basis Set:
  Basis Set: CC-PVTZ
  Basis Set:
  @DF-RHF Final Energy:  -527.74130085559318
    Total Energy =                       -527.7413008555935221
  Basis Set: CC-PVTZ
  Basis Set:
  Basis Set: CC-PVTZ
  Basis Set:
  @DF-RHF Final Energy:  -527.74130728114324
    Total Energy =                       -527.7413072811432357
  Basis Set: CC-PVTZ
  Basis Set:
  Basis Set: CC-PVTZ
  Basis Set:
  @DF-RHF Final Energy:  -527.74131093725032
    Total Energy =                       -527.7413109372502049
  Basis Set: CC-PVTZ
  Basis Set:
  Charge       = 0
  Multiplicity = 1
  Basis Set: CC-PVTZ
  Basis Set:

    Orbital Energies (a.u.)
    -----------------------

    Doubly Occupied:

       1A    -26.340667     2A    -26.338245     3A    -26.336926
       4A    -20.603611     5A    -11.497315     6A    -11.320294
       7A    -11.300820     8A    -11.215435     9A     -1.749106
      10A     -1.645471    11A     -1.643990    12A     -1.445030
      13A     -1.090445    14A     -1.019973    15A     -0.931090
      16A     -0.844174    17A     -0.838717    18A     -0.818223
      19A     -0.804796    20A     -0.729872    21A     -0.719080
      22A     -0.705862    23A     -0.682847    24A     -0.665993
      25A     -0.660487    26A     -0.649386    27A     -0.637792
      28A     -0.589280    29A     -0.565583    30A     -0.531802
      31A     -0.516853    32A     -0.357936

  @DF-RHF Final Energy:  -527.74131241204623

   => Energetics <=

    Nuclear Repulsion Energy =            409.7480449253526444
    One-Electron Energy =               -1543.3845136543804983
    Two-Electron Energy =                 605.8951563169819110
    DFT Exchange-Correlation Energy =       0.0000000000000000
    Empirical Dispersion Energy =           0.0000000000000000
    PCM Polarization Energy =               0.0000000000000000
    EFP Energy =                            0.0000000000000000
    Total Energy =                       -527.7413124120459997
    Molecular point group: c1
  Basis Set: CC-PVTZ
  Basis Set:

  -Total Gradient:
     Atom            X                  Y                   Z
    ------   -----------------  -----------------  -----------------
       1       -0.000003280568    -0.000022046408    -0.000018808825
       2       -0.000086026559     0.000000300356     0.000040643867
       3       -0.000108347350    -0.000063061733    -0.000306795062
       4       -0.000030963040     0.000010520271     0.000001043287
       5        0.000263710517     0.000057653819     0.000453502907
       6       -0.000005349648    -0.000036943826    -0.000012564269
       7        0.000119600093     0.000499801059    -0.000135152067
       8       -0.000179808677     0.000096161739    -0.000130097324
       9       -0.000141622075    -0.000472420452    -0.000024255311
      10        0.000004274828     0.000006510806    -0.000000475230
      11        0.000087036299    -0.000026614736    -0.000055467438
      12        0.000045531071    -0.000064595235     0.000047308366
      13        0.000035245103     0.000014734346     0.000141117099

  **** Optimization is complete! (in 8 steps) ****
    Final optimized geometry and variables:
    Molecular point group: c1

    Geometry (in Angstrom), charge = 0, multiplicity = 1:

    H           -3.374382398833    -2.011481068503     1.804254231175
    C           -3.011526543389    -1.217519005401     1.184242035827
    C           -1.791135728662    -1.277288647152     0.709252934216
    H           -3.655684243160    -0.385478238889     0.977916067880
    O           -1.262305263733    -0.295761082701    -0.052271748904
    H           -1.137369617714    -2.105869470309     0.914692331353
    C           -0.086891831325    -0.541633479455    -0.741331396985
    C            0.977333280063     0.443720589542    -0.312368760892
    H           -0.249261187565    -0.420653840867    -1.803947302001
    H            0.298445323769    -1.536785337581    -0.560598444611
    F            2.084513372669     0.217025262937    -0.991524361216
    F            0.619646545688     1.685718804014    -0.531385600309
    F            1.260325497373     0.326608528418     0.965800094628

  Mulliken Charges: (a.u.)
   Center  Symbol    Alpha    Beta     Spin     Total
       1     H     0.42486  0.42486  0.00000  0.15028
       2     C     3.19769  3.19769  0.00000 -0.39539
       3     C     2.96258  2.96258  0.00000  0.07484
       4     H     0.42426  0.42426  0.00000  0.15149
       5     O     4.14353  4.14353  0.00000 -0.28705
       6     H     0.43525  0.43525  0.00000  0.12951
       7     C     3.00798  3.00798  0.00000 -0.01595
       8     C     2.67524  2.67524  0.00000  0.64953
       9     H     0.44201  0.44201  0.00000  0.11597
      10     H     0.45776  0.45776  0.00000  0.08449
      11     F     4.61283  4.61283  0.00000 -0.22566
      12     F     4.60644  4.60644  0.00000 -0.21288
      13     F     4.60959  4.60959  0.00000 -0.21919

   Total alpha = 32.00000, Total beta = 32.00000, Total charge = -0.00000

*** Psi4 exiting successfully. Buy a developer a beer!
