  ==> Input File <==

--------------------------------------------------------------------------
set {
	reference rhf
	basis 6-31G*
}

set_num_threads( 4 )
memory 2 gb

molecule MOL {
0 1

H	 -3.054334	 1.124271	 -1.147120
O	 -3.452007	 0.283848	 -0.965577
C	 -3.181085	 -0.079926	 0.364119
C	 -1.765924	 0.277073	 0.805136
H	 -3.327791	 -1.152017	 0.410903
H	 -3.905698	 0.375695	 1.036898
C	 -0.677594	 -0.417312	 -0.014550
H	 -1.637766	 1.358238	 0.744969
H	 -1.659588	 0.017670	 1.857098
C	 0.738335	 -0.034840	 0.421385
H	 -0.814977	 -0.178223	 -1.064632
H	 -0.802730	 -1.495410	 0.071702
C	 1.822265	 -0.738362	 -0.399735
H	 0.853533	 1.043532	 0.342250
H	 0.871597	 -0.279636	 1.474438
C	 3.258060	 -0.455774	 0.057203
H	 1.718003	 -0.459167	 -1.447053
H	 1.651028	 -1.811884	 -0.354513
C	 3.709143	 0.994797	 -0.123830
H	 3.930637	 -1.101717	 -0.501982
H	 3.365259	 -0.739518	 1.102287
H	 3.601178	 1.310569	 -1.158127
H	 4.753787	 1.110486	 0.148516
H	 3.135362	 1.678896	 0.492569

	symmetry c1
}
set optking {
	frozen_dihedral = ("
		1 2 3 5
	")
}

ee = optimize('scf')
oeprop('DIPOLE', 'QUADRUPOLE', 'MULLIKEN_CHARGES')
f=open( 'psi4out.xyz', 'w' )
f.write( "24  " )
f.write( str(ee) + "\n" )
f.write( MOL.save_string_xyz() )
f.close()
--------------------------------------------------------------------------

    Molecular point group: c1
  Charge       = 0
  Multiplicity = 1
  Basis Set: 6-31G*
  Basis Set:
  @DF-RHF Final Energy:  -349.24660776117679
    Total Energy =                       -349.2466077611764490
    Molecular point group: c1
  Basis Set: 6-31G*
  Basis Set:
  Basis Set: 6-31G*
  Basis Set:
  @DF-RHF Final Energy:  -349.24664011776895
    Total Energy =                       -349.2466401177688340
  Basis Set: 6-31G*
  Basis Set:
  Basis Set: 6-31G*
  Basis Set:
  @DF-RHF Final Energy:  -349.24664826263614
    Total Energy =                       -349.2466482626360857
  Basis Set: 6-31G*
  Basis Set:
  Basis Set: 6-31G*
  Basis Set:
  @DF-RHF Final Energy:  -349.24665440504850
    Total Energy =                       -349.2466544050483890
  Basis Set: 6-31G*
  Basis Set:
  Charge       = 0
  Multiplicity = 1
  Basis Set: 6-31G*
  Basis Set:

    Orbital Energies (a.u.)
    -----------------------

    Doubly Occupied:

       1A    -20.552070     2A    -11.267179     3A    -11.221606
       4A    -11.216060     5A    -11.215900     6A    -11.215277
       7A    -11.214018     8A    -11.209004     9A     -1.359028
      10A     -1.091517    11A     -1.050605    12A     -0.987514
      13A     -0.917189    14A     -0.853379    15A     -0.804029
      16A     -0.778793    17A     -0.667933    18A     -0.656569
      19A     -0.632016    20A     -0.623659    21A     -0.602449
      22A     -0.586964    23A     -0.558856    24A     -0.541629
      25A     -0.516785    26A     -0.513234    27A     -0.499206
      28A     -0.475060    29A     -0.468768    30A     -0.463203
      31A     -0.454452    32A     -0.453276    33A     -0.421140

  @DF-RHF Final Energy:  -349.24665442780457

   => Energetics <=

    Nuclear Repulsion Energy =            384.7055367931296246
    One-Electron Energy =               -1235.7276537264169747
    Two-Electron Energy =                 501.7754625054829489
    DFT Exchange-Correlation Energy =       0.0000000000000000
    Empirical Dispersion Energy =           0.0000000000000000
    PCM Polarization Energy =               0.0000000000000000
    EFP Energy =                            0.0000000000000000
    Total Energy =                       -349.2466544278044580
    Molecular point group: c1
  Basis Set: 6-31G*
  Basis Set:

  -Total Gradient:
     Atom            X                  Y                   Z
    ------   -----------------  -----------------  -----------------
       1        0.002020131833    -0.001058957786    -0.000724577171
       2       -0.002048167960     0.001258944010     0.000761633334
       3       -0.001905719356     0.000045463892     0.000424465414
       4       -0.000004439571     0.000046438551    -0.000015341375
       5        0.001944757272    -0.000249760571    -0.000475199586
       6        0.000010964995    -0.000018309884     0.000009117451
       7       -0.000015718339    -0.000013596092     0.000003211899
       8        0.000013443897    -0.000000739450    -0.000000817851
       9       -0.000007876780    -0.000013974478     0.000011969501
      10       -0.000012573937     0.000011537877    -0.000006772344
      11        0.000000696782    -0.000004967342     0.000010688855
      12       -0.000001030282    -0.000011336583     0.000006125823
      13       -0.000002819545     0.000011402213    -0.000006492191
      14       -0.000009217011    -0.000003579281     0.000002334681
      15        0.000006769660    -0.000004901298    -0.000002510966
      16       -0.000003358861    -0.000001298973     0.000007101255
      17        0.000002066928     0.000006096211    -0.000000460036
      18       -0.000001199292     0.000002259724    -0.000003242489
      19        0.000003802129     0.000001420762    -0.000001560206
      20        0.000000068802    -0.000003690313     0.000001693118
      21        0.000001021473     0.000002930607     0.000002704709
      22        0.000000096793     0.000001369798    -0.000001184921
      23        0.000000666827    -0.000000669884    -0.000000179452
      24        0.000007633542    -0.000002081710    -0.000002707450

  **** Optimization is complete! (in 5 steps) ****
    Final optimized geometry and variables:
    Molecular point group: c1

    Geometry (in Angstrom), charge = 0, multiplicity = 1:

    H           -3.083103652291     1.130082754872    -1.146334455346
    O           -3.466648649198     0.284217755920    -0.961077657504
    C           -3.184909226040    -0.079180161470     0.366849997041
    C           -1.767789098341     0.280289311884     0.801052196530
    H           -3.315362944478    -1.153482028983     0.416630479646
    H           -3.905509163917     0.377336240098     1.042169926009
    C           -0.678491892721    -0.416825257402    -0.016465836691
    H           -1.640140306072     1.362007011185     0.739894298979
    H           -1.658582369638     0.024732331412     1.853099667484
    C            0.737013164592    -0.034555085930     0.420934477115
    H           -0.809671063092    -0.182877170816    -1.069210913686
    H           -0.805772582172    -1.494195512411     0.071339438065
    C            1.821771339781    -0.736947644246    -0.400052646340
    H            0.852353904490     1.043907958003     0.343942006214
    H            0.868518067655    -0.281154569028     1.473664862564
    C            3.256886039082    -0.455328425041     0.059525482496
    H            1.719230538664    -0.455920792215    -1.447047986945
    H            1.650112993712    -1.810474764726    -0.356968825784
    C            3.709280308025     0.994933572577    -0.120541922287
    H            3.929758801205    -1.101718597896    -0.498597983414
    H            3.361935398171    -0.739388624448     1.104709084084
    H            3.603587185633     1.310918575369    -1.154999609284
    H            4.753486410609     1.109675153174     0.153683047509
    H            3.135047720370     1.679469517101     0.494947297670

  Mulliken Charges: (a.u.)
   Center  Symbol    Alpha    Beta     Spin     Total
       1     H     0.28287  0.28287  0.00000  0.43426
       2     O     4.37134  4.37134  0.00000 -0.74268
       3     C     2.98548  2.98548  0.00000  0.02905
       4     C     3.18059  3.18059  0.00000 -0.36118
       5     H     0.41845  0.41845  0.00000  0.16309
       6     H     0.42719  0.42719  0.00000  0.14561
       7     C     3.15098  3.15098  0.00000 -0.30196
       8     H     0.42718  0.42718  0.00000  0.14564
       9     H     0.41921  0.41921  0.00000  0.16159
      10     C     3.15355  3.15355  0.00000 -0.30710
      11     H     0.41673  0.41673  0.00000  0.16654
      12     H     0.42154  0.42154  0.00000  0.15692
      13     C     3.15241  3.15241  0.00000 -0.30481
      14     H     0.42283  0.42283  0.00000  0.15433
      15     H     0.42452  0.42452  0.00000  0.15096
      16     C     3.15245  3.15245  0.00000 -0.30491
      17     H     0.42376  0.42376  0.00000  0.15249
      18     H     0.42164  0.42164  0.00000  0.15672
      19     C     3.24118  3.24118  0.00000 -0.48235
      20     H     0.42067  0.42067  0.00000  0.15866
      21     H     0.42347  0.42347  0.00000  0.15306
      22     H     0.42228  0.42228  0.00000  0.15544
      23     H     0.41911  0.41911  0.00000  0.16178
      24     H     0.42057  0.42057  0.00000  0.15885

   Total alpha = 33.00000, Total beta = 33.00000, Total charge = -0.00000
