  ==> Input File <==

--------------------------------------------------------------------------
set {
	reference rhf
	basis cc-pvtz
}

set_num_threads( 4 )
memory 2 gb

molecule MOL {
0 1

H	 2.448820	 -2.171582	 0.542045
O	 2.767125	 -1.296321	 0.410432
C	 1.757923	 -0.429693	 0.212827
C	 2.088836	 0.901609	 0.004853
C	 0.435853	 -0.820191	 0.211588
H	 3.123015	 1.183753	 0.009760
C	 1.098031	 1.833552	 -0.202846
H	 0.152041	 -1.839926	 0.369347
C	 -0.532034	 0.141680	 0.000000
H	 1.363200	 2.860137	 -0.362709
C	 -0.237083	 1.465610	 -0.208556
N	 -1.937041	 -0.281114	 0.000000
H	 -1.016748	 2.177850	 -0.368431
O	 -2.159542	 -1.446261	 0.000000
O	 -2.764978	 0.565773	 0.000000

	symmetry c1
}
set optking {
	frozen_dihedral = ("
		11 9 12 14
	")
}

ee = optimize('scf')
oeprop('DIPOLE', 'QUADRUPOLE', 'MULLIKEN_CHARGES')
f=open( 'psi4out.xyz', 'w' )
f.write( "15  " )
f.write( str(ee) + "\n" )
f.write( MOL.save_string_xyz() )
f.close()
--------------------------------------------------------------------------

    Molecular point group: c1
  Charge       = 0
  Multiplicity = 1
  Basis Set: CC-PVTZ
  Basis Set:
  @DF-RHF Final Energy:  -509.21895552118951
    Total Energy =                       -509.2189555211896277
    Molecular point group: c1
  Basis Set: CC-PVTZ
  Basis Set:
  Basis Set: CC-PVTZ
  Basis Set:
  @DF-RHF Final Energy:  -509.21714876719312
    Total Energy =                       -509.2171487671932937
  Basis Set: CC-PVTZ
  Basis Set:
  Basis Set: CC-PVTZ
  Basis Set:
  @DF-RHF Final Energy:  -509.21895613683716
    Total Energy =                       -509.2189561368375053
  Basis Set: CC-PVTZ
  Basis Set:
  Charge       = 0
  Multiplicity = 1
  Basis Set: CC-PVTZ
  Basis Set:

    Orbital Energies (a.u.)
    -----------------------

    Doubly Occupied:

       1A    -20.608481     2A    -20.595187     3A    -20.594658
       4A    -15.850574     5A    -11.327783     6A    -11.309070
       7A    -11.263221     8A    -11.262851     9A    -11.258537
      10A    -11.256445    11A     -1.644333    12A     -1.441101
      13A     -1.426805    14A     -1.202600    15A     -1.095586
      16A     -1.048006    17A     -0.966872    18A     -0.881568
      19A     -0.832012    20A     -0.795368    21A     -0.756722
      22A     -0.743224    23A     -0.729185    24A     -0.709615
      25A     -0.677057    26A     -0.636067    27A     -0.621713
      28A     -0.598482    29A     -0.560759    30A     -0.546758
      31A     -0.520723    32A     -0.494917    33A     -0.493559
      34A     -0.460167    35A     -0.380082    36A     -0.346176

  @DF-RHF Final Energy:  -509.21897030998991

   => Energetics <=

    Nuclear Repulsion Energy =            504.7361973829091539
    One-Electron Energy =               -1696.0378092385371929
    Two-Electron Energy =                 682.0826415456382392
    DFT Exchange-Correlation Energy =       0.0000000000000000
    Empirical Dispersion Energy =           0.0000000000000000
    PCM Polarization Energy =               0.0000000000000000
    EFP Energy =                            0.0000000000000000
    Total Energy =                       -509.2189703099896860
    Molecular point group: c1
  Basis Set: CC-PVTZ
  Basis Set:

  -Total Gradient:
     Atom            X                  Y                   Z
    ------   -----------------  -----------------  -----------------
       1       -0.000000626867     0.000003633778     0.000014577036
       2        0.000008517173    -0.000009623032    -0.000013266444
       3       -0.000016793322     0.000004983349     0.000016348748
       4        0.000007198979     0.000000552997    -0.000032318290
       5        0.000009800021    -0.000005244787    -0.000014535035
       6       -0.000002136632     0.000002265111     0.000012236775
       7        0.000002554514    -0.000000192385     0.000014765412
       8        0.000001936825     0.000001046477     0.000005267345
       9       -0.000056049129     0.000192961384     0.000709350490
      10       -0.000003452932     0.000000153595    -0.000005052758
      11        0.000026910368    -0.000148017636    -0.000701280196
      12       -0.000005678470    -0.000052635310     0.000862547182
      13       -0.000009158751     0.000009061995    -0.000003162150
      14        0.000004235961    -0.000015049750    -0.000851775168
      15        0.000032742268     0.000016104210    -0.000013702947

  **** Optimization is complete! (in 4 steps) ****
    Final optimized geometry and variables:
    Molecular point group: c1

    Geometry (in Angstrom), charge = 0, multiplicity = 1:

    H            2.450160941103    -2.176033170884     0.491912908718
    O            2.768069653808    -1.300315302925     0.362589483353
    C            1.758863262198    -0.433996091810     0.163906603869
    C            2.089692126844     0.896948852927    -0.046564273409
    C            0.436758941806    -0.824717045953     0.161886524587
    H            3.123951064481     1.178763531672    -0.044165799143
    C            1.098848775995     1.828881965326    -0.254278155588
    H            0.153066875685    -1.845510236560     0.313499321008
    C           -0.531048780973     0.138334446871    -0.043309009360
    H            1.364297791053     2.854622829565    -0.419029124654
    C           -0.236576959968     1.461956138363    -0.253494078136
    N           -1.935318525578    -0.285213913483    -0.049798268804
    H           -1.016769774352     2.174626561852    -0.409485357952
    O           -2.156687541712    -1.450608775794    -0.048199851216
    O           -2.763333675906     0.561565323538    -0.062600108885

  Mulliken Charges: (a.u.)
   Center  Symbol    Alpha    Beta     Spin     Total
       1     H     0.38410  0.38410  0.00000  0.23180
       2     O     4.16865  4.16865  0.00000 -0.33729
       3     C     2.84379  2.84379  0.00000  0.31242
       4     C     3.09754  3.09754  0.00000 -0.19507
       5     C     3.13407  3.13407  0.00000 -0.26813
       6     H     0.41316  0.41316  0.00000  0.17369
       7     C     3.05664  3.05664  0.00000 -0.11328
       8     H     0.40791  0.40791  0.00000  0.18417
       9     C     2.97915  2.97915  0.00000  0.04171
      10     H     0.41597  0.41597  0.00000  0.16806
      11     C     3.09616  3.09616  0.00000 -0.19232
      12     N     3.25090  3.25090  0.00000  0.49820
      13     H     0.40001  0.40001  0.00000  0.19998
      14     O     4.17784  4.17784  0.00000 -0.35568
      15     O     4.17413  4.17413  0.00000 -0.34825

   Total alpha = 36.00000, Total beta = 36.00000, Total charge =  0.00000
