                              Psi4 1.0.54 Driver

  ==> Input File <==

--------------------------------------------------------------------------
set {
	reference rhf
	basis cc-pvtz
}

set_num_threads( 4 )
memory 2 gb

molecule MOL {
0 1

O	 1.297707	 1.168864	 -0.529441
C	 1.121787	 0.124983	 0.000110
C	 -0.170912	 -0.649867	 -0.000147
O	 2.063335	 -0.511223	 0.677684
C	 -1.413045	 0.229353	 0.001137
H	 -0.152877	 -1.303435	 -0.866175
H	 -0.152278	 -1.305116	 0.864586
C	 -2.702562	 -0.586401	 0.000228
H	 -1.390744	 0.882001	 -0.864365
H	 -1.390549	 0.879837	 0.868264
C	 -3.953810	 0.284959	 -0.000782
H	 -2.717793	 -1.238567	 -0.869075
H	 -2.719108	 -1.238472	 0.869576
H	 -3.983727	 0.924403	 -0.876454
H	 -4.852989	 -0.320147	 -0.001515
H	 -3.985140	 0.924399	 0.874841
C	 3.332582	 0.104921	 0.759518
H	 3.756020	 0.238098	 -0.224958
H	 3.948948	 -0.559616	 1.342915
H	 3.258890	 1.067011	 1.244467

	symmetry c1
}
set optking {
	frozen_dihedral = ("
		1 2 3 6
	")
}

ee,wfn = optimize('scf', return_wfn=True)
oeprop( wfn, 'DIPOLE', 'QUADRUPOLE', 'MULLIKEN_CHARGES')
f=open( 'psi4out.xyz', 'w' )
f.write( "20  " )
f.write( str(ee) + "\n" )
f.write( MOL.save_string_xyz() )
f.close()
--------------------------------------------------------------------------

    Molecular point group: c1
  Charge       = 0
  Multiplicity = 1
  Basis Set: CC-PVTZ
  Basis Set:
  @DF-RHF Final Energy:  -384.08225250771301
    Total Energy =                       -384.0822525077128375
    Molecular point group: c1
  Basis Set: CC-PVTZ
  Basis Set:
  Basis Set: CC-PVTZ
  Basis Set:
  @DF-RHF Final Energy:  -384.08141845079632
    Total Energy =                       -384.0814184507959226
  Basis Set: CC-PVTZ
  Basis Set:
  Basis Set: CC-PVTZ
  Basis Set:
  @DF-RHF Final Energy:  -384.08248076052178
    Total Energy =                       -384.0824807605215483
  Basis Set: CC-PVTZ
  Basis Set:
  Basis Set: CC-PVTZ
  Basis Set:
  @DF-RHF Final Energy:  -384.08262506444640
    Total Energy =                       -384.0826250644455513
  Basis Set: CC-PVTZ
  Basis Set:
  Basis Set: CC-PVTZ
  Basis Set:
  @DF-RHF Final Energy:  -384.08263315434056
    Total Energy =                       -384.0826331543403285
  Basis Set: CC-PVTZ
  Basis Set:
  Charge       = 0
  Multiplicity = 1
  Basis Set: CC-PVTZ
  Basis Set:

    Orbital Energies (a.u.)
    -----------------------

    Doubly Occupied:

       1A    -20.597748     2A    -20.532880     3A    -11.364709
       4A    -11.278605     5A    -11.233520     6A    -11.219378
       7A    -11.218696     8A    -11.209273     9A     -1.472668
      10A     -1.365452    11A     -1.090308    12A     -1.025259
      13A     -0.970278    14A     -0.886957    15A     -0.804866
      16A     -0.771142    17A     -0.698568    18A     -0.685954
      19A     -0.675857    20A     -0.647730    21A     -0.598968
      22A     -0.593420    23A     -0.578268    24A     -0.546448
      25A     -0.535625    26A     -0.524522    27A     -0.501873
      28A     -0.478415    29A     -0.476705    30A     -0.471076
      31A     -0.460134    32A     -0.438398

  @DF-RHF Final Energy:  -384.08263683640507

   => Energetics <=

    Nuclear Repulsion Energy =            381.7755726209804834
    One-Electron Energy =               -1279.8090179974951752
    Two-Electron Energy =                 513.9508085401096196
    DFT Exchange-Correlation Energy =       0.0000000000000000
    Empirical Dispersion Energy =           0.0000000000000000
    PCM Polarization Energy =               0.0000000000000000
    EFP Energy =                            0.0000000000000000
    Total Energy =                       -384.0826368364050722
    Molecular point group: c1
  Basis Set: CC-PVTZ
  Basis Set:

  -Total Gradient:
     Atom            X                  Y                   Z
    ------   -----------------  -----------------  -----------------
       1        0.000369744355    -0.000620405971    -0.000736385621
       2       -0.000658354828     0.001017328285     0.000969887794
       3        0.000607111187    -0.000986299590     0.000232702791
       4        0.000091176408    -0.000003673845     0.000025491991
       5       -0.000006908019    -0.000008298676     0.000020561254
       6       -0.000400033442     0.000639089881    -0.000513296347
       7        0.000009078825    -0.000000361307    -0.000003716550
       8        0.000002195801    -0.000000424331    -0.000005589056
       9       -0.000000183060    -0.000000459392     0.000001454861
      10        0.000005657757    -0.000003282788    -0.000006574874
      11       -0.000000170233    -0.000001661115     0.000003697402
      12       -0.000001177371    -0.000003794989     0.000003592994
      13       -0.000001612365    -0.000001963688     0.000000213518
      14       -0.000000847303     0.000001199535     0.000001355588
      15        0.000001243393     0.000002098767    -0.000000941386
      16       -0.000000722738    -0.000000330437    -0.000003450437
      17       -0.000020761783    -0.000046157329     0.000017412381
      18       -0.000007083016     0.000006037089     0.000003656141
      19        0.000023010485     0.000015169901    -0.000001671302
      20       -0.000011364051    -0.000003810002    -0.000008401142

  **** Optimization is complete! (in 6 steps) ****
    Final optimized geometry and variables:
    Molecular point group: c1

    Geometry (in Angstrom), charge = 0, multiplicity = 1:

    O            1.291820453971     1.159611482921    -0.544532358412
    C            1.131686884693     0.114855177590    -0.010828864669
    C           -0.144013309361    -0.688448136218    -0.050384677817
    O            2.084598816975    -0.505507979173     0.664064611679
    C           -1.395206711161     0.175196559459    -0.166870513475
    H           -0.061788096256    -1.338368315414    -0.917657830827
    H           -0.181510561928    -1.330233818644     0.819520151103
    C           -2.669408352170    -0.657378866856    -0.271558776821
    H           -1.301962391458     0.820162081827    -1.031637077774
    H           -1.460027894879     0.830471645579     0.696742224210
    C           -3.927317922958     0.197415563608    -0.380963692772
    H           -2.601785479578    -1.310637505002    -1.137462634255
    H           -2.750642439183    -1.308150105733     0.594973986014
    H           -3.890701210443     0.835577971693    -1.257224523412
    H           -4.815012417507    -0.419689397036    -0.457050770385
    H           -4.042124485235     0.837011263667     0.487647356479
    C            3.351111174440     0.119751536668     0.719564271451
    H            3.759279681548     0.242567801083    -0.272683471104
    H            3.980021896848    -0.533014605270     1.302851841783
    H            3.277439569397     1.087686601492     1.192419676847

  Mulliken Charges: (a.u.)
   Center  Symbol    Alpha    Beta     Spin     Total
       1     O     4.19968  4.19968  0.00000 -0.39937
       2     C     2.81301  2.81301  0.00000  0.37397
       3     C     3.09073  3.09073  0.00000 -0.18147
       4     O     4.14445  4.14445  0.00000 -0.28890
       5     C     3.08592  3.08592  0.00000 -0.17184
       6     H     0.44476  0.44476  0.00000  0.11048
       7     H     0.43800  0.43800  0.00000  0.12400
       8     C     3.08731  3.08731  0.00000 -0.17462
       9     H     0.44049  0.44049  0.00000  0.11903
      10     H     0.45160  0.45160  0.00000  0.09681
      11     C     3.14909  3.14909  0.00000 -0.29819
      12     H     0.45438  0.45438  0.00000  0.09124
      13     H     0.45512  0.45512  0.00000  0.08976
      14     H     0.45333  0.45333  0.00000  0.09335
      15     H     0.44830  0.44830  0.00000  0.10340
      16     H     0.45437  0.45437  0.00000  0.09125
      17     C     3.03574  3.03574  0.00000 -0.07147
      18     H     0.45439  0.45439  0.00000  0.09122
      19     H     0.44508  0.44508  0.00000  0.10984
      20     H     0.45424  0.45424  0.00000  0.09151

   Total alpha = 32.00000, Total beta = 32.00000, Total charge = -0.00000

*** Psi4 exiting successfully. Buy a developer a beer!
