                              Psi4 1.0.54 Driver

  ==> Input File <==

--------------------------------------------------------------------------
set {
	reference rhf
	basis cc-pvtz
}

set_num_threads( 4 )
memory 2 gb

molecule MOL {
0 1

H	 0.296146	 -2.177421	 0.248759
C	 0.117332	 -1.260559	 0.798803
N	 0.526300	 -0.128137	 0.000000
H	 0.706463	 -1.301830	 1.706141
H	 -0.938448	 -1.242456	 1.077321
C	 -0.247113	 0.037112	 -1.209233
H	 0.486356	 0.705088	 0.545712
H	 -0.996493	 -0.743733	 -1.271440
H	 0.397975	 -0.057351	 -2.073512
H	 -0.763794	 0.997171	 -1.271673

	symmetry c1
}
set optking {
	frozen_dihedral = ("
		2 3 6 8
	")
}

ee,wfn = optimize('scf', return_wfn=True)
oeprop( wfn, 'DIPOLE', 'QUADRUPOLE', 'MULLIKEN_CHARGES')
f=open( 'psi4out.xyz', 'w' )
f.write( "10  " )
f.write( str(ee) + "\n" )
f.write( MOL.save_string_xyz() )
f.close()
--------------------------------------------------------------------------

    Molecular point group: c1
  Charge       = 0
  Multiplicity = 1
  Basis Set: CC-PVTZ
  Basis Set:
  @DF-RHF Final Energy:  -134.28754109437187
    Total Energy =                       -134.2875410943717895
    Molecular point group: c1
  Basis Set: CC-PVTZ
  Basis Set:
  Basis Set: CC-PVTZ
  Basis Set:
  @DF-RHF Final Energy:  -134.28788798640937
    Total Energy =                       -134.2878879864093165
  Basis Set: CC-PVTZ
  Basis Set:
  Basis Set: CC-PVTZ
  Basis Set:
  @DF-RHF Final Energy:  -134.28812428128015
    Total Energy =                       -134.2881242812800622
  Basis Set: CC-PVTZ
  Basis Set:
  Basis Set: CC-PVTZ
  Basis Set:
  @DF-RHF Final Energy:  -134.28812685980679
    Total Energy =                       -134.2881268598067095
  Basis Set: CC-PVTZ
  Basis Set:
  Charge       = 0
  Multiplicity = 1
  Basis Set: CC-PVTZ
  Basis Set:

    Orbital Energies (a.u.)
    -----------------------

    Doubly Occupied:

       1A    -15.529275     2A    -11.234420     3A    -11.233935
       4A     -1.196002     5A     -0.948021     6A     -0.855158
       7A     -0.660559     8A     -0.610149     9A     -0.588667
      10A     -0.545811    11A     -0.510250    12A     -0.506141
      13A     -0.358778

  @DF-RHF Final Energy:  -134.28812734295749

   => Energetics <=

    Nuclear Repulsion Energy =             84.4609837212506420
    One-Electron Energy =                -347.9438941306415813
    Two-Electron Energy =                 129.1947830664334731
    DFT Exchange-Correlation Energy =       0.0000000000000000
    Empirical Dispersion Energy =           0.0000000000000000
    PCM Polarization Energy =               0.0000000000000000
    EFP Energy =                            0.0000000000000000
    Total Energy =                       -134.2881273429574378
    Molecular point group: c1
  Basis Set: CC-PVTZ
  Basis Set:

  -Total Gradient:
     Atom            X                  Y                   Z
    ------   -----------------  -----------------  -----------------
       1        0.000000832505    -0.000011597736    -0.000003116688
       2       -0.000365362026     0.000302009194     0.000281642911
       3        0.000626477664    -0.000559285648    -0.000497123127
       4        0.000015580827    -0.000000559107     0.000001833793
       5        0.000005346046     0.000002943436    -0.000007066563
       6       -0.000725803928     0.000683055691     0.000521609339
       7       -0.000000360936     0.000025931375     0.000026809100
       8        0.000423716927    -0.000440119786    -0.000345634451
       9        0.000013354272    -0.000016047959     0.000016835032
      10        0.000006218650     0.000013670540     0.000004210655

  **** Optimization is complete! (in 5 steps) ****
    Final optimized geometry and variables:
    Molecular point group: c1

    Geometry (in Angstrom), charge = 0, multiplicity = 1:

    H            0.183371696202    -1.726631718953     0.447037834342
    C            0.060644573418    -0.783761427680     0.967150754517
    N            0.422920870039     0.309303665243     0.093870448796
    H            0.721831019201    -0.797402909901     1.824681601076
    H           -0.967450896372    -0.736928918418     1.331292769951
    C           -0.423306968328     0.470602352809    -1.078390196307
    H            0.465142269645     1.157503380413     0.611246901747
    H           -1.208740481794    -0.277616788069    -1.103886886518
    H            0.151516319676     0.369056934808    -1.992544476755
    H           -0.903721624459     1.443178011180    -1.097587663000

  Mulliken Charges: (a.u.)
   Center  Symbol    Alpha    Beta     Spin     Total
       1     H     0.45641  0.45641  0.00000  0.08719
       2     C     3.08281  3.08281  0.00000 -0.16562
       3     N     3.63352  3.63352  0.00000 -0.26704
       4     H     0.45330  0.45330  0.00000  0.09341
       5     H     0.47410  0.47410  0.00000  0.05181
       6     C     3.07703  3.07703  0.00000 -0.15405
       7     H     0.43991  0.43991  0.00000  0.12018
       8     H     0.46558  0.46558  0.00000  0.06885
       9     H     0.45614  0.45614  0.00000  0.08772
      10     H     0.46122  0.46122  0.00000  0.07756

   Total alpha = 13.00000, Total beta = 13.00000, Total charge = -0.00000

*** Psi4 exiting successfully. Buy a developer a beer!
