                              Psi4 1.0.54 Driver

  ==> Input File <==

--------------------------------------------------------------------------
set {
	reference rhf
	basis cc-pvtz
}

set_num_threads( 4 )
memory 2 gb

molecule MOL {
0 1

O	 -2.475682	 -0.963240	 -0.249720
C	 -1.922978	 0.063265	 -0.045005
C	 -2.583201	 1.412932	 -0.075977
O	 -0.637375	 0.157174	 0.243149
H	 -2.103369	 2.035254	 -0.820420
H	 -3.629599	 1.297979	 -0.307222
H	 -2.464221	 1.898228	 0.884179
C	 0.162530	 -1.009518	 0.097799
C	 1.587210	 -0.664190	 0.477086
H	 0.096803	 -1.356267	 -0.924704
H	 -0.233803	 -1.785900	 0.736810
C	 2.256770	 0.342732	 -0.454344
H	 2.154716	 -1.590834	 0.479041
H	 1.598751	 -0.289614	 1.496104
C	 3.698146	 0.643205	 -0.057145
H	 2.235038	 -0.042575	 -1.470299
H	 1.683491	 1.262594	 -0.461300
H	 4.150202	 1.356548	 -0.736242
H	 4.305463	 -0.255904	 -0.069842
H	 3.749130	 1.061068	 0.942759

	symmetry c1
}
set optking {
	frozen_dihedral = ("
		1 2 4 8
	")
}

ee,wfn = optimize('scf', return_wfn=True)
oeprop( wfn, 'DIPOLE', 'QUADRUPOLE', 'MULLIKEN_CHARGES')
f=open( 'psi4out.xyz', 'w' )
f.write( "20  " )
f.write( str(ee) + "\n" )
f.write( MOL.save_string_xyz() )
f.close()
--------------------------------------------------------------------------

    Molecular point group: c1
  Charge       = 0
  Multiplicity = 1
  Basis Set: CC-PVTZ
  Basis Set:
  @DF-RHF Final Energy:  -384.08695294729944
    Total Energy =                       -384.0869529472993236
    Molecular point group: c1
  Basis Set: CC-PVTZ
  Basis Set:
  Basis Set: CC-PVTZ
  Basis Set:
  @DF-RHF Final Energy:  -384.08562709227806
    Total Energy =                       -384.0856270922785143
  Basis Set: CC-PVTZ
  Basis Set:
  Basis Set: CC-PVTZ
  Basis Set:
  @DF-RHF Final Energy:  -384.08700772802376
    Total Energy =                       -384.0870077280234227
  Basis Set: CC-PVTZ
  Basis Set:
  Basis Set: CC-PVTZ
  Basis Set:
  @DF-RHF Final Energy:  -384.08703022200945
    Total Energy =                       -384.0870302220096164
  Basis Set: CC-PVTZ
  Basis Set:
  @DF-RHF Final Energy:  -384.08703434853481
    Total Energy =                       -384.0870343485349849
  Basis Set: CC-PVTZ
  Basis Set:
  @DF-RHF Final Energy:  -384.08703660042642
    Total Energy =                       -384.0870366004262451
  Basis Set: CC-PVTZ
  Basis Set:
  Basis Set: CC-PVTZ
  Basis Set:
  @DF-RHF Final Energy:  -384.08703940014703
    Total Energy =                       -384.0870394001470913
  Basis Set: CC-PVTZ
  Basis Set:
  Basis Set: CC-PVTZ
  Basis Set:
  @DF-RHF Final Energy:  -384.08704045739790
    Total Energy =                       -384.0870404573977339
  Basis Set: CC-PVTZ
  Basis Set:
  Charge       = 0
  Multiplicity = 1
  Basis Set: CC-PVTZ
  Basis Set:

    Orbital Energies (a.u.)
    -----------------------

    Doubly Occupied:

       1A    -20.593879     2A    -20.532910     3A    -11.366759
       4A    -11.280446     5A    -11.231745     6A    -11.223679
       7A    -11.219152     8A    -11.211831     9A     -1.470744
      10A     -1.365304    11A     -1.087306    12A     -1.029344
      13A     -0.982517    14A     -0.881422    15A     -0.812183
      16A     -0.777337    17A     -0.692823    18A     -0.686236
      19A     -0.669643    20A     -0.633213    21A     -0.602383
      22A     -0.594472    23A     -0.572920    24A     -0.553870
      25A     -0.545574    26A     -0.530510    27A     -0.514043
      28A     -0.483604    29A     -0.476374    30A     -0.475397
      31A     -0.451269    32A     -0.441878

  @DF-RHF Final Energy:  -384.08704056341196

   => Energetics <=

    Nuclear Repulsion Energy =            385.8277991810890626
    One-Electron Energy =               -1287.8481479594402117
    Two-Electron Energy =                 517.9333082149395295
    DFT Exchange-Correlation Energy =       0.0000000000000000
    Empirical Dispersion Energy =           0.0000000000000000
    PCM Polarization Energy =               0.0000000000000000
    EFP Energy =                            0.0000000000000000
    Total Energy =                       -384.0870405634116196
    Molecular point group: c1
  Basis Set: CC-PVTZ
  Basis Set:

  -Total Gradient:
     Atom            X                  Y                   Z
    ------   -----------------  -----------------  -----------------
       1       -0.000826093798    -0.000484049211     0.003251579744
       2        0.001583701418     0.001270879357    -0.006153169324
       3       -0.000006304179    -0.000032661112     0.000112151444
       4       -0.001306325494    -0.001612289071     0.005103649435
       5        0.000000258785    -0.000023631883     0.000016658787
       6       -0.000020797287     0.000005996039    -0.000000449609
       7       -0.000001149551    -0.000013916678    -0.000027037840
       8        0.000573497336     0.000891315057    -0.002312209286
       9        0.000003626485     0.000004345358     0.000002730938
      10        0.000004064644    -0.000001226728     0.000014834897
      11       -0.000000879481     0.000007114168    -0.000002457101
      12       -0.000002792536    -0.000018255483    -0.000008388569
      13       -0.000002747516     0.000010441865    -0.000003890678
      14        0.000002840525    -0.000005142088    -0.000009526763
      15        0.000005308602     0.000010369990     0.000009384031
      16       -0.000000035584     0.000003466158     0.000012016861
      17       -0.000000027427    -0.000009391187    -0.000003064449
      18       -0.000004110822    -0.000006180141     0.000009526808
      19       -0.000004533066     0.000008948534    -0.000002135208
      20        0.000002498946    -0.000006132945    -0.000010204117

  **** Optimization is complete! (in 9 steps) ****
    Final optimized geometry and variables:
    Molecular point group: c1

    Geometry (in Angstrom), charge = 0, multiplicity = 1:

    O           -2.458117763485    -0.936132681778    -0.387492268141
    C           -1.916736333960     0.064618133569    -0.062087126512
    C           -2.583764917829     1.407548468907     0.031734557867
    O           -0.645337146205     0.125760321676     0.293093219117
    H           -2.130695322225     2.084509928913    -0.681670233715
    H           -3.636305790402     1.304303240041    -0.176255004366
    H           -2.434334280446     1.822714193412     1.019590374960
    C            0.160309856352    -1.025758778537     0.075859537947
    C            1.585726063125    -0.694693024445     0.465045940755
    H            0.089245970532    -1.311192020516    -0.965387007111
    H           -0.225638955903    -1.841697102610     0.669890362011
    C            2.244250918980     0.368275925120    -0.410056890634
    H            2.158179134422    -1.616560525809     0.409800301085
    H            1.601511091564    -0.379993603996     1.503991263225
    C            3.683649248111     0.659038081951     0.000893759708
    H            2.223978499702     0.039973281243    -1.445905449338
    H            1.663048147792     1.281913298898    -0.364524805099
    H            4.127495301627     1.414125970925    -0.637211251360
    H            4.298989746052    -0.232230102833    -0.064260420315
    H            3.733063079217     1.019568330456     1.022892551342

  Mulliken Charges: (a.u.)
   Center  Symbol    Alpha    Beta     Spin     Total
       1     O     4.19674  4.19674  0.00000 -0.39347
       2     C     2.80875  2.80875  0.00000  0.38249
       3     C     3.13840  3.13840  0.00000 -0.27680
       4     O     4.15402  4.15402  0.00000 -0.30803
       5     H     0.44693  0.44693  0.00000  0.10613
       6     H     0.43761  0.43761  0.00000  0.12479
       7     H     0.44503  0.44503  0.00000  0.10994
       8     C     2.99339  2.99339  0.00000  0.01321
       9     C     3.08434  3.08434  0.00000 -0.16867
      10     H     0.45274  0.45274  0.00000  0.09451
      11     H     0.44302  0.44302  0.00000  0.11396
      12     C     3.08636  3.08636  0.00000 -0.17272
      13     H     0.45148  0.45148  0.00000  0.09705
      14     H     0.45149  0.45149  0.00000  0.09702
      15     C     3.15015  3.15015  0.00000 -0.30030
      16     H     0.45527  0.45527  0.00000  0.08947
      17     H     0.44733  0.44733  0.00000  0.10534
      18     H     0.44741  0.44741  0.00000  0.10518
      19     H     0.45537  0.45537  0.00000  0.08926
      20     H     0.45418  0.45418  0.00000  0.09165

   Total alpha = 32.00000, Total beta = 32.00000, Total charge =  0.00000

*** Psi4 exiting successfully. Buy a developer a beer!
