  ==> Input File <==

--------------------------------------------------------------------------
set {
	reference rhf
	basis cc-pvtz
}

set_num_threads( 4 )
memory 2 gb

molecule MOL {
0 1

O	 0.074770	 1.259872	 0.000487
C	 0.029490	 0.077183	 0.000078
C	 -1.232113	 -0.748027	 0.000015
O	 1.106773	 -0.690081	 -0.000204
C	 -2.501422	 0.088592	 -0.000052
H	 -1.188777	 -1.400384	 -0.865133
H	 -1.188857	 -1.400312	 0.865225
H	 -2.548170	 0.725504	 -0.873205
H	 -3.371613	 -0.556398	 -0.000040
H	 -2.548215	 0.725571	 0.873047
C	 2.319758	 -0.105364	 -0.429638
H	 2.236961	 0.238442	 -1.450019
H	 3.065799	 -0.879966	 -0.357247
H	 2.585648	 0.728680	 0.202752

	symmetry c1
}
set optking {
	frozen_dihedral = ("
		11 4 2 3
	")
}

ee = optimize('scf')
oeprop('DIPOLE', 'QUADRUPOLE', 'MULLIKEN_CHARGES')
f=open( 'psi4out.xyz', 'w' )
f.write( "14  " )
f.write( str(ee) + "\n" )
f.write( MOL.save_string_xyz() )
f.close()
--------------------------------------------------------------------------

    Molecular point group: c1
  Charge       = 0
  Multiplicity = 1
  Basis Set: CC-PVTZ
  Basis Set:
  @DF-RHF Final Energy:  -305.98531449415930
    Total Energy =                       -305.9853144941591836
    Molecular point group: c1
  Basis Set: CC-PVTZ
  Basis Set:
  Basis Set: CC-PVTZ
  Basis Set:
  @DF-RHF Final Energy:  -305.98325600237399
    Total Energy =                       -305.9832560023742758
  Basis Set: CC-PVTZ
  Basis Set:
  Basis Set: CC-PVTZ
  Basis Set:
  @DF-RHF Final Energy:  -305.98559824413394
    Total Energy =                       -305.9855982441337119
  Basis Set: CC-PVTZ
  Basis Set:
  Basis Set: CC-PVTZ
  Basis Set:
  @DF-RHF Final Energy:  -305.98567319807262
    Total Energy =                       -305.9856731980729023
  Basis Set: CC-PVTZ
  Basis Set:
  Basis Set: CC-PVTZ
  Basis Set:
  @DF-RHF Final Energy:  -305.98570981241801
    Total Energy =                       -305.9857098124180084
  Basis Set: CC-PVTZ
  Basis Set:
  Basis Set: CC-PVTZ
  Basis Set:
  @DF-RHF Final Energy:  -305.98571146182417
    Total Energy =                       -305.9857114618241098
  Basis Set: CC-PVTZ
  Basis Set:
  Charge       = 0
  Multiplicity = 1
  Basis Set: CC-PVTZ
  Basis Set:

    Orbital Energies (a.u.)
    -----------------------

    Doubly Occupied:

       1A    -20.595513     2A    -20.535697     3A    -11.365579
       4A    -11.279950     5A    -11.237664     6A    -11.215186
       7A     -1.471982     8A     -1.366914     9A     -1.065349
      10A     -0.980825    11A     -0.880250    12A     -0.770703
      13A     -0.702627    14A     -0.684854    15A     -0.675725
      16A     -0.621709    17A     -0.604700    18A     -0.549281
      19A     -0.539322    20A     -0.521898    21A     -0.514688
      22A     -0.497584    23A     -0.461079    24A     -0.442039

  @DF-RHF Final Energy:  -305.98571156844952

   => Energetics <=

    Nuclear Repulsion Energy =            247.4656433354169280
    One-Electron Energy =                -907.7404776802352444
    Two-Electron Energy =                 354.2891227763686857
    DFT Exchange-Correlation Energy =       0.0000000000000000
    Empirical Dispersion Energy =           0.0000000000000000
    PCM Polarization Energy =               0.0000000000000000
    EFP Energy =                            0.0000000000000000
    Total Energy =                       -305.9857115684496875
    Molecular point group: c1
  Basis Set: CC-PVTZ
  Basis Set:

  -Total Gradient:
     Atom            X                  Y                   Z
    ------   -----------------  -----------------  -----------------
       1        0.000007957935    -0.000029635154     0.000021597168
       2       -0.000673106478    -0.000190399503     0.003839506434
       3        0.000175276053    -0.000462240373    -0.004223670381
       4        0.001224702991     0.002515609719     0.004721510949
       5       -0.000001282116    -0.000010156010    -0.000003246309
       6       -0.000001528788     0.000001609964    -0.000002822822
       7        0.000001042122     0.000002859751    -0.000003068200
       8        0.000000486592     0.000000983365    -0.000002247919
       9       -0.000002207509     0.000004121459     0.000000807564
      10       -0.000002720192     0.000000479971     0.000002116460
      11       -0.000742829593    -0.001848262012    -0.004351202457
      12        0.000002520208     0.000004484622    -0.000000745686
      13        0.000012512202     0.000009870949    -0.000000092310
      14       -0.000000823429     0.000000673251     0.000001557510

  **** Optimization is complete! (in 7 steps) ****
    Final optimized geometry and variables:
    Molecular point group: c1

    Geometry (in Angstrom), charge = 0, multiplicity = 1:

    O            0.071572169131     1.263790323001    -0.142514583424
    C            0.032574829343     0.095685116378     0.040717646706
    C           -1.222856363478    -0.737034812577     0.076343149997
    O            1.116540292922    -0.654952925408     0.170427438957
    C           -2.497199798794     0.088067568911     0.157585599138
    H           -1.205133876463    -1.341043892737    -0.825409567781
    H           -1.143998303062    -1.433738123400     0.902291962838
    H           -2.574779247155     0.766862006417    -0.680365905399
    H           -3.363019285863    -0.562704146286     0.154770728923
    H           -2.520661705811     0.680154786208     1.063444998243
    C            2.342501468515    -0.104583826793    -0.268289388018
    H            2.267851450148     0.204954145762    -1.300899954876
    H            3.074659611377    -0.889244206534    -0.167992904744
    H            2.623319220688     0.745165320425     0.335471566530

  Mulliken Charges: (a.u.)
   Center  Symbol    Alpha    Beta     Spin     Total
       1     O     4.19435  4.19435  0.00000 -0.38870
       2     C     2.80304  2.80304  0.00000  0.39392
       3     C     3.09297  3.09297  0.00000 -0.18594
       4     O     4.14892  4.14892  0.00000 -0.29783
       5     C     3.14069  3.14069  0.00000 -0.28138
       6     H     0.44413  0.44413  0.00000  0.11175
       7     H     0.43934  0.43934  0.00000  0.12133
       8     H     0.44598  0.44598  0.00000  0.10803
       9     H     0.45022  0.45022  0.00000  0.09955
      10     H     0.45023  0.45023  0.00000  0.09953
      11     C     3.03562  3.03562  0.00000 -0.07123
      12     H     0.45793  0.45793  0.00000  0.08413
      13     H     0.44554  0.44554  0.00000  0.10892
      14     H     0.45104  0.45104  0.00000  0.09792

   Total alpha = 24.00000, Total beta = 24.00000, Total charge = -0.00000
