  ==> Input File <==

--------------------------------------------------------------------------
set {
	reference rhf
	basis 6-31G*
}

set_num_threads( 4 )
memory 2 gb

molecule MOL {
0 1

H	 -4.031818	 -0.453427	 -0.000094
C	 -2.967712	 -0.297022	 -0.000064
C	 -2.458620	 0.992929	 0.000032
C	 -2.109895	 -1.385637	 -0.000122
H	 -3.124998	 1.836319	 0.000077
C	 -1.090278	 1.193236	 0.000070
H	 -2.506361	 -2.384847	 -0.000198
C	 -0.739812	 -1.187531	 -0.000085
H	 -0.678594	 2.184290	 0.000146
C	 -0.226438	 0.104061	 0.000012
H	 -0.072310	 -2.027032	 -0.000131
C	 1.239129	 0.373821	 0.000060
O	 1.966935	 -0.712500	 -0.211617
O	 1.717570	 1.451085	 0.171691
C	 3.373711	 -0.547006	 -0.227908
H	 3.665420	 0.134124	 -1.013888
H	 3.782805	 -1.528345	 -0.410856
H	 3.720895	 -0.166167	 0.721483

	symmetry c1
}
set optking {
	frozen_dihedral = ("
		13 12 10 6
	")
}

ee = optimize('scf')
oeprop('DIPOLE', 'QUADRUPOLE', 'MULLIKEN_CHARGES')
f=open( 'psi4out.xyz', 'w' )
f.write( "18  " )
f.write( str(ee) + "\n" )
f.write( MOL.save_string_xyz() )
f.close()
--------------------------------------------------------------------------

    Molecular point group: c1
  Charge       = 0
  Multiplicity = 1
  Basis Set: 6-31G*
  Basis Set:
  @DF-RHF Final Energy:  -457.35038560608467
    Total Energy =                       -457.3503856060847284
    Molecular point group: c1
  Basis Set: 6-31G*
  Basis Set:
  Basis Set: 6-31G*
  Basis Set:
  @DF-RHF Final Energy:  -457.35002889200041
    Total Energy =                       -457.3500288919999548
  Basis Set: 6-31G*
  Basis Set:
  Basis Set: 6-31G*
  Basis Set:
  @DF-RHF Final Energy:  -457.35040951571824
    Total Energy =                       -457.3504095157184111
  Basis Set: 6-31G*
  Basis Set:
  Basis Set: 6-31G*
  Basis Set:
  @DF-RHF Final Energy:  -457.35041465574750
    Total Energy =                       -457.3504146557480681
  Basis Set: 6-31G*
  Basis Set:
  Charge       = 0
  Multiplicity = 1
  Basis Set: 6-31G*
  Basis Set:

    Orbital Energies (a.u.)
    -----------------------

    Doubly Occupied:

       1A    -20.607765     2A    -20.544570     3A    -11.377912
       4A    -11.282972     5A    -11.245702     6A    -11.245170
       7A    -11.244203     8A    -11.241825     9A    -11.237565
      10A    -11.236810    11A     -1.472861    12A     -1.363992
      13A     -1.165363    14A     -1.048163    15A     -1.024875
      16A     -0.978187    17A     -0.860202    18A     -0.834483
      19A     -0.777838    20A     -0.739827    21A     -0.683368
      22A     -0.677483    23A     -0.672096    24A     -0.631039
      25A     -0.624168    26A     -0.597762    27A     -0.584961
      28A     -0.560977    29A     -0.529574    30A     -0.516596
      31A     -0.503615    32A     -0.499157    33A     -0.459122
      34A     -0.444439    35A     -0.344797    36A     -0.341057

  @DF-RHF Final Energy:  -457.35041482752280

   => Energetics <=

    Nuclear Repulsion Energy =            492.9968132714889748
    One-Electron Energy =               -1600.2934652819171788
    Two-Electron Energy =                 649.9462371829051790
    DFT Exchange-Correlation Energy =       0.0000000000000000
    Empirical Dispersion Energy =           0.0000000000000000
    PCM Polarization Energy =               0.0000000000000000
    EFP Energy =                            0.0000000000000000
    Total Energy =                       -457.3504148275230818
    Molecular point group: c1
  Basis Set: 6-31G*
  Basis Set:

  -Total Gradient:
     Atom            X                  Y                   Z
    ------   -----------------  -----------------  -----------------
       1       -0.000001174151     0.000000552708    -0.000005175300
       2        0.000000420867    -0.000003976479     0.000016263411
       3        0.000002989685     0.000003445235    -0.000009438881
       4       -0.000003729993     0.000000944177     0.000002446916
       5        0.000000181731    -0.000000464824     0.000003499965
       6       -0.000005034974    -0.000002535035    -0.001235578016
       7        0.000000530126    -0.000000359043    -0.000002023944
       8        0.000003773130     0.000000149880    -0.000015657761
       9        0.000001397073    -0.000000118797    -0.000003958417
      10        0.000003259033     0.000073677022     0.001341296210
      11       -0.000000657812     0.000001131094     0.000015961945
      12        0.000057053502    -0.000277680315     0.001129475032
      13       -0.000047778303     0.000202152724    -0.001263200510
      14       -0.000008940379     0.000006204906     0.000002255290
      15        0.000000251528    -0.000007899030     0.000063356081
      16       -0.000012170098     0.000007941638    -0.000012421677
      17       -0.000000801563     0.000000403990    -0.000011387292
      18        0.000010430597    -0.000003569848    -0.000015713054

  **** Optimization is complete! (in 5 steps) ****
    Final optimized geometry and variables:
    Molecular point group: c1

    Geometry (in Angstrom), charge = 0, multiplicity = 1:

    H           -4.030610751879    -0.457699784244     0.026592152208
    C           -2.966640239128    -0.300711458691     0.029480132473
    C           -2.458239964910     0.989508155034     0.030964306633
    C           -2.108269810405    -1.388902289241     0.030071843803
    H           -3.125044954335     1.832598265704     0.027692185579
    C           -1.090018257519     1.190645283129     0.037163866304
    H           -2.504242915657    -2.388289620533     0.028521867927
    C           -0.738323718750    -1.189919337974     0.029201087188
    H           -0.679166613097     2.182067873093     0.042953841665
    C           -0.225820392811     0.101905843931     0.038444030236
    H           -0.070355600836    -2.029133568559     0.023322229803
    C            1.239775708378     0.371902562739     0.032004845972
    O            1.966107088231    -0.715619495312    -0.177886410226
    O            1.718271305691     1.452167825909     0.183464822534
    C            3.372966148427    -0.551616957955    -0.196066278260
    H            3.664230435955     0.124219853930    -0.986746246715
    H            3.780783576969    -1.534459535624    -0.373462655647
    H            3.722007060426    -0.165013249467     0.750340054113

  Mulliken Charges: (a.u.)
   Center  Symbol    Alpha    Beta     Spin     Total
       1     H     0.39542  0.39542  0.00000  0.20917
       2     C     3.09015  3.09015  0.00000 -0.18030
       3     C     3.10696  3.10696  0.00000 -0.21391
       4     C     3.10710  3.10710  0.00000 -0.21420
       5     H     0.39537  0.39537  0.00000  0.20926
       6     C     3.08696  3.08696  0.00000 -0.17392
       7     H     0.39624  0.39624  0.00000  0.20752
       8     C     3.08734  3.08734  0.00000 -0.17468
       9     H     0.37634  0.37634  0.00000  0.24732
      10     C     3.07394  3.07394  0.00000 -0.14787
      11     H     0.38087  0.38087  0.00000  0.23826
      12     C     2.58273  2.58273  0.00000  0.83454
      13     O     4.31368  4.31368  0.00000 -0.62737
      14     O     4.29145  4.29145  0.00000 -0.58290
      15     C     3.09269  3.09269  0.00000 -0.18539
      16     H     0.40723  0.40723  0.00000  0.18553
      17     H     0.40791  0.40791  0.00000  0.18417
      18     H     0.40762  0.40762  0.00000  0.18476

   Total alpha = 36.00000, Total beta = 36.00000, Total charge = -0.00000
