                              Psi4 1.0.54 Driver

  ==> Input File <==

--------------------------------------------------------------------------
set {
	reference rhf
	basis cc-pvtz
}

set_num_threads( 4 )
memory 2 gb

molecule MOL {
0 1

O	 -2.817697	 1.304178	 0.001046
C	 -2.664672	 0.129869	 0.003507
C	 -3.797908	 -0.860100	 -0.001145
O	 -1.481217	 -0.452708	 0.001092
H	 -4.408836	 -0.679689	 -0.875387
H	 -3.443486	 -1.878443	 -0.002770
H	 -4.412123	 -0.683688	 0.871605
C	 -0.332055	 0.384012	 -0.000250
C	 0.892252	 -0.506059	 -0.000295
H	 -0.360822	 1.020205	 -0.874146
H	 -0.359817	 1.021310	 0.872861
C	 2.188199	 0.299473	 -0.001416
H	 0.857046	 -1.152781	 -0.871031
H	 0.857910	 -1.151798	 0.871202
C	 2.988270	 0.142774	 -1.291554
H	 1.961306	 1.351533	 0.152422
H	 2.805069	 -0.005057	 0.840431
C	 4.283956	 0.946642	 -1.292609
H	 2.373488	 0.448447	 -2.133376
H	 3.215731	 -0.908136	 -1.446268
H	 4.086956	 2.006814	 -1.173983
H	 4.827137	 0.813476	 -2.220902
H	 4.935589	 0.639935	 -0.481340

	symmetry c1
}
set optking {
	frozen_dihedral = ("
		16 12 9 13
	")
}

ee,wfn = optimize('scf', return_wfn=True)
oeprop( wfn, 'DIPOLE', 'QUADRUPOLE', 'MULLIKEN_CHARGES')
f=open( 'psi4out.xyz', 'w' )
f.write( "23  " )
f.write( str(ee) + "\n" )
f.write( MOL.save_string_xyz() )
f.close()
--------------------------------------------------------------------------

    Molecular point group: c1
  Charge       = 0
  Multiplicity = 1
  Basis Set: CC-PVTZ
  Basis Set:
  @DF-RHF Final Energy:  -423.12976532671729
    Total Energy =                       -423.1297653267172336
    Molecular point group: c1
  Basis Set: CC-PVTZ
  Basis Set:
  Basis Set: CC-PVTZ
  Basis Set:
  @DF-RHF Final Energy:  -423.12981931587973
    Total Energy =                       -423.1298193158794447
  Basis Set: CC-PVTZ
  Basis Set:
  Basis Set: CC-PVTZ
  Basis Set:
  @DF-RHF Final Energy:  -423.12863036838723
    Total Energy =                       -423.1286303683870074
  Basis Set: CC-PVTZ
  Basis Set:
  Basis Set: CC-PVTZ
  Basis Set:
  @DF-RHF Final Energy:  -423.13004498287222
    Total Energy =                       -423.1300449828725050
  Basis Set: CC-PVTZ
  Basis Set:
  Basis Set: CC-PVTZ
  Basis Set:
  @DF-RHF Final Energy:  -423.13005610286751
    Total Energy =                       -423.1300561028677976
  Basis Set: CC-PVTZ
  Basis Set:
  Basis Set: CC-PVTZ
  Basis Set:
  @DF-RHF Final Energy:  -423.13006324134437
    Total Energy =                       -423.1300632413442599
  Basis Set: CC-PVTZ
  Basis Set:
  Basis Set: CC-PVTZ
  Basis Set:
  @DF-RHF Final Energy:  -423.13006461736705
    Total Energy =                       -423.1300646173672249
  Basis Set: CC-PVTZ
  Basis Set:
  Charge       = 0
  Multiplicity = 1
  Basis Set: CC-PVTZ
  Basis Set:

    Orbital Energies (a.u.)
    -----------------------

    Doubly Occupied:

       1A    -20.595929     2A    -20.529662     3A    -11.366564
       4A    -11.279877     5A    -11.230740     6A    -11.222079
       7A    -11.221325     8A    -11.219663     9A    -11.210602
      10A     -1.471314    11A     -1.364155    12A     -1.093737
      13A     -1.042705    14A     -1.003571    15A     -0.930915
      16A     -0.844987    17A     -0.800927    18A     -0.779113
      19A     -0.691759    20A     -0.688236    21A     -0.674953
      22A     -0.637120    23A     -0.615042    24A     -0.586835
      25A     -0.581492    26A     -0.571946    27A     -0.560654
      28A     -0.533927    29A     -0.527116    30A     -0.502659
      31A     -0.497321    32A     -0.478525    33A     -0.468503
      34A     -0.464584    35A     -0.452968    36A     -0.439094

  @DF-RHF Final Energy:  -423.13006465278659

   => Energetics <=

    Nuclear Repulsion Energy =            453.0632719431700934
    One-Electron Energy =               -1474.0254762203092014
    Two-Electron Energy =                 597.8321396243521804
    DFT Exchange-Correlation Energy =       0.0000000000000000
    Empirical Dispersion Energy =           0.0000000000000000
    PCM Polarization Energy =               0.0000000000000000
    EFP Energy =                            0.0000000000000000
    Total Energy =                       -423.1300646527869276
    Molecular point group: c1
  Basis Set: CC-PVTZ
  Basis Set:

  -Total Gradient:
     Atom            X                  Y                   Z
    ------   -----------------  -----------------  -----------------
       1       -0.000010393782     0.000030352864     0.000009486603
       2        0.000035157810    -0.000042395859    -0.000008295681
       3       -0.000004400542     0.000003270688     0.000005398862
       4       -0.000029174218     0.000004305662     0.000014968205
       5       -0.000000830541    -0.000001930139    -0.000004108507
       6       -0.000000453948    -0.000001950309    -0.000000567581
       7       -0.000003309012     0.000001430568     0.000000223673
       8        0.000017980311     0.000007206286    -0.000046084037
       9        0.000686857542    -0.001099483860     0.000530095545
      10        0.000003053735     0.000000417882     0.000007670095
      11       -0.000005732861    -0.000005047011     0.000005712588
      12        0.000011593781     0.000033189383     0.001374957479
      13       -0.000588451156     0.000918112293    -0.000654903523
      14        0.000002040741    -0.000004481568     0.000000477783
      15        0.000000873188    -0.000008035663    -0.000000072467
      16       -0.000115594911     0.000154670233    -0.001245443915
      17        0.000004513190     0.000001663279    -0.000002295204
      18        0.000002035575     0.000011416803     0.000006056036
      19        0.000003993841    -0.000004154922     0.000008448631
      20       -0.000005191653     0.000005664449     0.000002076881
      21        0.000004497583    -0.000006144564     0.000000908515
      22       -0.000003948309    -0.000000124297     0.000001914182
      23       -0.000005116373     0.000002047805    -0.000006624162

  **** Optimization is complete! (in 8 steps) ****
    Final optimized geometry and variables:
    Molecular point group: c1

    Geometry (in Angstrom), charge = 0, multiplicity = 1:

    O           -2.704728899881     1.148728353941     0.282482804860
    C           -2.560647780871    -0.026760935591     0.278023652141
    C           -3.701348420213    -1.008054883552     0.255653289002
    O           -1.381503548475    -0.617935389846     0.292205570451
    H           -4.300898206554    -0.818569958257    -0.624586288674
    H           -3.354655948010    -2.029089969849     0.252965252165
    H           -4.324068999344    -0.831242408052     1.122368138958
    C           -0.226851973614     0.209458627203     0.315442316215
    C            0.993615215398    -0.687853604116     0.326972824522
    H           -0.235633800928     0.853203963059    -0.553924616234
    H           -0.262200365651     0.840452514949     1.192857576797
    C            2.301801573286     0.125728793725     0.301629812201
    H            0.940780775241    -1.340938373755    -0.536715097861
    H            0.948884784585    -1.323264202889     1.202990631987
    C            3.083500601103    -0.020642838793    -1.002820510188
    H            2.081954512367     1.179443472367     0.452236253536
    H            2.937016245157    -0.169362253628     1.129339229173
    C            4.358291992598     0.814534021798    -1.033298386438
    H            2.445786799720     0.262428107062    -1.836161452170
    H            3.332686032248    -1.067241194393    -1.153056266764
    H            4.137432654427     1.870925546681    -0.922603266589
    H            4.890105036608     0.684392679000    -1.968624076913
    H            5.029775654989     0.532576744486    -0.229070127896

  Mulliken Charges: (a.u.)
   Center  Symbol    Alpha    Beta     Spin     Total
       1     O     4.20236  4.20236  0.00000 -0.40472
       2     C     2.81475  2.81475  0.00000  0.37049
       3     C     3.13977  3.13977  0.00000 -0.27954
       4     O     4.14583  4.14583  0.00000 -0.29166
       5     H     0.44214  0.44214  0.00000  0.11572
       6     H     0.44180  0.44180  0.00000  0.11640
       7     H     0.44212  0.44212  0.00000  0.11576
       8     C     2.97707  2.97707  0.00000  0.04586
       9     C     3.08983  3.08983  0.00000 -0.17966
      10     H     0.45390  0.45390  0.00000  0.09219
      11     H     0.45301  0.45301  0.00000  0.09397
      12     C     3.10567  3.10567  0.00000 -0.21135
      13     H     0.45098  0.45098  0.00000  0.09803
      14     H     0.44499  0.44499  0.00000  0.11003
      15     C     3.08266  3.08266  0.00000 -0.16532
      16     H     0.45433  0.45433  0.00000  0.09133
      17     H     0.44573  0.44573  0.00000  0.10855
      18     C     3.15011  3.15011  0.00000 -0.30021
      19     H     0.45359  0.45359  0.00000  0.09282
      20     H     0.45268  0.45268  0.00000  0.09464
      21     H     0.45417  0.45417  0.00000  0.09166
      22     H     0.44771  0.44771  0.00000  0.10458
      23     H     0.45479  0.45479  0.00000  0.09043

   Total alpha = 36.00000, Total beta = 36.00000, Total charge = -0.00000

*** Psi4 exiting successfully. Buy a developer a beer!
