                              Psi4 1.0.54 Driver

  ==> Input File <==

--------------------------------------------------------------------------
set {
	reference rhf
	basis cc-pvtz
}

set_num_threads( 4 )
memory 2 gb

molecule MOL {
0 1

O	 -2.440701	 -0.934798	 -0.415053
C	 -1.922978	 0.063265	 -0.045005
C	 -2.632749	 1.372204	 0.158357
O	 -0.637375	 0.157174	 0.243149
H	 -2.187724	 2.129143	 -0.474664
H	 -3.677681	 1.257276	 -0.079438
H	 -2.516788	 1.693160	 1.185542
C	 0.162530	 -1.009518	 0.097799
C	 1.587210	 -0.664190	 0.477086
H	 0.096803	 -1.356267	 -0.924704
H	 -0.233803	 -1.785900	 0.736810
C	 2.256770	 0.342732	 -0.454344
H	 2.154716	 -1.590834	 0.479041
H	 1.598751	 -0.289614	 1.496104
C	 1.285540	 0.947272	 -1.462740
H	 2.701148	 1.136856	 0.139788
H	 3.071432	 -0.140942	 -0.980868
H	 1.785276	 1.660481	 -2.107707
H	 0.472633	 1.465229	 -0.964449
H	 0.849536	 0.180139	 -2.093948

	symmetry c1
}
set optking {
	frozen_dihedral = ("
		16 12 9 8
	")
}

ee,wfn = optimize('scf', return_wfn=True)
oeprop( wfn, 'DIPOLE', 'QUADRUPOLE', 'MULLIKEN_CHARGES')
f=open( 'psi4out.xyz', 'w' )
f.write( "20  " )
f.write( str(ee) + "\n" )
f.write( MOL.save_string_xyz() )
f.close()
--------------------------------------------------------------------------

    Molecular point group: c1
  Charge       = 0
  Multiplicity = 1
  Basis Set: CC-PVTZ
  Basis Set:
  @DF-RHF Final Energy:  -384.06869261788972
    Total Energy =                       -384.0686926178899512
    Molecular point group: c1
  Basis Set: CC-PVTZ
  Basis Set:
  Basis Set: CC-PVTZ
  Basis Set:
  @DF-RHF Final Energy:  -384.07461687658940
    Total Energy =                       -384.0746168765894026
  Basis Set: CC-PVTZ
  Basis Set:
  Basis Set: CC-PVTZ
  Basis Set:
  @DF-RHF Final Energy:  -384.07643850284427
    Total Energy =                       -384.0764385028442121
  Basis Set: CC-PVTZ
  Basis Set:
  Basis Set: CC-PVTZ
  Basis Set:
  @DF-RHF Final Energy:  -384.07489845456905
    Total Energy =                       -384.0748984545691656
  Basis Set: CC-PVTZ
  Basis Set:
  @DF-RHF Final Energy:  -384.07712724945316
    Total Energy =                       -384.0771272494531559
  Basis Set: CC-PVTZ
  Basis Set:
  @DF-RHF Final Energy:  -384.07731589314028
    Total Energy =                       -384.0773158931400530
  Basis Set: CC-PVTZ
  Basis Set:
  Basis Set: CC-PVTZ
  Basis Set:
  @DF-RHF Final Energy:  -384.07736227266878
    Total Energy =                       -384.0773622726685517
  Basis Set: CC-PVTZ
  Basis Set:
  Basis Set: CC-PVTZ
  Basis Set:
  @DF-RHF Final Energy:  -384.07736805839295
    Total Energy =                       -384.0773680583929490
  Basis Set: CC-PVTZ
  Basis Set:
  Charge       = 0
  Multiplicity = 1
  Basis Set: CC-PVTZ
  Basis Set:

    Orbital Energies (a.u.)
    -----------------------

    Doubly Occupied:

       1A    -20.593946     2A    -20.532616     3A    -11.366549
       4A    -11.280117     5A    -11.231740     6A    -11.224277
       7A    -11.220922     8A    -11.208887     9A     -1.470898
      10A     -1.365027    11A     -1.082103    12A     -1.026897
      13A     -0.980773    14A     -0.893682    15A     -0.800471
      16A     -0.776158    17A     -0.692317    18A     -0.690934
      19A     -0.666301    20A     -0.628190    21A     -0.612746
      22A     -0.581818    23A     -0.570941    24A     -0.557224
      25A     -0.548134    26A     -0.527726    27A     -0.522093
      28A     -0.479709    29A     -0.475477    30A     -0.466393
      31A     -0.449029    32A     -0.440622

  @DF-RHF Final Energy:  -384.07736914699314

   => Energetics <=

    Nuclear Repulsion Energy =            394.5665917471559965
    One-Electron Energy =               -1305.3584808014788905
    Two-Electron Energy =                 526.7145199073304411
    DFT Exchange-Correlation Energy =       0.0000000000000000
    Empirical Dispersion Energy =           0.0000000000000000
    PCM Polarization Energy =               0.0000000000000000
    EFP Energy =                            0.0000000000000000
    Total Energy =                       -384.0773691469923961
    Molecular point group: c1
  Basis Set: CC-PVTZ
  Basis Set:

  -Total Gradient:
     Atom            X                  Y                   Z
    ------   -----------------  -----------------  -----------------
       1        0.000000996855     0.000048950273     0.000029304132
       2        0.000046100459    -0.000047120729    -0.000014978854
       3       -0.000008938609     0.000008952681    -0.000025801548
       4       -0.000006474818     0.000031776587     0.000029964960
       5       -0.000004225737    -0.000026342940     0.000034299838
       6        0.000029164337     0.000006887980     0.000003876874
       7       -0.000005777685    -0.000012125781    -0.000026848741
       8       -0.000234063756     0.000441143590     0.000340765026
       9        0.000159548402    -0.000620127939    -0.000569892964
      10        0.000004574969     0.000005104974     0.000014208121
      11        0.000001224708     0.000022765181    -0.000002374207
      12        0.000832018365    -0.000270513086     0.000206013471
      13       -0.000034245471     0.000009756507     0.000000017595
      14        0.000000221767     0.000000527327    -0.000006633097
      15        0.000001649095    -0.000025432752     0.000008753852
      16       -0.000781616466     0.000404015105    -0.000029766022
      17       -0.000013906479     0.000006472773     0.000008332213
      18       -0.000001391657     0.000006005972    -0.000008613115
      19        0.000002566576     0.000003131288     0.000001330358
      20        0.000012575144     0.000006172995     0.000008042109

  **** Optimization is complete! (in 9 steps) ****
    Final optimized geometry and variables:
    Molecular point group: c1

    Geometry (in Angstrom), charge = 0, multiplicity = 1:

    O           -2.079295078669    -1.221891694168    -0.014669727846
    C           -1.651446800624    -0.187136143459     0.369220831906
    C           -2.493228435968     0.991845906459     0.768250674152
    O           -0.362071474040     0.068726726534     0.497859409872
    H           -2.258422733986     1.836337432728     0.133004579622
    H           -3.536696066016     0.738603038668     0.675415470482
    H           -2.265890397768     1.274180509010     1.787913193397
    C            0.554587619608    -0.965174351633     0.158850426548
    C            1.966502677263    -0.475065702289     0.414535617291
    H            0.394014663958    -1.258864789968    -0.867863985724
    H            0.345310637548    -1.824885300948     0.779421424456
    C            2.569317658809     0.577355279935    -0.553071495098
    H            2.599085979286    -1.356010309653     0.410020837733
    H            1.993641695004    -0.094563648829     1.428900796159
    C            1.643597013855     1.185922906902    -1.606337593814
    H            2.979686528626     1.387863226302     0.037800154348
    H            3.412158156704     0.128730078895    -1.066939676657
    H            2.201379115879     1.885042160654    -2.218785247446
    H            0.819507988193     1.722251391976    -1.156288977360
    H            1.231777744352     0.434980083656    -2.270343134034

  Mulliken Charges: (a.u.)
   Center  Symbol    Alpha    Beta     Spin     Total
       1     O     4.19707  4.19707  0.00000 -0.39414
       2     C     2.80868  2.80868  0.00000  0.38265
       3     C     3.13893  3.13893  0.00000 -0.27786
       4     O     4.15504  4.15504  0.00000 -0.31009
       5     H     0.44627  0.44627  0.00000  0.10746
       6     H     0.43729  0.43729  0.00000  0.12542
       7     H     0.44551  0.44551  0.00000  0.10898
       8     C     3.00227  3.00227  0.00000 -0.00455
       9     C     3.09293  3.09293  0.00000 -0.18585
      10     H     0.44556  0.44556  0.00000  0.10888
      11     H     0.43892  0.43892  0.00000  0.12217
      12     C     3.08719  3.08719  0.00000 -0.17439
      13     H     0.44774  0.44774  0.00000  0.10451
      14     H     0.45035  0.45035  0.00000  0.09931
      15     C     3.15741  3.15741  0.00000 -0.31483
      16     H     0.45083  0.45083  0.00000  0.09833
      17     H     0.45102  0.45102  0.00000  0.09795
      18     H     0.44438  0.44438  0.00000  0.11124
      19     H     0.44841  0.44841  0.00000  0.10318
      20     H     0.45419  0.45419  0.00000  0.09162

   Total alpha = 32.00000, Total beta = 32.00000, Total charge =  0.00000

*** Psi4 exiting successfully. Buy a developer a beer!
