  ==> Input File <==

--------------------------------------------------------------------------
set {
	reference rhf
	basis 6-31G*
}

set_num_threads( 1 )
memory 2 gb

molecule MOL {
0 1

H	 -3.001310	 1.869119	 -0.655024
O	 -2.713942	 2.090577	 0.220321
C	 -1.321172	 1.988968	 0.282210
C	 -0.793441	 0.596080	 0.058728
H	 -1.036565	 2.331996	 1.270407
H	 -0.851663	 2.667209	 -0.429531
C	 -1.530462	 -0.493172	 -0.025500
H	 0.279550	 0.524948	 -0.031341
H	 -1.092586	 -1.461565	 -0.186463
H	 -2.602122	 -0.450675	 0.050101

	symmetry c1
}
set optking {
	frozen_dihedral = ("
		5 3 2 1,
		5 3 4 7
	")
}

ee = energy('scf')
oeprop('DIPOLE', 'QUADRUPOLE', 'MULLIKEN_CHARGES')
f=open( 'psi4out.xyz', 'w' )
f.write( "10  " )
f.write( str(ee) + "\n" )
f.write( MOL.save_string_xyz() )
f.close()
--------------------------------------------------------------------------

    Molecular point group: c1

    Geometry (in Angstrom), charge = 0, multiplicity = 1:

       Center              X                  Y                   Z               Mass
    ------------   -----------------  -----------------  -----------------  -----------------
           H         -1.355603898130     0.765346161561    -0.781270160838     1.007825032070
           O         -1.068235898130     0.986804161561     0.094074839162    15.994914619560
           C          0.324534101870     0.885195161561     0.155963839162    12.000000000000
           C          0.852265101870    -0.507692838439    -0.067518160838    12.000000000000
           H          0.609141101870     1.228223161561     1.144160839162     1.007825032070
           H          0.794043101870     1.563436161561    -0.555777160838     1.007825032070
           C          0.115244101870    -1.596944838439    -0.151746160838    12.000000000000
           H          1.925256101870    -0.578824838439    -0.157587160838     1.007825032070
           H          0.553120101870    -2.565337838439    -0.312709160838     1.007825032070
           H         -0.956415898130    -1.554447838439    -0.076145160838     1.007825032070

  Charge       = 0
  Multiplicity = 1
  Basis Set: 6-31G*
  Basis Set:

    Orbital Energies (a.u.)
    -----------------------

    Doubly Occupied:

       1A    -20.560739     2A    -11.278497     3A    -11.231082
       4A    -11.219472     5A     -1.369369     6A     -1.057956
       7A     -0.928575     8A     -0.768821     9A     -0.687946
      10A     -0.661758    11A     -0.615827    12A     -0.570930
      13A     -0.538034    14A     -0.491924    15A     -0.448081
      16A     -0.364805

  @DF-RHF Final Energy:  -191.91719474973308

   => Energetics <=

    Nuclear Repulsion Energy =            119.3961205119964148
    One-Electron Energy =                -497.0390372214941976
    Two-Electron Energy =                 185.7257219597648543
    DFT Exchange-Correlation Energy =       0.0000000000000000
    Empirical Dispersion Energy =           0.0000000000000000
    PCM Polarization Energy =               0.0000000000000000
    EFP Energy =                            0.0000000000000000
    Total Energy =                       -191.9171947497329427

  Mulliken Charges: (a.u.)
   Center  Symbol    Alpha    Beta     Spin     Total
       1     H     0.28088  0.28088  0.00000  0.43824
       2     O     4.36675  4.36675  0.00000 -0.73350
       3     C     3.00027  3.00027  0.00000 -0.00055
       4     C     3.09381  3.09381  0.00000 -0.18762
       5     H     0.40803  0.40803  0.00000  0.18393
       6     H     0.42573  0.42573  0.00000  0.14854
       7     C     3.19668  3.19668  0.00000 -0.39336
       8     H     0.41026  0.41026  0.00000  0.17947
       9     H     0.41066  0.41066  0.00000  0.17869
      10     H     0.40692  0.40692  0.00000  0.18616

   Total alpha = 16.00000, Total beta = 16.00000, Total charge =  0.00000
