                              Psi4 1.0.54 Driver

  ==> Input File <==

--------------------------------------------------------------------------
set {
	reference rhf
	basis cc-pvtz
}

set_num_threads( 4 )
memory 2 gb

molecule MOL {
0 1

H	 -3.436473	 1.252944	 -1.023892
O	 -3.458596	 0.315260	 -0.960865
C	 -3.176635	 -0.080824	 0.355601
C	 -1.763371	 0.265266	 0.799691
H	 -3.321825	 -1.153438	 0.379502
H	 -3.895468	 0.357385	 1.043382
C	 -0.673390	 -0.426948	 -0.013392
H	 -1.631049	 1.344913	 0.747560
H	 -1.664587	 -0.001624	 1.849167
C	 0.737842	 -0.043159	 0.423759
H	 -0.806103	 -0.190518	 -1.063345
H	 -0.797221	 -1.503753	 0.074146
C	 1.824000	 -0.743224	 -0.390623
H	 0.850588	 1.033777	 0.343840
H	 0.868587	 -0.286314	 1.476203
C	 3.181003	 -0.853602	 0.306663
H	 1.950399	 -0.225887	 -1.338903
H	 1.481503	 -1.744609	 -0.636682
C	 3.886065	 0.479364	 0.545893
H	 3.826454	 -1.484072	 -0.297222
H	 3.055804	 -1.369942	 1.254892
H	 4.019799	 1.021313	 -0.384958
H	 4.867251	 0.322835	 0.979500
H	 3.330084	 1.116979	 1.222604

	symmetry c1
}
set optking {
	frozen_dihedral = ("
		17 13 10 7
	")
}

ee,wfn = optimize('scf', return_wfn=True)
oeprop( wfn, 'DIPOLE', 'QUADRUPOLE', 'MULLIKEN_CHARGES')
f=open( 'psi4out.xyz', 'w' )
f.write( "24  " )
f.write( str(ee) + "\n" )
f.write( MOL.save_string_xyz() )
f.close()
--------------------------------------------------------------------------

    Molecular point group: c1
  Charge       = 0
  Multiplicity = 1
  Basis Set: CC-PVTZ
  Basis Set:
  @DF-RHF Final Energy:  -349.37911158367615
    Total Energy =                       -349.3791115836761492
    Molecular point group: c1
  Basis Set: CC-PVTZ
  Basis Set:
  Basis Set: CC-PVTZ
  Basis Set:
  @DF-RHF Final Energy:  -349.37916701057935
    Total Energy =                       -349.3791670105793514
  Basis Set: CC-PVTZ
  Basis Set:
  Basis Set: CC-PVTZ
  Basis Set:
  @DF-RHF Final Energy:  -349.37930297197289
    Total Energy =                       -349.3793029719726633
  Basis Set: CC-PVTZ
  Basis Set:
  Basis Set: CC-PVTZ
  Basis Set:
  @DF-RHF Final Energy:  -349.37931892951559
    Total Energy =                       -349.3793189295154775
  Basis Set: CC-PVTZ
  Basis Set:
  Basis Set: CC-PVTZ
  Basis Set:
  @DF-RHF Final Energy:  -349.37932345119373
    Total Energy =                       -349.3793234511938977
  Basis Set: CC-PVTZ
  Basis Set:
  Charge       = 0
  Multiplicity = 1
  Basis Set: CC-PVTZ
  Basis Set:

    Orbital Energies (a.u.)
    -----------------------

    Doubly Occupied:

       1A    -20.546242     2A    -11.265548     3A    -11.215155
       4A    -11.211814     5A    -11.210396     6A    -11.209401
       7A    -11.209158     8A    -11.205236     9A     -1.364123
      10A     -1.089698    11A     -1.049583    12A     -0.986068
      13A     -0.915729    14A     -0.851512    15A     -0.802243
      16A     -0.775799    17A     -0.682239    18A     -0.653310
      19A     -0.627902    20A     -0.620829    21A     -0.594982
      22A     -0.590156    23A     -0.554433    24A     -0.545213
      25A     -0.516573    26A     -0.506282    27A     -0.502404
      28A     -0.473772    29A     -0.468417    30A     -0.461565
      31A     -0.453167    32A     -0.452025    33A     -0.421222

  @DF-RHF Final Energy:  -349.37932392562055

   => Energetics <=

    Nuclear Repulsion Energy =            384.8269634045123553
    One-Electron Energy =               -1236.3481873208966135
    Two-Electron Energy =                 502.1418999907637613
    DFT Exchange-Correlation Energy =       0.0000000000000000
    Empirical Dispersion Energy =           0.0000000000000000
    PCM Polarization Energy =               0.0000000000000000
    EFP Energy =                            0.0000000000000000
    Total Energy =                       -349.3793239256205538
    Molecular point group: c1
  Basis Set: CC-PVTZ
  Basis Set:

  -Total Gradient:
     Atom            X                  Y                   Z
    ------   -----------------  -----------------  -----------------
       1        0.000000178145    -0.000006335786     0.000001795818
       2       -0.000002212743     0.000005702830    -0.000005931749
       3        0.000002219487     0.000004932567     0.000004846363
       4       -0.000000068809     0.000008566696    -0.000009542441
       5        0.000004115075     0.000007650391     0.000001101979
       6        0.000000228673    -0.000000093511    -0.000005244817
       7        0.000011256837    -0.001742991833     0.001493975691
       8       -0.000000956051     0.000000479102     0.000006042180
       9        0.000002106807    -0.000005960196    -0.000011788403
      10        0.000496108613     0.002764942859    -0.001781768328
      11        0.000001604846    -0.000008043194     0.000018956784
      12       -0.000000000715     0.000007053440     0.000000470247
      13       -0.002709037384    -0.002850646499    -0.000968109184
      14        0.000000585937    -0.000000610435    -0.000015653323
      15        0.000012126218    -0.000004875782     0.000003450418
      16       -0.000000735339    -0.000015145620     0.000022211460
      17        0.002192197840     0.001807871727     0.001245948254
      18       -0.000014537081     0.000017008074    -0.000002789880
      19        0.000009971229    -0.000005819501    -0.000005245819
      20       -0.000024263719     0.000018909878     0.000030504766
      21        0.000019819095     0.000019038261    -0.000021430873
      22       -0.000002995594    -0.000007405308     0.000011480909
      23       -0.000003078123     0.000000669680     0.000003887455
      24        0.000005366745    -0.000014897841    -0.000017167507

  **** Optimization is complete! (in 6 steps) ****
    Final optimized geometry and variables:
    Molecular point group: c1

    Geometry (in Angstrom), charge = 0, multiplicity = 1:

    H           -3.444045687560     1.363674606107    -1.132727095223
    O           -3.481158047954     0.430004744040    -1.029986800475
    C           -3.179652049764     0.084152310034     0.296142759365
    C           -1.752280826426     0.423803940470     0.698185179053
    H           -3.342003388052    -0.983898381704     0.367287180501
    H           -3.877448358627     0.562620330410     0.978747650330
    C           -0.690019325157    -0.316986277477    -0.108440836987
    H           -1.603989865020     1.498263873012     0.601760746210
    H           -1.636201791882     0.195834403675     1.755131931960
    C            0.736121358051     0.043966316857     0.299568689349
    H           -0.834012537813    -0.110618204651    -1.163671307612
    H           -0.834114522213    -1.387478286656     0.014293073374
    C            1.799303093101    -0.670701201015    -0.539767842925
    H            0.871928012604     1.119018423570     0.234330105579
    H            0.873827061703    -0.215611463640     1.347327454727
    C            3.174451061601    -0.759548016611     0.125433553645
    H            1.914475926308    -0.152847077050    -1.488818948866
    H            1.459807001339    -1.676138164050    -0.767840915300
    C            3.838545656609     0.591111367733     0.380243170408
    H            3.826267274285    -1.356711691070    -0.505002500290
    H            3.083669268802    -1.298653750120     1.064774424843
    H            3.946009285993     1.152187889907    -0.542717941781
    H            4.827824310227     0.461744626101     0.804187205257
    H            3.264719111089     1.198249996940     1.070475001965

  Mulliken Charges: (a.u.)
   Center  Symbol    Alpha    Beta     Spin     Total
       1     H     0.39530  0.39530  0.00000  0.20940
       2     O     4.20377  4.20377  0.00000 -0.40754
       3     C     2.97761  2.97761  0.00000  0.04479
       4     C     3.10263  3.10263  0.00000 -0.20525
       5     H     0.45899  0.45899  0.00000  0.08203
       6     H     0.46043  0.46043  0.00000  0.07915
       7     C     3.08630  3.08630  0.00000 -0.17260
       8     H     0.45899  0.45899  0.00000  0.08202
       9     H     0.45336  0.45336  0.00000  0.09329
      10     C     3.09442  3.09442  0.00000 -0.18883
      11     H     0.44641  0.44641  0.00000  0.10718
      12     H     0.45514  0.45514  0.00000  0.08972
      13     C     3.09447  3.09447  0.00000 -0.18895
      14     H     0.45180  0.45180  0.00000  0.09639
      15     H     0.45596  0.45596  0.00000  0.08808
      16     C     3.08989  3.08989  0.00000 -0.17978
      17     H     0.45333  0.45333  0.00000  0.09334
      18     H     0.44898  0.44898  0.00000  0.10204
      19     C     3.15213  3.15213  0.00000 -0.30426
      20     H     0.44915  0.44915  0.00000  0.10170
      21     H     0.45557  0.45557  0.00000  0.08886
      22     H     0.45517  0.45517  0.00000  0.08967
      23     H     0.44668  0.44668  0.00000  0.10665
      24     H     0.45355  0.45355  0.00000  0.09291

   Total alpha = 33.00000, Total beta = 33.00000, Total charge = -0.00000

*** Psi4 exiting successfully. Buy a developer a beer!
