  ==> Input File <==

--------------------------------------------------------------------------
set {
	reference rhf
	basis cc-pvtz
}

set_num_threads( 4 )
memory 2 gb

molecule MOL {
0 1

H	 2.043764	 -1.202497	 0.972849
C	 1.244095	 -0.508988	 1.171361
O	 0.462329	 -0.453336	 -0.000137
H	 1.664440	 0.460791	 1.406003
H	 0.662706	 -0.867567	 2.011389
C	 -0.590565	 0.341382	 0.000062
O	 -1.693898	 -0.053880	 0.000252
H	 -0.340426	 1.403822	 0.000200

	symmetry c1
}
set optking {
	frozen_dihedral = ("
		2 3 6 7
	")
}

ee = optimize('scf')
oeprop('DIPOLE', 'QUADRUPOLE', 'MULLIKEN_CHARGES')
f=open( 'psi4out.xyz', 'w' )
f.write( "8  " )
f.write( str(ee) + "\n" )
f.write( MOL.save_string_xyz() )
f.close()
--------------------------------------------------------------------------

    Molecular point group: c1
  Charge       = 0
  Multiplicity = 1
  Basis Set: CC-PVTZ
  Basis Set:
  @DF-RHF Final Energy:  -227.86017425120244
    Total Energy =                       -227.8601742512023804
    Molecular point group: c1
  Basis Set: CC-PVTZ
  Basis Set:
  Basis Set: CC-PVTZ
  Basis Set:
  @DF-RHF Final Energy:  -227.86056411925159
    Total Energy =                       -227.8605641192516771
  Basis Set: CC-PVTZ
  Basis Set:
  Basis Set: CC-PVTZ
  Basis Set:
  @DF-RHF Final Energy:  -227.86062917058658
    Total Energy =                       -227.8606291705865772
  Basis Set: CC-PVTZ
  Basis Set:
  Basis Set: CC-PVTZ
  Basis Set:
  @DF-RHF Final Energy:  -227.86060121303950
    Total Energy =                       -227.8606012130395015
  Basis Set: CC-PVTZ
  Basis Set:
  Basis Set: CC-PVTZ
  Basis Set:
  @DF-RHF Final Energy:  -227.86063502918148
    Total Energy =                       -227.8606350291814522
  Basis Set: CC-PVTZ
  Basis Set:
  Charge       = 0
  Multiplicity = 1
  Basis Set: CC-PVTZ
  Basis Set:

    Orbital Energies (a.u.)
    -----------------------

    Doubly Occupied:

       1A    -20.593734     2A    -20.561645     3A    -11.376421
       4A    -11.299272     5A     -1.474564     6A     -1.387191
       7A     -0.986960     8A     -0.840639     9A     -0.740475
      10A     -0.691056    11A     -0.673233    12A     -0.625763
      13A     -0.566983    14A     -0.518293    15A     -0.476228
      16A     -0.461069

  @DF-RHF Final Energy:  -227.86063575854183

   => Energetics <=

    Nuclear Repulsion Energy =            121.8512530213380956
    One-Electron Energy =                -552.8767242597024278
    Two-Electron Energy =                 203.1648354798224432
    DFT Exchange-Correlation Energy =       0.0000000000000000
    Empirical Dispersion Energy =           0.0000000000000000
    PCM Polarization Energy =               0.0000000000000000
    EFP Energy =                            0.0000000000000000
    Total Energy =                       -227.8606357585418891
    Molecular point group: c1
  Basis Set: CC-PVTZ
  Basis Set:

  -Total Gradient:
     Atom            X                  Y                   Z
    ------   -----------------  -----------------  -----------------
       1       -0.000013145898     0.000012034081    -0.000024762501
       2       -0.001997880453    -0.002366816626     0.001333977522
       3        0.002948761751     0.003564108745     0.000223408852
       4        0.000017917430    -0.000001254929     0.000002992384
       5        0.000008383338     0.000000422009     0.000008604982
       6       -0.001104734177    -0.001386762228    -0.005934312574
       7        0.000142973190     0.000197376325     0.004381118983
       8       -0.000002275182    -0.000019107378     0.000008972352

  **** Optimization is complete! (in 6 steps) ****
    Final optimized geometry and variables:
    Molecular point group: c1

    Geometry (in Angstrom), charge = 0, multiplicity = 1:

    H            2.228582579324    -0.965875524625     0.644583148421
    C            1.372692070146    -0.344792925197     0.849502443114
    O            0.583452290190    -0.337367555078    -0.320207634078
    H            1.710666678782     0.655493079511     1.101102867740
    H            0.812657413584    -0.756939010799     1.678640861616
    C           -0.447202129542     0.511983287925    -0.320108452005
    O           -1.568335115723     0.181044447661    -0.269543354169
    H           -0.140751689883     1.557575604937    -0.367954280848

  Mulliken Charges: (a.u.)
   Center  Symbol    Alpha    Beta     Spin     Total
       1     H     0.44280  0.44280  0.00000  0.11439
       2     C     3.02401  3.02401  0.00000 -0.04803
       3     O     4.14678  4.14678  0.00000 -0.29356
       4     H     0.46724  0.46724  0.00000  0.06553
       5     H     0.45569  0.45569  0.00000  0.08863
       6     C     2.83219  2.83219  0.00000  0.33562
       7     O     4.16137  4.16137  0.00000 -0.32275
       8     H     0.46992  0.46992  0.00000  0.06017

   Total alpha = 16.00000, Total beta = 16.00000, Total charge =  0.00000
