  ==> Input File <==

--------------------------------------------------------------------------
set {
	reference rhf
	basis 6-31G*
}

set_num_threads( 4 )
memory 2 gb

molecule MOL {
0 1

O	 2.277506	 2.276513	 -1.675799
C	 1.942731	 1.580404	 -2.584708
C	 0.656051	 0.775050	 -2.556446
C	 2.788166	 1.455099	 -3.835585
C	 -0.152375	 0.939550	 -1.272849
H	 0.063716	 1.062883	 -3.424017
H	 0.913933	 -0.270853	 -2.717649
C	 -1.440286	 0.114338	 -1.281295
H	 -0.387723	 1.989850	 -1.132810
H	 0.463313	 0.654410	 -0.425635
C	 -2.259874	 0.272531	 0.000494
H	 -2.051336	 0.402934	 -2.135330
H	 -1.197107	 -0.937635	 -1.423721
C	 -3.549786	 -0.549746	 -0.000374
H	 -2.504141	 1.323673	 0.143508
H	 -1.650316	 -0.016514	 0.854829
C	 -4.809590	 0.315458	 -0.000369
H	 -3.560515	 -1.202009	 -0.871156
H	 -3.561123	 -1.202955	 0.869711
H	 -4.844746	 0.956611	 -0.876632
H	 -5.706986	 -0.295590	 -0.001609
H	 -4.845960	 0.954827	 0.877144
H	 2.221388	 1.764967	 -4.708720
H	 3.671930	 2.070726	 -3.741780
H	 3.081626	 0.421193	 -3.992280

	symmetry c1
}
set optking {
	frozen_dihedral = ("
		15 11 14 18
	")
}

ee = optimize('scf')
oeprop('DIPOLE', 'QUADRUPOLE', 'MULLIKEN_CHARGES')
f=open( 'psi4out.xyz', 'w' )
f.write( "25  " )
f.write( str(ee) + "\n" )
f.write( MOL.save_string_xyz() )
f.close()
--------------------------------------------------------------------------

    Molecular point group: c1
  Charge       = 0
  Multiplicity = 1
  Basis Set: 6-31G*
  Basis Set:
  @DF-RHF Final Energy:  -387.13074546300118
    Total Energy =                       -387.1307454630014036
    Molecular point group: c1
  Basis Set: 6-31G*
  Basis Set:
  Basis Set: 6-31G*
  Basis Set:
  @DF-RHF Final Energy:  -387.13099374391282
    Total Energy =                       -387.1309937439119722
  Basis Set: 6-31G*
  Basis Set:
  Basis Set: 6-31G*
  Basis Set:
  @DF-RHF Final Energy:  -387.13107940408867
    Total Energy =                       -387.1310794040882683
  Basis Set: 6-31G*
  Basis Set:
  Basis Set: 6-31G*
  Basis Set:
  @DF-RHF Final Energy:  -387.13102499327260
    Total Energy =                       -387.1310249932726038
  Basis Set: 6-31G*
  Basis Set:
  Basis Set: 6-31G*
  Basis Set:
  @DF-RHF Final Energy:  -387.13107908425502
    Total Energy =                       -387.1310790842547931
  Basis Set: 6-31G*
  Basis Set:
  Basis Set: 6-31G*
  Basis Set:
  @DF-RHF Final Energy:  -387.13108318124853
    Total Energy =                       -387.1310831812481865
  Basis Set: 6-31G*
  Basis Set:
  Charge       = 0
  Multiplicity = 1
  Basis Set: 6-31G*
  Basis Set:

    Orbital Energies (a.u.)
    -----------------------

    Doubly Occupied:

       1A    -20.550491     2A    -11.326326     3A    -11.231949
       4A    -11.228367     5A    -11.217320     6A    -11.216450
       7A    -11.215105     8A    -11.213281     9A    -11.208890
      10A     -1.395795    11A     -1.092715    12A     -1.054696
      13A     -1.014038    14A     -0.968720    15A     -0.890819
      16A     -0.817074    17A     -0.789026    18A     -0.729832
      19A     -0.658320    20A     -0.652785    21A     -0.625208
      22A     -0.622163    23A     -0.604246    24A     -0.587439
      25A     -0.569412    26A     -0.557644    27A     -0.531838
      28A     -0.529430    29A     -0.515543    30A     -0.490641
      31A     -0.484739    32A     -0.478139    33A     -0.463778
      34A     -0.455276    35A     -0.449280    36A     -0.399355

  @DF-RHF Final Energy:  -387.13108316752994

   => Energetics <=

    Nuclear Repulsion Energy =            439.8011864496453427
    One-Electron Energy =               -1396.1922808644687848
    Two-Electron Energy =                 569.2600112472939600
    DFT Exchange-Correlation Energy =       0.0000000000000000
    Empirical Dispersion Energy =           0.0000000000000000
    PCM Polarization Energy =               0.0000000000000000
    EFP Energy =                            0.0000000000000000
    Total Energy =                       -387.1310831675294821
    Molecular point group: c1
  Basis Set: 6-31G*
  Basis Set:

  -Total Gradient:
     Atom            X                  Y                   Z
    ------   -----------------  -----------------  -----------------
       1        0.000000452950     0.000000214272     0.000003142369
       2       -0.000005394360     0.000004656561     0.000004431579
       3       -0.000005140499    -0.000006308195    -0.000002711033
       4       -0.000004662820    -0.000003340699    -0.000000524542
       5        0.000007470743    -0.000006901644     0.000004760992
       6       -0.000000254592    -0.000000147956    -0.000001145600
       7        0.000000369439    -0.000002166964    -0.000000477901
       8       -0.000003159123     0.000020471822    -0.000006579238
       9       -0.000005002524    -0.000000005383    -0.000000574877
      10        0.000000113928    -0.000000682608     0.000002333266
      11        0.000001512309     0.000028516375     0.001486363043
      12        0.000000096020     0.000000670880    -0.000008596491
      13        0.000002906631     0.000003969196     0.000002439537
      14        0.000688577647    -0.001163803165     0.000552610662
      15       -0.000079102747     0.000159739554    -0.001318571618
      16        0.000009024456     0.000014341119     0.000001963912
      17       -0.000005221617    -0.000008159416    -0.000002105386
      18       -0.000591083424     0.000962321002    -0.000707043761
      19       -0.000008119151    -0.000011826041    -0.000010773820
      20       -0.000008892918    -0.000005551860    -0.000008586747
      21        0.000001192758     0.000004216305     0.000012405293
      22        0.000005968721     0.000010936242    -0.000004425634
      23        0.000000060522    -0.000000282397    -0.000000556497
      24       -0.000002311181    -0.000000213813     0.000002728602
      25        0.000000598828    -0.000000663188    -0.000000506110

  **** Optimization is complete! (in 7 steps) ****
    Final optimized geometry and variables:
    Molecular point group: c1

    Geometry (in Angstrom), charge = 0, multiplicity = 1:

    O            2.781583339819     1.486361498608    -0.217998271681
    C            2.449520430462     0.783390433121    -1.122596592431
    C            1.169219590708    -0.031775539252    -1.086709207164
    C            3.292181512849     0.658647747530    -2.375395609867
    C            0.363425066184     0.132552136374     0.198592262996
    H            0.572101916563     0.247474218166    -1.953819472771
    H            1.434739698537    -1.076370663498    -1.243822434220
    C           -0.917852369238    -0.701856619910     0.198213369136
    H            0.120984316244     1.181801342736     0.334816111158
    H            0.983817956691    -0.144202813857     1.045295596088
    C           -1.732478120320    -0.549491655290     1.485867473149
    H           -1.537492576212    -0.418565521320    -0.651946848557
    H           -0.669063097614    -1.752340006149     0.055155682061
    C           -3.049289028174    -1.358327776541     1.477141139494
    H           -1.954028181397     0.505679428134     1.628304981821
    H           -1.114909753119    -0.845535185291     2.329412549748
    C           -4.299636710653    -0.477279593761     1.451244181790
    H           -3.070099691422    -2.010447422608     0.607527657855
    H           -3.094148236722    -2.009694377200     2.344852178849
    H           -4.302880083890     0.171147321401     0.579111606753
    H           -5.204463188053    -1.076860827946     1.421167450975
    H           -4.350287496796     0.156247066499     2.332089784395
    H            2.720507924438     0.960233531591    -3.248238339552
    H            4.171530330178     1.281350097641    -2.287064335054
    H            3.592976135653    -0.373731021633    -2.528245624509

  Mulliken Charges: (a.u.)
   Center  Symbol    Alpha    Beta     Spin     Total
       1     O     4.26114  4.26114  0.00000 -0.52227
       2     C     2.73571  2.73571  0.00000  0.52858
       3     C     3.21075  3.21075  0.00000 -0.42150
       4     C     3.28664  3.28664  0.00000 -0.57329
       5     C     3.14872  3.14872  0.00000 -0.29744
       6     H     0.41001  0.41001  0.00000  0.17997
       7     H     0.40999  0.40999  0.00000  0.18003
       8     C     3.15583  3.15583  0.00000 -0.31167
       9     H     0.41209  0.41209  0.00000  0.17582
      10     H     0.41220  0.41220  0.00000  0.17560
      11     C     3.15507  3.15507  0.00000 -0.31013
      12     H     0.42497  0.42497  0.00000  0.15006
      13     H     0.42431  0.42431  0.00000  0.15139
      14     C     3.15539  3.15539  0.00000 -0.31077
      15     H     0.41953  0.41953  0.00000  0.16094
      16     H     0.41934  0.41934  0.00000  0.16132
      17     C     3.23975  3.23975  0.00000 -0.47951
      18     H     0.42103  0.42103  0.00000  0.15794
      19     H     0.41960  0.41960  0.00000  0.16080
      20     H     0.42265  0.42265  0.00000  0.15471
      21     H     0.42066  0.42066  0.00000  0.15867
      22     H     0.42074  0.42074  0.00000  0.15853
      23     H     0.40874  0.40874  0.00000  0.18252
      24     H     0.39645  0.39645  0.00000  0.20709
      25     H     0.40870  0.40870  0.00000  0.18261

   Total alpha = 36.00000, Total beta = 36.00000, Total charge = -0.00000
