                              Psi4 1.0.54 Driver

  ==> Input File <==

--------------------------------------------------------------------------
set {
	reference rhf
	basis cc-pvtz
}

set_num_threads( 4 )
memory 2 gb

molecule MOL {
0 1

H	 -0.000105	 1.988529	 0.748933
O	 -0.000098	 1.879786	 -0.188206
C	 -0.000014	 0.545691	 -0.532416
C	 -1.286000	 -0.125171	 -0.046657
C	 1.286016	 -0.125031	 -0.046584
H	 0.000021	 0.481103	 -1.610604
F	 -2.096877	 0.786907	 0.430263
F	 -1.911748	 -0.756376	 -1.007767
F	 -1.041958	 -0.986021	 0.918099
F	 2.317750	 0.468717	 -0.594166
F	 1.336617	 -1.393765	 -0.365123
F	 1.414467	 -0.024806	 1.259108

	symmetry c1
}
set optking {
	frozen_dihedral = ("
		7 4 3 6
	")
}

ee,wfn = optimize('scf', return_wfn=True)
oeprop( wfn, 'DIPOLE', 'QUADRUPOLE', 'MULLIKEN_CHARGES')
f=open( 'psi4out.xyz', 'w' )
f.write( "12  " )
f.write( str(ee) + "\n" )
f.write( MOL.save_string_xyz() )
f.close()
--------------------------------------------------------------------------

    Molecular point group: c1
  Charge       = 0
  Multiplicity = 1
  Basis Set: CC-PVTZ
  Basis Set:
  @DF-RHF Final Energy:  -786.58215575589247
    Total Energy =                       -786.5821557558925861
    Molecular point group: c1
  Basis Set: CC-PVTZ
  Basis Set:
  Basis Set: CC-PVTZ
  Basis Set:
  @DF-RHF Final Energy:  -786.58299249878655
    Total Energy =                       -786.5829924987865525
  Basis Set: CC-PVTZ
  Basis Set:
  Basis Set: CC-PVTZ
  Basis Set:
  @DF-RHF Final Energy:  -786.58387018724682
    Total Energy =                       -786.5838701872462480
  Basis Set: CC-PVTZ
  Basis Set:
  Basis Set: CC-PVTZ
  Basis Set:
  @DF-RHF Final Energy:  -786.58393264583412
    Total Energy =                       -786.5839326458348069
  Basis Set: CC-PVTZ
  Basis Set:
  Basis Set: CC-PVTZ
  Basis Set:
  @DF-RHF Final Energy:  -786.58394333412377
    Total Energy =                       -786.5839433341238873
  Basis Set: CC-PVTZ
  Basis Set:
  Basis Set: CC-PVTZ
  Basis Set:
  @DF-RHF Final Energy:  -786.58394522901040
    Total Energy =                       -786.5839452290100553
  Basis Set: CC-PVTZ
  Basis Set:
  Charge       = 0
  Multiplicity = 1
  Basis Set: CC-PVTZ
  Basis Set:

    Orbital Energies (a.u.)
    -----------------------

    Doubly Occupied:

       1A    -26.357067     2A    -26.356889     3A    -26.356479
       4A    -26.356055     5A    -26.354821     6A    -26.352359
       7A    -20.609737     8A    -11.521467     9A    -11.517562
      10A    -11.351705    11A     -1.771641    12A     -1.765395
      13A     -1.665199    14A     -1.663822    15A     -1.663613
      16A     -1.658939    17A     -1.439661    18A     -1.101001
      19A     -1.000257    20A     -0.943911    21A     -0.871750
      22A     -0.865683    23A     -0.857651    24A     -0.853540
      25A     -0.840830    26A     -0.819401    27A     -0.740374
      28A     -0.737042    29A     -0.734680    30A     -0.729650
      31A     -0.694970    32A     -0.690851    33A     -0.689424
      34A     -0.684159    35A     -0.674527    36A     -0.668340
      37A     -0.662318    38A     -0.655572    39A     -0.622653
      40A     -0.551357    41A     -0.509457

  @DF-RHF Final Energy:  -786.58394554396625

   => Energetics <=

    Nuclear Repulsion Energy =            670.1149973633658874
    One-Electron Energy =               -2427.4742701405293701
    Two-Electron Energy =                 970.7753272331967764
    DFT Exchange-Correlation Energy =       0.0000000000000000
    Empirical Dispersion Energy =           0.0000000000000000
    PCM Polarization Energy =               0.0000000000000000
    EFP Energy =                            0.0000000000000000
    Total Energy =                       -786.5839455439665926
    Molecular point group: c1
  Basis Set: CC-PVTZ
  Basis Set:

  -Total Gradient:
     Atom            X                  Y                   Z
    ------   -----------------  -----------------  -----------------
       1       -0.000005718584    -0.000003791788    -0.000006525357
       2        0.000005570582    -0.000012573314     0.000009728924
       3       -0.001310651845     0.002522846230     0.000344467385
       4       -0.000737598958    -0.000174547534    -0.002447126442
       5       -0.000012888953     0.000017839469     0.000042686679
       6        0.001311239347    -0.002143197618     0.000156260151
       7        0.000786939413    -0.000196345080     0.001942463829
       8        0.000001264930     0.000012433742    -0.000003417483
       9        0.000025083196    -0.000001377295    -0.000016463245
      10       -0.000022427390     0.000009172199     0.000006380065
      11       -0.000033302077    -0.000039954770    -0.000012579304
      12       -0.000007509676     0.000009495762    -0.000015875208

  **** Optimization is complete! (in 7 steps) ****
    Final optimized geometry and variables:
    Molecular point group: c1

    Geometry (in Angstrom), charge = 0, multiplicity = 1:

    H           -0.074808776964     2.045159020801     0.752990848194
    O           -0.007878575438     1.920613249737    -0.179113687817
    C           -0.003065583811     0.587710778268    -0.514060794447
    C           -1.283644127153    -0.159453865514    -0.056506742710
    C            1.283298957584    -0.078859582646    -0.027898312924
    H            0.025271788925     0.518280699904    -1.590410248965
    F           -2.173588046698     0.686041870654     0.400235283014
    F           -1.815094829319    -0.809572105290    -1.064544805714
    F           -1.057217092599    -1.031163107934     0.899917416768
    F            2.314750549912     0.495512878299    -0.596448730988
    F            1.310949893561    -1.352358572026    -0.339029599873
    F            1.431614737044     0.037883082970     1.273101273659

  Mulliken Charges: (a.u.)
   Center  Symbol    Alpha    Beta     Spin     Total
       1     H     0.38326  0.38326  0.00000  0.23348
       2     O     4.18263  4.18263  0.00000 -0.36526
       3     C     3.01910  3.01910  0.00000 -0.03819
       4     C     2.67550  2.67550  0.00000  0.64900
       5     C     2.67888  2.67888  0.00000  0.64225
       6     H     0.42882  0.42882  0.00000  0.14236
       7     F     4.60324  4.60324  0.00000 -0.20649
       8     F     4.60518  4.60518  0.00000 -0.21036
       9     F     4.60424  4.60424  0.00000 -0.20849
      10     F     4.60206  4.60206  0.00000 -0.20412
      11     F     4.60606  4.60606  0.00000 -0.21213
      12     F     4.61102  4.61102  0.00000 -0.22204

   Total alpha = 41.00000, Total beta = 41.00000, Total charge =  0.00000

*** Psi4 exiting successfully. Buy a developer a beer!
