  ==> Input File <==

--------------------------------------------------------------------------
set {
	reference rhf
	basis 6-31G*
}

set_num_threads( 4 )
memory 2 gb

molecule MOL {
0 1

H	 2.443695	 -0.844015	 -0.850366
O	 2.016064	 -0.864478	 0.000222
C	 1.050492	 0.053836	 0.000068
C	 -0.318135	 -0.576402	 0.000164
O	 1.285279	 1.218255	 -0.000078
C	 -1.454360	 0.441875	 -0.000474
H	 -0.374042	 -1.230163	 -0.866135
H	 -0.374274	 -1.229227	 0.867154
C	 -2.826123	 -0.230780	 0.000056
H	 -1.357605	 1.085198	 -0.868380
H	 -1.357504	 1.086451	 0.866496
H	 -2.959731	 -0.858053	 -0.876869
H	 -3.619374	 0.509403	 -0.000080
H	 -2.959371	 -0.857318	 0.877556

	symmetry c1
}
set optking {
	frozen_dihedral = ("
		1 2 3 5
	")
}

ee = optimize('scf')
oeprop('DIPOLE', 'QUADRUPOLE', 'MULLIKEN_CHARGES')
f=open( 'psi4out.xyz', 'w' )
f.write( "14  " )
f.write( str(ee) + "\n" )
f.write( MOL.save_string_xyz() )
f.close()
--------------------------------------------------------------------------

    Molecular point group: c1
  Charge       = 0
  Multiplicity = 1
  Basis Set: 6-31G*
  Basis Set:
  @DF-RHF Final Energy:  -305.86126956596058
    Total Energy =                       -305.8612695659602423
    Molecular point group: c1
  Basis Set: 6-31G*
  Basis Set:
  Basis Set: 6-31G*
  Basis Set:
  @DF-RHF Final Energy:  -305.85995660606329
    Total Energy =                       -305.8599566060634629
  Basis Set: 6-31G*
  Basis Set:
  Basis Set: 6-31G*
  Basis Set:
  @DF-RHF Final Energy:  -305.86247732149900
    Total Energy =                       -305.8624773214990569
  Basis Set: 6-31G*
  Basis Set:
  Basis Set: 6-31G*
  Basis Set:
  @DF-RHF Final Energy:  -305.86288295267309
    Total Energy =                       -305.8628829526730897
  Basis Set: 6-31G*
  Basis Set:
  Basis Set: 6-31G*
  Basis Set:
  @DF-RHF Final Energy:  -305.86288771910858
    Total Energy =                       -305.8628877191085849
  Basis Set: 6-31G*
  Basis Set:
  Charge       = 0
  Multiplicity = 1
  Basis Set: 6-31G*
  Basis Set:

    Orbital Energies (a.u.)
    -----------------------

    Doubly Occupied:

       1A    -20.596750     2A    -20.561358     3A    -11.381904
       4A    -11.241622     5A    -11.225924     6A    -11.217752
       7A     -1.461869     8A     -1.367276     9A     -1.082421
      10A     -0.976877    11A     -0.852922    12A     -0.794376
      13A     -0.707560    14A     -0.678526    15A     -0.662503
      16A     -0.628111    17A     -0.578324    18A     -0.560407
      19A     -0.542979    20A     -0.504971    21A     -0.496061
      22A     -0.482810    23A     -0.480361    24A     -0.444399

  @DF-RHF Final Energy:  -305.86288827755789

   => Energetics <=

    Nuclear Repulsion Energy =            239.2289903000185802
    One-Electron Energy =                -891.1276345497338980
    Two-Electron Energy =                 346.0357559721576308
    DFT Exchange-Correlation Energy =       0.0000000000000000
    Empirical Dispersion Energy =           0.0000000000000000
    PCM Polarization Energy =               0.0000000000000000
    EFP Energy =                            0.0000000000000000
    Total Energy =                       -305.8628882775576585
    Molecular point group: c1
  Basis Set: 6-31G*
  Basis Set:

  -Total Gradient:
     Atom            X                  Y                   Z
    ------   -----------------  -----------------  -----------------
       1       -0.005429529516    -0.006087145713    -0.003453935128
       2        0.006455731264     0.007683352615     0.007913471572
       3       -0.000422420750    -0.001593676208    -0.012240298358
       4        0.000010383468     0.000019992551    -0.000074360131
       5       -0.000630634429    -0.000018901712     0.007799608094
       6       -0.000008397627     0.000002142715     0.000034519336
       7        0.000004573848     0.000000139200     0.000019984373
       8        0.000004789703     0.000006236190     0.000019432678
       9        0.000001928426    -0.000005385959    -0.000012638600
      10        0.000002271076     0.000000345018    -0.000006849623
      11        0.000008366938    -0.000004515895     0.000000022386
      12       -0.000001472041    -0.000005306598    -0.000001609150
      13        0.000006779190     0.000000388403    -0.000003772227
      14       -0.000002369559     0.000002335395     0.000006424778

  **** Optimization is complete! (in 6 steps) ****
    Final optimized geometry and variables:
    Molecular point group: c1

    Geometry (in Angstrom), charge = 0, multiplicity = 1:

    H            2.565498951466    -0.881782548844    -0.744567640092
    O            2.043656817426    -0.865792332015     0.048845214973
    C            1.053760680453     0.061982155909    -0.029329474784
    C           -0.317789673520    -0.562695814163    -0.013925922230
    O            1.277964437324     1.221551389061    -0.013758252204
    C           -1.458199412761     0.449690387735     0.016031278342
    H           -0.389193201407    -1.212300864129    -0.883720899478
    H           -0.353769240710    -1.226519865091     0.846148887051
    C           -2.827797260406    -0.227354576717     0.033082107532
    H           -1.379708415983     1.104081695350    -0.845786541685
    H           -1.347924162945     1.084392986964     0.888735098337
    H           -2.974813501822    -0.845995592340    -0.847937119246
    H           -3.623405032997     0.509985248417     0.054413452785
    H           -2.943677719080    -0.863418127250     0.906109131420

  Mulliken Charges: (a.u.)
   Center  Symbol    Alpha    Beta     Spin     Total
       1     H     0.26573  0.26573  0.00000  0.46854
       2     O     4.36777  4.36777  0.00000 -0.73553
       3     C     2.63074  2.63074  0.00000  0.73853
       4     C     3.20821  3.20821  0.00000 -0.41641
       5     O     4.25077  4.25077  0.00000 -0.50153
       6     C     3.15272  3.15272  0.00000 -0.30543
       7     H     0.40665  0.40665  0.00000  0.18670
       8     H     0.39719  0.39719  0.00000  0.20562
       9     C     3.24277  3.24277  0.00000 -0.48554
      10     H     0.41177  0.41177  0.00000  0.17645
      11     H     0.40933  0.40933  0.00000  0.18134
      12     H     0.42164  0.42164  0.00000  0.15671
      13     H     0.41438  0.41438  0.00000  0.17124
      14     H     0.42034  0.42034  0.00000  0.15932

   Total alpha = 24.00000, Total beta = 24.00000, Total charge = -0.00000
