  ==> Input File <==

--------------------------------------------------------------------------
set {
	reference rhf
	basis 6-31G*
}

set_num_threads( 4 )
memory 2 gb

molecule MOL {
0 1

H	 -3.135461	 -1.215070	 0.001379
O	 -2.310168	 -0.871793	 -0.309793
C	 -2.026376	 0.340750	 0.341611
C	 -0.673256	 0.843270	 -0.132153
H	 -2.792215	 1.080697	 0.115987
H	 -2.013526	 0.200402	 1.421792
C	 0.486613	 -0.083066	 0.235839
H	 -0.715586	 0.970948	 -1.210718
H	 -0.508072	 1.829858	 0.297090
C	 0.150548	 -1.563186	 0.045788
H	 0.771832	 0.096711	 1.267267
H	 1.353664	 0.168714	 -0.373810
C	 1.311602	 -2.488637	 0.407958
H	 -0.714798	 -1.816215	 0.654779
H	 -0.141966	 -1.739617	 -0.987533
H	 1.604525	 -2.360512	 1.446066
H	 1.043985	 -3.531273	 0.265702
H	 2.183019	 -2.283910	 -0.207859

	symmetry c1
}
set optking {
	frozen_dihedral = ("
		10 7 4 8
	")
}

ee = optimize('scf')
oeprop('DIPOLE', 'QUADRUPOLE', 'MULLIKEN_CHARGES')
f=open( 'psi4out.xyz', 'w' )
f.write( "18  " )
f.write( str(ee) + "\n" )
f.write( MOL.save_string_xyz() )
f.close()
--------------------------------------------------------------------------

    Molecular point group: c1
  Charge       = 0
  Multiplicity = 1
  Basis Set: 6-31G*
  Basis Set:
  @DF-RHF Final Energy:  -271.16565310817816
    Total Energy =                       -271.1656531081781623
    Molecular point group: c1
  Basis Set: 6-31G*
  Basis Set:
  Basis Set: 6-31G*
  Basis Set:
  @DF-RHF Final Energy:  -271.17307321070558
    Total Energy =                       -271.1730732107057520
  Basis Set: 6-31G*
  Basis Set:
  Basis Set: 6-31G*
  Basis Set:
  @DF-RHF Final Energy:  -271.17465334332849
    Total Energy =                       -271.1746533433284867
  Basis Set: 6-31G*
  Basis Set:
  Basis Set: 6-31G*
  Basis Set:
  @DF-RHF Final Energy:  -271.17503110773112
    Total Energy =                       -271.1750311077312858
  Basis Set: 6-31G*
  Basis Set:
  Basis Set: 6-31G*
  Basis Set:
  @DF-RHF Final Energy:  -271.17505099845420
    Total Energy =                       -271.1750509984539121
  Basis Set: 6-31G*
  Basis Set:
  Basis Set: 6-31G*
  Basis Set:
  @DF-RHF Final Energy:  -271.17514760778340
    Total Energy =                       -271.1751476077834582
  Basis Set: 6-31G*
  Basis Set:
  Basis Set: 6-31G*
  Basis Set:
  @DF-RHF Final Energy:  -271.17516224033477
    Total Energy =                       -271.1751622403347710
  Basis Set: 6-31G*
  Basis Set:
  Charge       = 0
  Multiplicity = 1
  Basis Set: 6-31G*
  Basis Set:

    Orbital Energies (a.u.)
    -----------------------

    Doubly Occupied:

       1A    -20.553439     2A    -11.269267     3A    -11.213284
       4A    -11.210294     5A    -11.202905     6A    -11.201096
       7A     -1.360279     8A     -1.071514     9A     -1.005899
      10A     -0.912705    11A     -0.828816    12A     -0.770095
      13A     -0.702226    14A     -0.649473    15A     -0.617747
      16A     -0.576676    17A     -0.569807    18A     -0.551812
      19A     -0.530596    20A     -0.504130    21A     -0.485114
      22A     -0.464436    23A     -0.450031    24A     -0.447905
      25A     -0.425910

  @DF-RHF Final Energy:  -271.17516293933124

   => Energetics <=

    Nuclear Repulsion Energy =            254.8569237137801622
    One-Electron Energy =                -872.9132587961736363
    Two-Electron Energy =                 346.8811721430623720
    DFT Exchange-Correlation Energy =       0.0000000000000000
    Empirical Dispersion Energy =           0.0000000000000000
    PCM Polarization Energy =               0.0000000000000000
    EFP Energy =                            0.0000000000000000
    Total Energy =                       -271.1751629393311305
    Molecular point group: c1
  Basis Set: 6-31G*
  Basis Set:

  -Total Gradient:
     Atom            X                  Y                   Z
    ------   -----------------  -----------------  -----------------
       1       -0.000003406517    -0.000009564412    -0.000006821757
       2       -0.000017954081    -0.000007890505     0.000007498238
       3        0.000030706451    -0.000029679687    -0.000029061968
       4       -0.003787309143    -0.004343448961     0.000962716922
       5        0.000014722257     0.000010348304    -0.000004303957
       6        0.000018575158     0.000011235204    -0.000000044165
       7        0.002263370303     0.001053997168    -0.004292188469
       8        0.002619646753     0.003428029768     0.000327306402
       9       -0.000000430028     0.000012420871     0.000002805604
      10       -0.001112382895    -0.000116191660     0.003051426904
      11        0.000001694171    -0.000008910943    -0.000004646368
      12       -0.000003054819     0.000014962204    -0.000002912839
      13       -0.000014206796     0.000000476928    -0.000041368946
      14       -0.000041973231    -0.000002558164     0.000015630164
      15        0.000019597510    -0.000001988889     0.000014845312
      16       -0.000012330933     0.000003050146    -0.000006230242
      17        0.000005857418    -0.000013615013    -0.000001542231
      18        0.000018878420    -0.000000672358     0.000006891398

  **** Optimization is complete! (in 8 steps) ****
    Final optimized geometry and variables:
    Molecular point group: c1

    Geometry (in Angstrom), charge = 0, multiplicity = 1:

    H           -2.856998268781    -0.267128929512    -0.190876234209
    O           -2.008308211766    -0.008282967191    -0.520911576200
    C           -1.494423685712     1.035363849394     0.267561575709
    C           -0.110263073673     1.417479793599    -0.232152990333
    H           -2.147505821328     1.903633830358     0.204467779126
    H           -1.446437753680     0.740272206256     1.315259516885
    C            1.050887527787     0.486700492203     0.154502744336
    H           -0.149382229988     1.549521901557    -1.309758108820
    H            0.116333755380     2.403750085408     0.169248713902
    C            0.809992814060    -1.017599374502    -0.001925058712
    H            1.313623040780     0.678856871793     1.194395126732
    H            1.922049151362     0.774682943417    -0.429493998107
    C            2.054161266853    -1.834150466330     0.348354405327
    H           -0.014410828608    -1.326456199551     0.631211709445
    H            0.502370611969    -1.237664899238    -1.019710571515
    H            2.368686290390    -1.654491124517     1.373232906913
    H            1.867489774043    -2.898680327960     0.243117436915
    H            2.888491603217    -1.580191280289    -0.299966095870

  Mulliken Charges: (a.u.)
   Center  Symbol    Alpha    Beta     Spin     Total
       1     H     0.28115  0.28115  0.00000  0.43771
       2     O     4.36796  4.36796  0.00000 -0.73592
       3     C     3.00062  3.00062  0.00000 -0.00124
       4     C     3.15948  3.15948  0.00000 -0.31896
       5     H     0.42831  0.42831  0.00000  0.14339
       6     H     0.43202  0.43202  0.00000  0.13595
       7     C     3.15433  3.15433  0.00000 -0.30866
       8     H     0.41255  0.41255  0.00000  0.17490
       9     H     0.42263  0.42263  0.00000  0.15474
      10     C     3.14617  3.14617  0.00000 -0.29234
      11     H     0.42725  0.42725  0.00000  0.14551
      12     H     0.42201  0.42201  0.00000  0.15598
      13     C     3.24108  3.24108  0.00000 -0.48216
      14     H     0.42018  0.42018  0.00000  0.15964
      15     H     0.41579  0.41579  0.00000  0.16842
      16     H     0.42475  0.42475  0.00000  0.15049
      17     H     0.42021  0.42021  0.00000  0.15958
      18     H     0.42352  0.42352  0.00000  0.15296

   Total alpha = 25.00000, Total beta = 25.00000, Total charge = -0.00000
