  ==> Input File <==

--------------------------------------------------------------------------
set {
	reference rhf
	basis 6-31G*
}

set_num_threads( 4 )
memory 2 gb

molecule MOL {
0 1

H	 2.591676	 2.013956	 0.335017
O	 3.341076	 1.666752	 -0.126416
C	 3.569581	 0.339145	 0.272707
C	 2.539767	 -0.640285	 -0.279495
H	 4.553106	 0.084646	 -0.100901
H	 3.608576	 0.269204	 1.359154
C	 1.115811	 -0.397273	 0.226630
H	 2.556196	 -0.582511	 -1.364741
H	 2.852081	 -1.648031	 -0.010655
C	 0.172572	 0.094407	 -0.874899
H	 1.142737	 0.330535	 1.032816
H	 0.719681	 -1.320256	 0.650334
C	 -1.287028	 0.272036	 -0.440897
H	 0.546813	 1.035956	 -1.272740
H	 0.202751	 -0.615577	 -1.698739
C	 -1.523948	 1.385485	 0.583104
H	 -1.883535	 0.482577	 -1.326147
H	 -1.660686	 -0.670010	 -0.042440
C	 -3.005286	 1.594059	 0.904928
H	 -1.105072	 2.316690	 0.204279
H	 -0.991992	 1.165102	 1.505469
C	 -3.244135	 2.700618	 1.931642
H	 -3.542821	 1.829944	 -0.010988
H	 -3.427899	 0.661992	 1.274435
H	 -2.861404	 3.653565	 1.577197
H	 -4.302868	 2.825451	 2.136916
H	 -2.749357	 2.476465	 2.872553

	symmetry c1
}
set optking {
	frozen_dihedral = ("
		10 7 4 8
	")
}

ee = optimize('scf')
oeprop('DIPOLE', 'QUADRUPOLE', 'MULLIKEN_CHARGES')
f=open( 'psi4out.xyz', 'w' )
f.write( "27  " )
f.write( str(ee) + "\n" )
f.write( MOL.save_string_xyz() )
f.close()
--------------------------------------------------------------------------

    Molecular point group: c1
  Charge       = 0
  Multiplicity = 1
  Basis Set: 6-31G*
  Basis Set:
  @DF-RHF Final Energy:  -388.27655265160047
    Total Energy =                       -388.2765526516002410
    Molecular point group: c1
  Basis Set: 6-31G*
  Basis Set:
  Basis Set: 6-31G*
  Basis Set:
  @DF-RHF Final Energy:  -388.27687295403899
    Total Energy =                       -388.2768729540389359
  Basis Set: 6-31G*
  Basis Set:
  Basis Set: 6-31G*
  Basis Set:
  @DF-RHF Final Energy:  -388.27692178686334
    Total Energy =                       -388.2769217868632268
  Basis Set: 6-31G*
  Basis Set:
  Basis Set: 6-31G*
  Basis Set:
  @DF-RHF Final Energy:  -388.27693850620210
    Total Energy =                       -388.2769385062030096
  Basis Set: 6-31G*
  Basis Set:
  Basis Set: 6-31G*
  Basis Set:
  @DF-RHF Final Energy:  -388.27696783253515
    Total Energy =                       -388.2769678325349787
  Basis Set: 6-31G*
  Basis Set:
  Basis Set: 6-31G*
  Basis Set:
  @DF-RHF Final Energy:  -388.27697283646881
    Total Energy =                       -388.2769728364683033
  Basis Set: 6-31G*
  Basis Set:
  Basis Set: 6-31G*
  Basis Set:
  @DF-RHF Final Energy:  -388.27697393195774
    Total Energy =                       -388.2769739319579685
  Basis Set: 6-31G*
  Basis Set:
  Charge       = 0
  Multiplicity = 1
  Basis Set: 6-31G*
  Basis Set:

    Orbital Energies (a.u.)
    -----------------------

    Doubly Occupied:

       1A    -20.552391     2A    -11.266745     3A    -11.220550
       4A    -11.216981     5A    -11.216477     6A    -11.216088
       7A    -11.215355     8A    -11.215249     9A    -11.210245
      10A     -1.359045    11A     -1.094572    12A     -1.060444
      13A     -1.011352    14A     -0.948976    15A     -0.887947
      16A     -0.821352    17A     -0.802459    18A     -0.778610
      19A     -0.694678    20A     -0.649745    21A     -0.641467
      22A     -0.612612    23A     -0.594590    24A     -0.583150
      25A     -0.575273    26A     -0.558315    27A     -0.542791
      28A     -0.532622    29A     -0.511273    30A     -0.495620
      31A     -0.488427    32A     -0.472156    33A     -0.466581
      34A     -0.457046    35A     -0.451937    36A     -0.440727
      37A     -0.423650

  @DF-RHF Final Energy:  -388.27697411349766

   => Energetics <=

    Nuclear Repulsion Energy =            466.5487025507153476
    One-Electron Energy =               -1451.0763554404670685
    Two-Electron Energy =                 596.2506787762542899
    DFT Exchange-Correlation Energy =       0.0000000000000000
    Empirical Dispersion Energy =           0.0000000000000000
    PCM Polarization Energy =               0.0000000000000000
    EFP Energy =                            0.0000000000000000
    Total Energy =                       -388.2769741134974311
    Molecular point group: c1
  Basis Set: 6-31G*
  Basis Set:

  -Total Gradient:
     Atom            X                  Y                   Z
    ------   -----------------  -----------------  -----------------
       1       -0.000003739178     0.000004856514     0.000000769300
       2       -0.000007213579    -0.000000778488     0.000003529439
       3        0.000003837910    -0.000001498896    -0.000007457758
       4       -0.000458697123    -0.002595030186    -0.000320477697
       5       -0.000001551115    -0.000008222474     0.000000143113
       6       -0.000002097650     0.000005359874     0.000000861143
       7        0.000439989033     0.002065372893     0.000481374286
       8        0.000295735168     0.001703919157     0.000157851550
       9        0.000005911763     0.000001356793    -0.000005909705
      10       -0.000282186285    -0.001182376138    -0.000327931729
      11       -0.000005960747    -0.000006670301     0.000014797104
      12        0.000007986578     0.000016030367    -0.000000424602
      13        0.000004379379    -0.000003797399     0.000003361515
      14        0.000004851466     0.000000527873     0.000002562441
      15       -0.000001665889     0.000001655516    -0.000005930785
      16       -0.000001519674     0.000002340640    -0.000005580014
      17        0.000006383412    -0.000005183566    -0.000001406754
      18       -0.000003294385     0.000000301720     0.000005351768
      19       -0.000001324093     0.000004813498    -0.000002399909
      20       -0.000001160232     0.000003560346    -0.000000184700
      21       -0.000000628429    -0.000002215567     0.000002332838
      22       -0.000000084372    -0.000002606383     0.000002559825
      23        0.000000039840    -0.000002341299    -0.000000220583
      24        0.000001753664     0.000001083752     0.000002138133
      25        0.000000500292    -0.000001130972    -0.000000977514
      26        0.000000464320     0.000000215385    -0.000000514016
      27       -0.000000710065     0.000000457339     0.000001783310

  **** Optimization is complete! (in 8 steps) ****
    Final optimized geometry and variables:
    Molecular point group: c1

    Geometry (in Angstrom), charge = 0, multiplicity = 1:

    H            2.270504632223     1.171134595860     0.103731631139
    O            3.051636593965     0.874073594266    -0.340674208167
    C            3.332910425161    -0.451236731690     0.032231818716
    C            2.337217654154    -1.451791499288    -0.544728436065
    H            4.325900248240    -0.659050570185    -0.345365229187
    H            3.372445354666    -0.541247929062     1.117016173919
    C            0.888126131553    -1.245475997383    -0.048377761983
    H            2.373906016362    -1.358222347144    -1.626117734229
    H            2.682136163014    -2.452768476121    -0.299584958233
    C           -0.058143972959    -0.730795139325    -1.138838504615
    H            0.883721784963    -0.566496633755     0.801773194462
    H            0.494411795090    -2.184192496083     0.332643736532
    C           -1.513284143629    -0.545899381926    -0.694606506294
    H            0.324476483790     0.207935847414    -1.535170246897
    H           -0.036007981746    -1.435935031028    -1.966539322832
    C           -1.739973629565     0.579065374346     0.319433137503
    H           -2.116986109076    -0.342776762457    -1.576601896239
    H           -1.885848806803    -1.482661611197    -0.282827102383
    C           -3.217801708197     0.792595046925     0.654027236689
    H           -1.325870376109     1.506294803500    -0.075243353206
    H           -1.199840835071     0.368952803971     1.239693266148
    C           -3.445827766774     1.912469769020     1.668648716156
    H           -3.764455799812     1.016576282485    -0.259374977458
    H           -3.636273146509    -0.134531612934     1.040033942950
    H           -3.067026664714     2.860771899869     1.297798564386
    H           -4.502342300866     2.040131457751     1.883135947235
    H           -2.941559210455     1.700411390729     2.607355759910

  Mulliken Charges: (a.u.)
   Center  Symbol    Alpha    Beta     Spin     Total
       1     H     0.27932  0.27932  0.00000  0.44136
       2     O     4.37132  4.37132  0.00000 -0.74264
       3     C     2.99951  2.99951  0.00000  0.00097
       4     C     3.16372  3.16372  0.00000 -0.32743
       5     H     0.41534  0.41534  0.00000  0.16932
       6     H     0.43171  0.43171  0.00000  0.13657
       7     C     3.16612  3.16612  0.00000 -0.33225
       8     H     0.41239  0.41239  0.00000  0.17521
       9     H     0.42081  0.42081  0.00000  0.15838
      10     C     3.15589  3.15589  0.00000 -0.31179
      11     H     0.42759  0.42759  0.00000  0.14482
      12     H     0.41786  0.41786  0.00000  0.16428
      13     C     3.15396  3.15396  0.00000 -0.30792
      14     H     0.41930  0.41930  0.00000  0.16139
      15     H     0.41944  0.41944  0.00000  0.16112
      16     C     3.15362  3.15362  0.00000 -0.30723
      17     H     0.42066  0.42066  0.00000  0.15868
      18     H     0.42385  0.42385  0.00000  0.15230
      19     C     3.15091  3.15091  0.00000 -0.30182
      20     H     0.42530  0.42530  0.00000  0.14941
      21     H     0.42408  0.42408  0.00000  0.15184
      22     C     3.23941  3.23941  0.00000 -0.47882
      23     H     0.42236  0.42236  0.00000  0.15527
      24     H     0.42275  0.42275  0.00000  0.15450
      25     H     0.42162  0.42162  0.00000  0.15676
      26     H     0.41883  0.41883  0.00000  0.16234
      27     H     0.42232  0.42232  0.00000  0.15535

   Total alpha = 37.00000, Total beta = 37.00000, Total charge =  0.00000
