                              Psi4 1.0.54 Driver

  ==> Input File <==

--------------------------------------------------------------------------
set {
	reference rhf
	basis cc-pvtz
}

set_num_threads( 4 )
memory 2 gb

molecule MOL {
0 1

O	 2.868453	 1.353349	 -0.000734
C	 2.841259	 0.166180	 -0.000295
C	 1.542794	 -0.614730	 -0.000853
C	 4.113372	 -0.651103	 0.000743
C	 0.288398	 0.247429	 0.000314
H	 1.557171	 -1.273139	 -0.866508
H	 1.557484	 -1.274998	 0.863344
C	 -0.001207	 0.859918	 1.367829
H	 -0.555489	 -0.352363	 -0.320965
H	 0.395825	 1.032300	 -0.739666
C	 -1.256881	 1.726746	 1.382668
H	 -0.105307	 0.067101	 2.105311
H	 0.850147	 1.458393	 1.684509
C	 -1.553562	 2.342635	 2.746999
H	 -2.108484	 1.129322	 1.066488
H	 -1.153455	 2.520012	 0.646353
C	 -2.809766	 3.207327	 2.753906
H	 -1.658277	 1.550377	 3.483410
H	 -0.703368	 2.941020	 3.063266
H	 -3.684319	 2.628982	 2.475131
H	 -2.991608	 3.628709	 3.735941
H	 -2.722256	 4.030032	 2.052093
H	 4.145311	 -1.294584	 -0.871587
H	 4.970080	 0.004978	 -0.000091
H	 4.145223	 -1.291980	 0.874988

	symmetry c1
}
set optking {
	frozen_dihedral = ("
		9 5 3 6
	")
}

ee,wfn = optimize('scf', return_wfn=True)
oeprop( wfn, 'DIPOLE', 'QUADRUPOLE', 'MULLIKEN_CHARGES')
f=open( 'psi4out.xyz', 'w' )
f.write( "25  " )
f.write( str(ee) + "\n" )
f.write( MOL.save_string_xyz() )
f.close()
--------------------------------------------------------------------------

    Molecular point group: c1
  Charge       = 0
  Multiplicity = 1
  Basis Set: CC-PVTZ
  Basis Set:
  @DF-RHF Final Energy:  -387.27354387898146
    Total Energy =                       -387.2735438789816271
    Molecular point group: c1
  Basis Set: CC-PVTZ
  Basis Set:
  Basis Set: CC-PVTZ
  Basis Set:
  @DF-RHF Final Energy:  -387.27372334853584
    Total Energy =                       -387.2737233485361230
  Basis Set: CC-PVTZ
  Basis Set:
  Basis Set: CC-PVTZ
  Basis Set:
  @DF-RHF Final Energy:  -387.27204428511402
    Total Energy =                       -387.2720442851139069
  Basis Set: CC-PVTZ
  Basis Set:
  Basis Set: CC-PVTZ
  Basis Set:
  @DF-RHF Final Energy:  -387.27385108943315
    Total Energy =                       -387.2738510894329238
  Basis Set: CC-PVTZ
  Basis Set:
  @DF-RHF Final Energy:  -387.27388899404940
    Total Energy =                       -387.2738889940492300
  @DF-RHF Final Energy:  -387.27390821579741
    Total Energy =                       -387.2739082157976327
  Basis Set: CC-PVTZ
  Basis Set:
  @DF-RHF Final Energy:  -387.27393025634802
    Total Energy =                       -387.2739302563475121
  Basis Set: CC-PVTZ
  Basis Set:
  Basis Set: CC-PVTZ
  Basis Set:
  @DF-RHF Final Energy:  -387.27393807445731
    Total Energy =                       -387.2739380744570781
  Basis Set: CC-PVTZ
  Basis Set:
  Basis Set: CC-PVTZ
  Basis Set:
  @DF-RHF Final Energy:  -387.27394226685743
    Total Energy =                       -387.2739422668574889
  Basis Set: CC-PVTZ
  Basis Set:
  Charge       = 0
  Multiplicity = 1
  Basis Set: CC-PVTZ
  Basis Set:

    Orbital Energies (a.u.)
    -----------------------

    Doubly Occupied:

       1A    -20.539498     2A    -11.321657     3A    -11.230581
       4A    -11.227141     5A    -11.215212     6A    -11.210184
       7A    -11.209578     8A    -11.208115     9A    -11.203891
      10A     -1.399855    11A     -1.092471    12A     -1.056037
      13A     -1.014811    14A     -0.968502    15A     -0.889701
      16A     -0.815686    17A     -0.788345    18A     -0.729285
      19A     -0.670365    20A     -0.638883    21A     -0.633531
      22A     -0.625841    23A     -0.592228    24A     -0.585824
      25A     -0.574537    26A     -0.557669    27A     -0.534535
      28A     -0.526440    29A     -0.516479    30A     -0.499910
      31A     -0.483036    32A     -0.475079    33A     -0.460814
      34A     -0.459423    35A     -0.441682    36A     -0.403308

  @DF-RHF Final Energy:  -387.27394310076659

   => Energetics <=

    Nuclear Repulsion Energy =            447.9325477162882407
    One-Electron Energy =               -1412.8127097148417306
    Two-Electron Energy =                 577.6062188977871301
    DFT Exchange-Correlation Energy =       0.0000000000000000
    Empirical Dispersion Energy =           0.0000000000000000
    PCM Polarization Energy =               0.0000000000000000
    EFP Energy =                            0.0000000000000000
    Total Energy =                       -387.2739431007663597
    Molecular point group: c1
  Basis Set: CC-PVTZ
  Basis Set:

  -Total Gradient:
     Atom            X                  Y                   Z
    ------   -----------------  -----------------  -----------------
       1        0.000005372313     0.000005521268     0.000008919268
       2        0.000035376792    -0.000016107096    -0.000047055389
       3        0.000838403720     0.001177837417    -0.001094208971
       4       -0.000027751490    -0.000037904921    -0.000005822905
       5       -0.000425091277    -0.000658417251     0.001649254210
       6       -0.000623591257    -0.000910445617     0.000651602976
       7        0.000003991782    -0.000002454000     0.000015541467
       8        0.000041029278     0.000083339718     0.000030901822
       9        0.000208753412     0.000365651103    -0.001187762637
      10        0.000006681335     0.000007798370     0.000001182500
      11       -0.000005656311    -0.000020736600     0.000008740075
      12       -0.000016540236    -0.000017495368    -0.000017907789
      13       -0.000022515444    -0.000013680314    -0.000015612636
      14       -0.000014956680    -0.000035453511     0.000004931504
      15       -0.000026142779    -0.000006668968    -0.000000984630
      16        0.000003008999     0.000008991590    -0.000010267988
      17        0.000020006811     0.000020679026    -0.000008817824
      18       -0.000004696821    -0.000016242603     0.000010242841
      19        0.000004047628     0.000000979419     0.000001799609
      20       -0.000002153086    -0.000011331312     0.000005612860
      21        0.000008358999     0.000002012121    -0.000000537899
      22       -0.000006392247     0.000015589614    -0.000014512887
      23        0.000017293522     0.000082016433     0.000071471741
      24       -0.000028600220    -0.000051699445     0.000026742751
      25        0.000011763260     0.000028220928    -0.000083452068

  **** Optimization is complete! (in 10 steps) ****
    Final optimized geometry and variables:
    Molecular point group: c1

    Geometry (in Angstrom), charge = 0, multiplicity = 1:

    O            2.239710670266     0.346787461657    -1.121913214241
    C            2.164061214471    -0.830464401745    -0.985722168935
    C            0.838518309135    -1.567554483735    -0.985024123382
    C            3.399702134192    -1.683697294247    -0.812976919177
    C           -0.397544913945    -0.675736461416    -0.926437465523
    H            0.824784320042    -2.179537937760    -1.883986881819
    H            0.845143219705    -2.277060705721    -0.161292986794
    C           -0.684664376729    -0.113981718939     0.463643830327
    H           -1.252989586379    -1.249146122877    -1.270517506387
    H           -0.271201561058     0.140807768466    -1.626822673217
    C           -1.910972836910     0.792962185826     0.498535289139
    H           -0.828879513183    -0.937756433073     1.159950340403
    H            0.180090299960     0.441144217128     0.811912923677
    C           -2.212098073484     1.351351975598     1.886394783577
    H           -2.777686314898     0.242727568513     0.138566704755
    H           -1.764173503910     1.617457557349    -0.194483732177
    C           -3.434255537499     2.263154222146     1.913514995725
    H           -2.361905990251     0.528364015705     2.580290622743
    H           -1.346195953595     1.899621685354     2.246849770388
    H           -4.324965418657     1.733828332029     1.591192672692
    H           -3.619148370791     2.643314521664     2.911734757971
    H           -3.301229133671     3.114894219248     1.254806192346
    H            3.377887902815    -2.535452612029    -1.482709747452
    H            4.283686147721    -1.092285599598    -0.995349520375
    H            3.429550862655    -2.070325750954     0.200306801670

  Mulliken Charges: (a.u.)
   Center  Symbol    Alpha    Beta     Spin     Total
       1     O     4.17331  4.17331  0.00000 -0.34661
       2     C     2.85957  2.85957  0.00000  0.28085
       3     C     3.12349  3.12349  0.00000 -0.24698
       4     C     3.15067  3.15067  0.00000 -0.30134
       5     C     3.09389  3.09389  0.00000 -0.18779
       6     H     0.43431  0.43431  0.00000  0.13138
       7     H     0.44489  0.44489  0.00000  0.11023
       8     C     3.08835  3.08835  0.00000 -0.17670
       9     H     0.44663  0.44663  0.00000  0.10674
      10     H     0.44393  0.44393  0.00000  0.11213
      11     C     3.08856  3.08856  0.00000 -0.17711
      12     H     0.45849  0.45849  0.00000  0.08302
      13     H     0.44661  0.44661  0.00000  0.10678
      14     C     3.08366  3.08366  0.00000 -0.16731
      15     H     0.45662  0.45662  0.00000  0.08675
      16     H     0.45183  0.45183  0.00000  0.09634
      17     C     3.15060  3.15060  0.00000 -0.30121
      18     H     0.45622  0.45622  0.00000  0.08756
      19     H     0.45337  0.45337  0.00000  0.09325
      20     H     0.45596  0.45596  0.00000  0.08808
      21     H     0.44885  0.44885  0.00000  0.10231
      22     H     0.45445  0.45445  0.00000  0.09111
      23     H     0.45085  0.45085  0.00000  0.09830
      24     H     0.43561  0.43561  0.00000  0.12878
      25     H     0.44928  0.44928  0.00000  0.10144

   Total alpha = 36.00000, Total beta = 36.00000, Total charge = -0.00000

*** Psi4 exiting successfully. Buy a developer a beer!
