  ==> Input File <==

--------------------------------------------------------------------------
set {
	reference rhf
	basis 6-31G*
}

set_num_threads( 4 )
memory 2 gb

molecule MOL {
0 1

H	 -0.944757	 -0.000069	 1.678017
O	 -0.042387	 -0.000390	 1.388199
C	 -0.001487	 0.000018	 -0.026623
C	 -1.091046	 -0.926024	 -0.570634
C	 -0.191492	 1.427206	 -0.543997
C	 1.383925	 -0.525518	 -0.385601
H	 -1.059685	 -0.980772	 -1.654109
H	 -2.078456	 -0.569407	 -0.286467
H	 -0.967390	 -1.926367	 -0.170584
H	 -0.125607	 1.468067	 -1.626623
H	 -1.166338	 1.815261	 -0.257606
H	 0.566113	 2.081455	 -0.127020
H	 1.517985	 -0.565161	 -1.461798
H	 1.522337	 -1.522493	 0.017351
H	 2.148924	 0.117355	 0.034976

	symmetry c1
}
set optking {
	frozen_dihedral = ("
		4 3 2 1
	")
}

ee = optimize('scf')
oeprop('DIPOLE', 'QUADRUPOLE', 'MULLIKEN_CHARGES')
f=open( 'psi4out.xyz', 'w' )
f.write( "15  " )
f.write( str(ee) + "\n" )
f.write( MOL.save_string_xyz() )
f.close()
--------------------------------------------------------------------------

    Molecular point group: c1
  Charge       = 0
  Multiplicity = 1
  Basis Set: 6-31G*
  Basis Set:
  @DF-RHF Final Energy:  -232.15265272430668
    Total Energy =                       -232.1526527243066198
    Molecular point group: c1
  Basis Set: 6-31G*
  Basis Set:
  Basis Set: 6-31G*
  Basis Set:
  @DF-RHF Final Energy:  -232.15268940827434
    Total Energy =                       -232.1526894082743411
  Basis Set: 6-31G*
  Basis Set:
  Basis Set: 6-31G*
  Basis Set:
  @DF-RHF Final Energy:  -232.15270789772137
    Total Energy =                       -232.1527078977215410
  Basis Set: 6-31G*
  Basis Set:
  Charge       = 0
  Multiplicity = 1
  Basis Set: 6-31G*
  Basis Set:

    Orbital Energies (a.u.)
    -----------------------

    Doubly Occupied:

       1A    -20.548447     2A    -11.281891     3A    -11.215053
       4A    -11.207382     5A    -11.205100     6A     -1.360025
       7A     -1.063408     8A     -0.943402     9A     -0.937522
      10A     -0.775624    11A     -0.669998    12A     -0.622697
      13A     -0.620910    14A     -0.574888    15A     -0.556521
      16A     -0.532047    17A     -0.516824    18A     -0.509008
      19A     -0.502473    20A     -0.457629    21A     -0.424153

  @DF-RHF Final Energy:  -232.15270886308181

   => Energetics <=

    Nuclear Repulsion Energy =            200.3333373772742050
    One-Electron Energy =                -711.9220852827947965
    Two-Electron Energy =                 279.4360390424389493
    DFT Exchange-Correlation Energy =       0.0000000000000000
    Empirical Dispersion Energy =           0.0000000000000000
    PCM Polarization Energy =               0.0000000000000000
    EFP Energy =                            0.0000000000000000
    Total Energy =                       -232.1527088630816138
    Molecular point group: c1
  Basis Set: 6-31G*
  Basis Set:

  -Total Gradient:
     Atom            X                  Y                   Z
    ------   -----------------  -----------------  -----------------
       1        0.000108751851    -0.001916284675    -0.000061489663
       2       -0.000239920016     0.002798251728     0.000003558013
       3        0.000968915517    -0.001823381242    -0.000018299384
       4       -0.000793101523     0.000974115297    -0.000036890308
       5       -0.000084422803     0.000101141174    -0.000017322500
       6       -0.000113967858    -0.000107299217     0.000090497461
       7       -0.000012992142     0.000014884693     0.000072658706
       8       -0.000027248422     0.000027930026     0.000003508213
       9        0.000067333426    -0.000119546631    -0.000067074893
      10        0.000089175563     0.000047049467    -0.000089460776
      11        0.000125952292    -0.000102895704     0.000038755532
      12       -0.000067409344     0.000075423327     0.000019872616
      13       -0.000055347763     0.000066565732     0.000039158370
      14        0.000063758330    -0.000058228020     0.000000683303
      15       -0.000029477108     0.000022274044     0.000021845310

  **** Optimization is complete! (in 4 steps) ****
    Final optimized geometry and variables:
    Molecular point group: c1

    Geometry (in Angstrom), charge = 0, multiplicity = 1:

    H           -0.941493772500     0.026454455311     1.682302297228
    O           -0.040920016230     0.016739325644     1.389443435355
    C            0.001262326706     0.000170726985    -0.026458228489
    C           -1.091112201643    -0.923008001343    -0.568491901647
    C           -0.193701046941     1.426339716901    -0.546604420721
    C            1.386992066290    -0.522983260755    -0.386677672493
    H           -1.060439546194    -0.974735772605    -1.651644432405
    H           -2.077787409007    -0.562467860474    -0.285287139411
    H           -0.970483775712    -1.926995682795    -0.174574450124
    H           -0.126408386626     1.468620691266    -1.629628160975
    H           -1.168073621963     1.809190346821    -0.255654080573
    H            0.560968932077     2.082566353741    -0.127769046480
    H            1.530344709419    -0.537391300830    -1.462379549038
    H            1.521662808670    -1.528642134953    -0.004275252886
    H            2.149484428970     0.109690424172     0.053833473661

  Mulliken Charges: (a.u.)
   Center  Symbol    Alpha    Beta     Spin     Total
       1     H     0.28279  0.28279  0.00000  0.43443
       2     O     4.37788  4.37788  0.00000 -0.75575
       3     C     2.85110  2.85110  0.00000  0.29779
       4     C     3.24990  3.24990  0.00000 -0.49979
       5     C     3.23524  3.23524  0.00000 -0.47049
       6     C     3.23320  3.23320  0.00000 -0.46640
       7     H     0.41760  0.41760  0.00000  0.16480
       8     H     0.42546  0.42546  0.00000  0.14909
       9     H     0.41267  0.41267  0.00000  0.17466
      10     H     0.42392  0.42392  0.00000  0.15217
      11     H     0.42558  0.42558  0.00000  0.14884
      12     H     0.41269  0.41269  0.00000  0.17461
      13     H     0.42440  0.42440  0.00000  0.15120
      14     H     0.41492  0.41492  0.00000  0.17016
      15     H     0.41266  0.41266  0.00000  0.17467

   Total alpha = 21.00000, Total beta = 21.00000, Total charge =  0.00000
