                              Psi4 1.0.54 Driver

  ==> Input File <==

--------------------------------------------------------------------------
set {
	reference rhf
	basis cc-pvtz
}

set_num_threads( 4 )
memory 2 gb

molecule MOL {
0 1

O	 0.623971	 1.347241	 -0.000777
C	 0.485107	 0.171416	 -0.000134
C	 1.606966	 -0.836201	 0.000174
O	 -0.695554	 -0.422406	 0.000602
C	 2.988788	 -0.202529	 -0.000115
H	 1.465110	 -1.474645	 -0.864821
H	 1.465209	 -1.474077	 0.865596
H	 3.131767	 0.419673	 -0.873407
H	 3.750876	 -0.972315	 0.000098
H	 3.131883	 0.420264	 0.872742
C	 -1.005167	 -1.280840	 1.089417
C	 -2.394190	 -1.830453	 0.863523
H	 -0.945914	 -0.718203	 2.010436
H	 -0.268698	 -2.070574	 1.136914
H	 -3.122673	 -1.030768	 0.816751
H	 -2.662801	 -2.491616	 1.678965
H	 -2.441605	 -2.390893	 -0.061696

	symmetry c1
}
set optking {
	frozen_dihedral = ("
		11 4 2 3
	")
}

ee,wfn = optimize('scf', return_wfn=True)
oeprop( wfn, 'DIPOLE', 'QUADRUPOLE', 'MULLIKEN_CHARGES')
f=open( 'psi4out.xyz', 'w' )
f.write( "17  " )
f.write( str(ee) + "\n" )
f.write( MOL.save_string_xyz() )
f.close()
--------------------------------------------------------------------------

    Molecular point group: c1
  Charge       = 0
  Multiplicity = 1
  Basis Set: CC-PVTZ
  Basis Set:
  @DF-RHF Final Energy:  -345.01694496974739
    Total Energy =                       -345.0169449697471009
    Molecular point group: c1
  Basis Set: CC-PVTZ
  Basis Set:
  Basis Set: CC-PVTZ
  Basis Set:
  @DF-RHF Final Energy:  -345.01567017840375
    Total Energy =                       -345.0156701784039797
  Basis Set: CC-PVTZ
  Basis Set:
  Basis Set: CC-PVTZ
  Basis Set:
  @DF-RHF Final Energy:  -345.02140987323224
    Total Energy =                       -345.0214098732321304
  Basis Set: CC-PVTZ
  Basis Set:
  Basis Set: CC-PVTZ
  Basis Set:
  @DF-RHF Final Energy:  -345.02048636255046
    Total Energy =                       -345.0204863625504004
  Basis Set: CC-PVTZ
  Basis Set:
  Basis Set: CC-PVTZ
  Basis Set:
  @DF-RHF Final Energy:  -345.02197606685581
    Total Energy =                       -345.0219760668553022
  Basis Set: CC-PVTZ
  Basis Set:
  Basis Set: CC-PVTZ
  Basis Set:
  @DF-RHF Final Energy:  -345.02202701521554
    Total Energy =                       -345.0220270152157696
  Basis Set: CC-PVTZ
  Basis Set:
  Basis Set: CC-PVTZ
  Basis Set:
  @DF-RHF Final Energy:  -345.02203074770256
    Total Energy =                       -345.0220307477026154
  Basis Set: CC-PVTZ
  Basis Set:
  Charge       = 0
  Multiplicity = 1
  Basis Set: CC-PVTZ
  Basis Set:

    Orbital Energies (a.u.)
    -----------------------

    Doubly Occupied:

       1A    -20.580111     2A    -20.539133     3A    -11.365763
       4A    -11.295795     5A    -11.242336     6A    -11.223606
       7A    -11.217527     8A     -1.460723     9A     -1.368902
      10A     -1.064493    11A     -1.041976    12A     -0.902442
      13A     -0.873649    14A     -0.771139    15A     -0.704300
      16A     -0.689796    17A     -0.658384    18A     -0.639884
      19A     -0.602191    20A     -0.564082    21A     -0.560053
      22A     -0.537425    23A     -0.527574    24A     -0.518744
      25A     -0.509630    26A     -0.488935    27A     -0.453656
      28A     -0.436154

  @DF-RHF Final Energy:  -345.02203102073685

   => Energetics <=

    Nuclear Repulsion Energy =            315.1732173499257783
    One-Electron Energy =               -1094.7136937764257709
    Two-Electron Energy =                 434.5184454057632593
    DFT Exchange-Correlation Energy =       0.0000000000000000
    Empirical Dispersion Energy =           0.0000000000000000
    PCM Polarization Energy =               0.0000000000000000
    EFP Energy =                            0.0000000000000000
    Total Energy =                       -345.0220310207366765
    Molecular point group: c1
  Basis Set: CC-PVTZ
  Basis Set:

  -Total Gradient:
     Atom            X                  Y                   Z
    ------   -----------------  -----------------  -----------------
       1       -0.000006330510     0.000005728240    -0.000016325442
       2       -0.001011533084     0.001688659152     0.004085557784
       3        0.000211188512    -0.000367938293    -0.002406302370
       4        0.002053156584    -0.003586333336    -0.002581034803
       5        0.000000620015    -0.000011784290     0.000004884475
       6       -0.000005071216    -0.000000156686    -0.000002191881
       7       -0.000005971541    -0.000005712511    -0.000000529978
       8        0.000002103760     0.000001704790     0.000000819280
       9       -0.000002407633     0.000007354797    -0.000000933863
      10        0.000003351038     0.000000174270    -0.000001995425
      11       -0.001266499467     0.002273714442     0.000950620603
      12       -0.000000321770    -0.000006910782    -0.000018102561
      13        0.000005629083    -0.000030176793    -0.000015931516
      14       -0.000017141848     0.000044507520    -0.000022430641
      15        0.000037154896    -0.000031985444     0.000000140505
      16        0.000001062117    -0.000003635470     0.000005753958
      17        0.000001011062     0.000022790397     0.000018001874

  **** Optimization is complete! (in 8 steps) ****
    Final optimized geometry and variables:
    Molecular point group: c1

    Geometry (in Angstrom), charge = 0, multiplicity = 1:

    O            0.347418979064     1.653133910121    -0.575118178802
    C            0.300269269000     0.507537596836    -0.310615107826
    C            1.520118614586    -0.353691125913    -0.072875974013
    O           -0.876803255185    -0.138520662027    -0.305534759436
    C            2.830898276580     0.390501730498    -0.274643601036
    H            1.441420531376    -1.204362098935    -0.741595811799
    H            1.466568358343    -0.758183877892     0.932502632922
    H            2.907264273509     0.775704862938    -1.282285468693
    H            3.667299491105    -0.274544007205    -0.096880746267
    H            2.909533020845     1.229172722025     0.403611260687
    C           -1.295752091952    -0.842668439498     0.848575374050
    C           -2.750116594312    -1.209374648593     0.665602731721
    H           -1.169377521554    -0.211607928472     1.721543140768
    H           -0.695396243452    -1.735038448791     0.982700837170
    H           -3.353289064496    -0.319468538584     0.545803187300
    H           -3.104508584403    -1.757792238635     1.530644980128
    H           -2.876403778394    -1.830027098598    -0.212205190517

  Mulliken Charges: (a.u.)
   Center  Symbol    Alpha    Beta     Spin     Total
       1     O     4.16993  4.16993  0.00000 -0.33986
       2     C     2.80705  2.80705  0.00000  0.38590
       3     C     3.11609  3.11609  0.00000 -0.23217
       4     O     4.15314  4.15314  0.00000 -0.30627
       5     C     3.13869  3.13869  0.00000 -0.27737
       6     H     0.43723  0.43723  0.00000  0.12554
       7     H     0.44549  0.44549  0.00000  0.10903
       8     H     0.44584  0.44584  0.00000  0.10833
       9     H     0.45124  0.45124  0.00000  0.09753
      10     H     0.44723  0.44723  0.00000  0.10555
      11     C     2.98493  2.98493  0.00000  0.03014
      12     C     3.13288  3.13288  0.00000 -0.26576
      13     H     0.45868  0.45868  0.00000  0.08265
      14     H     0.46013  0.46013  0.00000  0.07975
      15     H     0.44514  0.44514  0.00000  0.10972
      16     H     0.45715  0.45715  0.00000  0.08569
      17     H     0.44919  0.44919  0.00000  0.10162

   Total alpha = 28.00000, Total beta = 28.00000, Total charge =  0.00000

*** Psi4 exiting successfully. Buy a developer a beer!
