                              Psi4 1.0.54 Driver

  ==> Input File <==

--------------------------------------------------------------------------
set {
	reference rhf
	basis cc-pvtz
}

set_num_threads( 4 )
memory 2 gb

molecule MOL {
0 1

H	 -3.436473	 1.252944	 -1.023892
O	 -3.458596	 0.315260	 -0.960865
C	 -3.176635	 -0.080824	 0.355601
C	 -1.763371	 0.265266	 0.799691
H	 -3.321825	 -1.153438	 0.379502
H	 -3.895468	 0.357385	 1.043382
C	 -0.673390	 -0.426948	 -0.013392
H	 -1.631049	 1.344913	 0.747560
H	 -1.664587	 -0.001624	 1.849167
C	 -0.185246	 0.405765	 -1.195878
H	 -1.044728	 -1.381640	 -0.369179
H	 0.166294	 -0.651367	 0.640115
C	 0.909084	 -0.290572	 -2.002479
H	 -1.030315	 0.634829	 -1.837967
H	 0.190877	 1.360607	 -0.834400
C	 1.488128	 0.537518	 -3.150879
H	 0.522416	 -1.227472	 -2.396884
H	 1.718876	 -0.558102	 -1.329214
C	 0.507948	 0.830179	 -4.284343
H	 2.342580	 0.006701	 -3.559439
H	 1.874327	 1.474474	 -2.757962
H	 0.100433	 -0.088926	 -4.693311
H	 1.000962	 1.359544	 -5.091779
H	 -0.322941	 1.442159	 -3.954632

	symmetry c1
}
set optking {
	frozen_dihedral = ("
		11 7 4 3
	")
}

ee,wfn = optimize('scf', return_wfn=True)
oeprop( wfn, 'DIPOLE', 'QUADRUPOLE', 'MULLIKEN_CHARGES')
f=open( 'psi4out.xyz', 'w' )
f.write( "24  " )
f.write( str(ee) + "\n" )
f.write( MOL.save_string_xyz() )
f.close()
--------------------------------------------------------------------------

    Molecular point group: c1
  Charge       = 0
  Multiplicity = 1
  Basis Set: CC-PVTZ
  Basis Set:
  @DF-RHF Final Energy:  -349.37656584192365
    Total Energy =                       -349.3765658419227975
    Molecular point group: c1
  Basis Set: CC-PVTZ
  Basis Set:
  Basis Set: CC-PVTZ
  Basis Set:
  @DF-RHF Final Energy:  -349.37695461034673
    Total Energy =                       -349.3769546103463881
  Basis Set: CC-PVTZ
  Basis Set:
  Basis Set: CC-PVTZ
  Basis Set:
  @DF-RHF Final Energy:  -349.37701523848892
    Total Energy =                       -349.3770152384888092
  Basis Set: CC-PVTZ
  Basis Set:
  Basis Set: CC-PVTZ
  Basis Set:
  @DF-RHF Final Energy:  -349.37701750380813
    Total Energy =                       -349.3770175038084744
  Basis Set: CC-PVTZ
  Basis Set:
  Charge       = 0
  Multiplicity = 1
  Basis Set: CC-PVTZ
  Basis Set:

    Orbital Energies (a.u.)
    -----------------------

    Doubly Occupied:

       1A    -20.547711     2A    -11.266331     3A    -11.215635
       4A    -11.210923     5A    -11.209982     6A    -11.207085
       7A    -11.205298     8A    -11.202444     9A     -1.365300
      10A     -1.086997    11A     -1.047321    12A     -0.985415
      13A     -0.914813    14A     -0.852455    15A     -0.799164
      16A     -0.774298    17A     -0.683507    18A     -0.649687
      19A     -0.633662    20A     -0.612380    21A     -0.602306
      22A     -0.577270    23A     -0.554061    24A     -0.536580
      25A     -0.528213    26A     -0.511036    27A     -0.489101
      28A     -0.485762    29A     -0.468399    30A     -0.458458
      31A     -0.452731    32A     -0.439760    33A     -0.421105

  @DF-RHF Final Energy:  -349.37701763583988

   => Energetics <=

    Nuclear Repulsion Energy =            393.7302998342551632
    One-Electron Energy =               -1254.2242519682586135
    Two-Electron Energy =                 511.1169344981633458
    DFT Exchange-Correlation Energy =       0.0000000000000000
    Empirical Dispersion Energy =           0.0000000000000000
    PCM Polarization Energy =               0.0000000000000000
    EFP Energy =                            0.0000000000000000
    Total Energy =                       -349.3770176358400477
    Molecular point group: c1
  Basis Set: CC-PVTZ
  Basis Set:

  -Total Gradient:
     Atom            X                  Y                   Z
    ------   -----------------  -----------------  -----------------
       1        0.000008617765    -0.000046323194     0.000042091160
       2       -0.000011749686    -0.000099245374    -0.000015037188
       3       -0.000012069223    -0.000672660532     0.000837866423
       4       -0.000122153997     0.001408505065    -0.001526070659
       5        0.000053774825     0.000042728366    -0.000073149791
       6       -0.000040915368    -0.000016652406     0.000028846774
       7        0.000676964343    -0.001309221229     0.002038966454
       8       -0.000021886289    -0.000071492231    -0.000064608473
       9        0.000011034494    -0.000059943264     0.000036526382
      10        0.000055543057     0.000018879010     0.000093567204
      11       -0.000554976946     0.000794154113    -0.001324525105
      12        0.000003826985     0.000018183147     0.000006730393
      13        0.000075436239    -0.000030204631     0.000068903311
      14       -0.000123249798     0.000095257789    -0.000065724208
      15       -0.000038547832    -0.000053545196    -0.000021644207
      16        0.000062939472    -0.000071942357    -0.000076433814
      17        0.000030103017     0.000008458947     0.000011244196
      18       -0.000026298817     0.000014324912    -0.000004371358
      19       -0.000005620719     0.000030309852     0.000027384436
      20        0.000009358875     0.000010318213    -0.000042290050
      21        0.000008416459    -0.000020755729    -0.000004496870
      22        0.000019053871    -0.000004924853    -0.000006017869
      23       -0.000014971281     0.000009395987     0.000009593884
      24       -0.000042629453     0.000006395595     0.000022648975

  **** Optimization is complete! (in 5 steps) ****
    Final optimized geometry and variables:
    Molecular point group: c1

    Geometry (in Angstrom), charge = 0, multiplicity = 1:

    H           -2.663206919674     1.033034705466     0.316325529785
    O           -2.662591773399     0.095405505792     0.382952839241
    C           -2.343324791317    -0.288823204362     1.694591191926
    C           -0.922376167033     0.055976124068     2.116583532506
    H           -2.482969190914    -1.361619549881     1.728285831467
    H           -3.047855535660     0.150153645557     2.396979018457
    C            0.182932445920    -0.615173391866     1.287863267640
    H           -0.791601823005     1.136084023160     2.106482523987
    H           -0.827422375639    -0.246035534414     3.156063813760
    C            0.671797583329     0.209013204270     0.096384552115
    H           -0.177414366172    -1.572862565118     0.923126277639
    H            1.030196957971    -0.827169198678     1.932454320139
    C            1.772222817841    -0.495683077740    -0.694614534853
    H           -0.168360054376     0.428790257860    -0.549887592095
    H            1.049766051238     1.163862415752     0.456824304851
    C            2.360497539780     0.322940715255    -1.845389809145
    H            1.386809379441    -1.434422097726    -1.085908066691
    H            2.577260848980    -0.759565541682    -0.013711340979
    C            1.385252513575     0.615454474691    -2.983121176229
    H            3.213479801598    -0.214423334121    -2.248731085376
    H            2.750817122741     1.259655521271    -1.455700566568
    H            0.975810161577    -0.303339871543    -3.390406992351
    H            1.882788546095     1.141077358779    -3.790336461771
    H            0.554625190442     1.229877944504    -2.657695780216

  Mulliken Charges: (a.u.)
   Center  Symbol    Alpha    Beta     Spin     Total
       1     H     0.39357  0.39357  0.00000  0.21287
       2     O     4.20301  4.20301  0.00000 -0.40602
       3     C     2.97777  2.97777  0.00000  0.04446
       4     C     3.11174  3.11174  0.00000 -0.22347
       5     H     0.45863  0.45863  0.00000  0.08273
       6     H     0.45979  0.45979  0.00000  0.08042
       7     C     3.08717  3.08717  0.00000 -0.17434
       8     H     0.45690  0.45690  0.00000  0.08619
       9     H     0.44657  0.44657  0.00000  0.10686
      10     C     3.09350  3.09350  0.00000 -0.18700
      11     H     0.45462  0.45462  0.00000  0.09075
      12     H     0.44754  0.44754  0.00000  0.10493
      13     C     3.09591  3.09591  0.00000 -0.19181
      14     H     0.44810  0.44810  0.00000  0.10381
      15     H     0.45804  0.45804  0.00000  0.08393
      16     C     3.08974  3.08974  0.00000 -0.17948
      17     H     0.45321  0.45321  0.00000  0.09357
      18     H     0.45129  0.45129  0.00000  0.09743
      19     C     3.15165  3.15165  0.00000 -0.30330
      20     H     0.44917  0.44917  0.00000  0.10166
      21     H     0.45597  0.45597  0.00000  0.08806
      22     H     0.45402  0.45402  0.00000  0.09196
      23     H     0.44734  0.44734  0.00000  0.10532
      24     H     0.45476  0.45476  0.00000  0.09048

   Total alpha = 33.00000, Total beta = 33.00000, Total charge = -0.00000

*** Psi4 exiting successfully. Buy a developer a beer!
