                              Psi4 1.0.54 Driver

  ==> Input File <==

--------------------------------------------------------------------------
set {
	reference rhf
	basis cc-pvtz
}

set_num_threads( 4 )
memory 2 gb

molecule MOL {
0 1

H	 -4.230259	 0.539112	 0.036360
O	 -3.515113	 -0.019339	 -0.206321
C	 -2.302264	 0.528872	 0.237390
C	 -1.175688	 -0.398187	 -0.171891
H	 -2.148018	 1.514076	 -0.197759
H	 -2.310727	 0.646384	 1.319032
C	 0.196029	 0.106276	 0.266738
H	 -1.201873	 -0.515469	 -1.250677
H	 -1.365975	 -1.378728	 0.252664
C	 1.330220	 -0.826136	 -0.155230
H	 0.359542	 1.097229	 -0.145561
H	 0.212134	 0.218135	 1.348778
C	 2.719700	 -0.407669	 0.328325
H	 1.339388	 -0.911200	 -1.239363
H	 1.119001	 -1.821953	 0.224128
C	 3.736968	 -1.543483	 0.408651
H	 2.619284	 0.038765	 1.312865
H	 3.104232	 0.375195	 -0.320284
H	 3.376221	 -2.344817	 1.045663
H	 3.951112	 -1.966668	 -0.565384
H	 4.674742	 -1.190806	 0.822621

	symmetry c1
}
set optking {
	frozen_dihedral = ("
		16 13 10 14
	")
}

ee,wfn = optimize('scf', return_wfn=True)
oeprop( wfn, 'DIPOLE', 'QUADRUPOLE', 'MULLIKEN_CHARGES')
f=open( 'psi4out.xyz', 'w' )
f.write( "21  " )
f.write( str(ee) + "\n" )
f.write( MOL.save_string_xyz() )
f.close()
--------------------------------------------------------------------------

    Molecular point group: c1
  Charge       = 0
  Multiplicity = 1
  Basis Set: CC-PVTZ
  Basis Set:
  @DF-RHF Final Energy:  -310.33261203546431
    Total Energy =                       -310.3326120354644218
    Molecular point group: c1
  Basis Set: CC-PVTZ
  Basis Set:
  Basis Set: CC-PVTZ
  Basis Set:
  @DF-RHF Final Energy:  -310.33319863244759
    Total Energy =                       -310.3331986324475338
  Basis Set: CC-PVTZ
  Basis Set:
  Basis Set: CC-PVTZ
  Basis Set:
  @DF-RHF Final Energy:  -310.33324725366055
    Total Energy =                       -310.3332472536603746
  Basis Set: CC-PVTZ
  Basis Set:
  Basis Set: CC-PVTZ
  Basis Set:
  @DF-RHF Final Energy:  -310.33325182470514
    Total Energy =                       -310.3332518247053144
  Basis Set: CC-PVTZ
  Basis Set:
  Basis Set: CC-PVTZ
  Basis Set:
  @DF-RHF Final Energy:  -310.33325302795669
    Total Energy =                       -310.3332530279567436
  Basis Set: CC-PVTZ
  Basis Set:
  Charge       = 0
  Multiplicity = 1
  Basis Set: CC-PVTZ
  Basis Set:

    Orbital Energies (a.u.)
    -----------------------

    Doubly Occupied:

       1A    -20.545379     2A    -11.264992     3A    -11.213548
       4A    -11.212649     5A    -11.210987     6A    -11.208884
       7A    -11.206072     8A     -1.363231     9A     -1.087218
      10A     -1.035521    11A     -0.957893    12A     -0.867824
      13A     -0.802385    14A     -0.790707    15A     -0.695699
      16A     -0.664993    17A     -0.632824    18A     -0.598118
      19A     -0.582856    20A     -0.564493    21A     -0.548146
      22A     -0.522590    23A     -0.508163    24A     -0.485011
      25A     -0.477581    26A     -0.462805    27A     -0.460237
      28A     -0.443631    29A     -0.437384

  @DF-RHF Final Energy:  -310.33325310028152

   => Energetics <=

    Nuclear Repulsion Energy =            309.4564338457689132
    One-Electron Energy =               -1033.8757372096740710
    Two-Electron Energy =                 414.0860502636242018
    DFT Exchange-Correlation Energy =       0.0000000000000000
    Empirical Dispersion Energy =           0.0000000000000000
    PCM Polarization Energy =               0.0000000000000000
    EFP Energy =                            0.0000000000000000
    Total Energy =                       -310.3332531002808992
    Molecular point group: c1
  Basis Set: CC-PVTZ
  Basis Set:

  -Total Gradient:
     Atom            X                  Y                   Z
    ------   -----------------  -----------------  -----------------
       1       -0.000000661252    -0.000000427168    -0.000001149753
       2       -0.000004381851    -0.000000118092     0.000001033986
       3        0.000009552350     0.000001447529    -0.000006755611
       4        0.000010118091     0.000005921008    -0.000011485567
       5       -0.000000555177     0.000001950919     0.000000322098
       6       -0.000000304633    -0.000001286003     0.000002371380
       7       -0.000016433892     0.000001278446     0.000007654381
       8       -0.000006189295    -0.000004301941    -0.000005673136
       9        0.000002142713     0.000001281138     0.000003353150
      10        0.001069839543    -0.004473564688     0.001635844140
      11       -0.000008427381    -0.000002136183     0.000001379578
      12        0.000002374933    -0.000007475323     0.000008831559
      13        0.000722736069     0.001306422631    -0.003751143568
      14       -0.001103004318     0.003520659348    -0.000482222313
      15        0.000004248280     0.000001844348    -0.000000586372
      16       -0.000681875513    -0.000353963521     0.002600094794
      17       -0.000002684612    -0.000004622438    -0.000006475121
      18        0.000011631733    -0.000001646461    -0.000004754882
      19       -0.000002171659     0.000004091518     0.000005420398
      20        0.000005635593     0.000005885397     0.000009501176
      21       -0.000011589723    -0.000001240463    -0.000005560316

  **** Optimization is complete! (in 6 steps) ****
    Final optimized geometry and variables:
    Molecular point group: c1

    Geometry (in Angstrom), charge = 0, multiplicity = 1:

    H           -4.268764087711     1.021501149908    -0.223084960996
    O           -3.566414737779     0.435198488639    -0.435384197769
    C           -2.352958935229     0.935700964539     0.059986864707
    C           -1.247064052973    -0.035140933645    -0.301362481731
    H           -2.141514687083     1.913564644925    -0.367655936843
    H           -2.402960545869     1.054726770973     1.140300355871
    C            0.123557912943     0.417534643302     0.191621386701
    H           -1.234544106314    -0.155648890823    -1.379924730781
    H           -1.491518168807    -1.006202026585     0.117628327799
    C            1.241605239597    -0.563097674869    -0.157928918225
    H            0.358255982200     1.391429762928    -0.232456149024
    H            0.094633613236     0.554556118773     1.269956066842
    C            2.625492431949    -0.073217125294     0.273633111203
    H            1.233954910373    -0.712205840362    -1.234396930532
    H            1.030292843731    -1.525041671447     0.299880550240
    C            3.653653435736    -1.193840157580     0.390810480966
    H            2.543700693157     0.420423868604     1.238394307238
    H            2.976859053834     0.681909933234    -0.422847806211
    H            3.353011847096    -1.916187954295     1.141911532262
    H            3.768843277111    -1.725076013719    -0.548657712306
    H            4.626718415843    -0.807651610656     0.672247903872

  Mulliken Charges: (a.u.)
   Center  Symbol    Alpha    Beta     Spin     Total
       1     H     0.39760  0.39760  0.00000  0.20480
       2     O     4.19433  4.19433  0.00000 -0.38866
       3     C     2.96356  2.96356  0.00000  0.07289
       4     C     3.08501  3.08501  0.00000 -0.17003
       5     H     0.47495  0.47495  0.00000  0.05010
       6     H     0.47481  0.47481  0.00000  0.05038
       7     C     3.10065  3.10065  0.00000 -0.20131
       8     H     0.45099  0.45099  0.00000  0.09802
       9     H     0.45092  0.45092  0.00000  0.09815
      10     C     3.08665  3.08665  0.00000 -0.17329
      11     H     0.45527  0.45527  0.00000  0.08946
      12     H     0.45557  0.45557  0.00000  0.08886
      13     C     3.08429  3.08429  0.00000 -0.16859
      14     H     0.45340  0.45340  0.00000  0.09321
      15     H     0.45407  0.45407  0.00000  0.09185
      16     C     3.14926  3.14926  0.00000 -0.29852
      17     H     0.45671  0.45671  0.00000  0.08658
      18     H     0.45286  0.45286  0.00000  0.09428
      19     H     0.45521  0.45521  0.00000  0.08958
      20     H     0.45473  0.45473  0.00000  0.09053
      21     H     0.44914  0.44914  0.00000  0.10172

   Total alpha = 29.00000, Total beta = 29.00000, Total charge = -0.00000

*** Psi4 exiting successfully. Buy a developer a beer!
