  ==> Input File <==

--------------------------------------------------------------------------
set {
	reference rhf
	basis cc-pvtz
}

set_num_threads( 4 )
memory 2 gb

molecule MOL {
0 1

H	 3.721907	 -0.933076	 -0.066039
O	 2.824271	 -1.154299	 0.131461
C	 2.076458	 -0.067370	 -0.038225
C	 0.626018	 -0.337582	 0.258241
O	 2.538288	 0.965419	 -0.381593
C	 -0.267326	 0.883135	 0.076490
H	 0.325620	 -1.161483	 -0.378003
H	 0.574537	 -0.713685	 1.275261
C	 -1.726822	 0.642622	 0.463839
H	 -0.210803	 1.217591	 -0.953497
H	 0.129920	 1.693110	 0.675679
C	 -2.480891	 -0.340606	 -0.429852
H	 -2.243098	 1.597649	 0.438609
H	 -1.776542	 0.301208	 1.495542
C	 -3.700839	 -0.945048	 0.257791
H	 -2.794835	 0.170290	 -1.336195
H	 -1.821320	 -1.143218	 -0.744075
H	 -4.218405	 -1.636224	 -0.397254
H	 -4.406338	 -0.174825	 0.550580
H	 -3.416074	 -1.488177	 1.152819

	symmetry c1
}
set optking {
	frozen_dihedral = ("
		16 12 9 6
	")
}

ee = optimize('scf')
oeprop('DIPOLE', 'QUADRUPOLE', 'MULLIKEN_CHARGES')
f=open( 'psi4out.xyz', 'w' )
f.write( "20  " )
f.write( str(ee) + "\n" )
f.write( MOL.save_string_xyz() )
f.close()
--------------------------------------------------------------------------

    Molecular point group: c1
  Charge       = 0
  Multiplicity = 1
  Basis Set: CC-PVTZ
  Basis Set:
  @DF-RHF Final Energy:  -384.09283839403207
    Total Energy =                       -384.0928383940314461
    Molecular point group: c1
  Basis Set: CC-PVTZ
  Basis Set:
  Basis Set: CC-PVTZ
  Basis Set:
  @DF-RHF Final Energy:  -384.09301822286523
    Total Energy =                       -384.0930182228655667
  Basis Set: CC-PVTZ
  Basis Set:
  Basis Set: CC-PVTZ
  Basis Set:
  @DF-RHF Final Energy:  -384.09320935747257
    Total Energy =                       -384.0932093574722330
  Basis Set: CC-PVTZ
  Basis Set:
  Basis Set: CC-PVTZ
  Basis Set:
  @DF-RHF Final Energy:  -384.09301236340258
    Total Energy =                       -384.0930123634024085
  Basis Set: CC-PVTZ
  Basis Set:
  Basis Set: CC-PVTZ
  Basis Set:
  @DF-RHF Final Energy:  -384.09323235661572
    Total Energy =                       -384.0932323566154878
  Basis Set: CC-PVTZ
  Basis Set:
  Basis Set: CC-PVTZ
  Basis Set:
  @DF-RHF Final Energy:  -384.09323349951836
    Total Energy =                       -384.0932334995186466
  Basis Set: CC-PVTZ
  Basis Set:
  Charge       = 0
  Multiplicity = 1
  Basis Set: CC-PVTZ
  Basis Set:

    Orbital Energies (a.u.)
    -----------------------

    Doubly Occupied:

       1A    -20.603992     2A    -20.540604     3A    -11.373595
       4A    -11.238961     5A    -11.221186     6A    -11.218732
       7A    -11.218112     8A    -11.210588     9A     -1.477579
      10A     -1.369099    11A     -1.097230    12A     -1.042030
      13A     -0.962343    14A     -0.870274    15A     -0.816133
      16A     -0.780282    17A     -0.703784    18A     -0.693760
      19A     -0.666306    20A     -0.635136    21A     -0.607821
      22A     -0.594866    23A     -0.580236    24A     -0.554194
      25A     -0.541085    26A     -0.511583    27A     -0.499730
      28A     -0.484688    29A     -0.470542    30A     -0.467371
      31A     -0.457553    32A     -0.446667

  @DF-RHF Final Energy:  -384.09323420253537

   => Energetics <=

    Nuclear Repulsion Energy =            377.0735500350753568
    One-Electron Energy =               -1270.4214412623898625
    Two-Electron Energy =                 509.2546570247786235
    DFT Exchange-Correlation Energy =       0.0000000000000000
    Empirical Dispersion Energy =           0.0000000000000000
    PCM Polarization Energy =               0.0000000000000000
    EFP Energy =                            0.0000000000000000
    Total Energy =                       -384.0932342025358253
    Molecular point group: c1
  Basis Set: CC-PVTZ
  Basis Set:

  -Total Gradient:
     Atom            X                  Y                   Z
    ------   -----------------  -----------------  -----------------
       1       -0.000001909894     0.000002230481     0.000001458372
       2        0.000001193293    -0.000006431748     0.000007441544
       3        0.000005661227     0.000012146447    -0.000024887790
       4       -0.000015504843    -0.000007012520    -0.000023850852
       5        0.000000051025    -0.000001042969     0.000012457499
       6        0.000784453385    -0.002122572242     0.001504959797
       7       -0.000008122501    -0.000014645858     0.000000454305
       8       -0.000006362904     0.000008683748    -0.000002747458
       9       -0.001850010513     0.003234209185    -0.001743700691
      10        0.000000200472    -0.000018992768     0.000016899308
      11       -0.000008013968     0.000021602728     0.000006402739
      12        0.004201236326    -0.001981087676    -0.001475465291
      13        0.000008123508     0.000029110919     0.000014315855
      14        0.000001895646    -0.000010316242    -0.000021275911
      15       -0.000021315856     0.000006616542     0.000008055589
      16       -0.003101445748     0.000856834054     0.001748224686
      17        0.000010903577    -0.000015068391    -0.000021998723
      18       -0.000000957253     0.000001564688    -0.000001660961
      19       -0.000005455587     0.000001622898     0.000005525447
      20        0.000005380606     0.000002548726    -0.000010607464

  **** Optimization is complete! (in 7 steps) ****
    Final optimized geometry and variables:
    Molecular point group: c1

    Geometry (in Angstrom), charge = 0, multiplicity = 1:

    H            3.705194637020    -0.847872166313    -0.105937633270
    O            2.819653993284    -1.059281832631     0.148716289886
    C            2.049458820362    -0.001448598993    -0.090793941695
    C            0.616693262500    -0.258633540738     0.291050607745
    O            2.481085091915     0.999483806437    -0.548707861525
    C           -0.301230859867     0.931068744529     0.040515527725
    H            0.301832059971    -1.141769846580    -0.252122519063
    H            0.613531648048    -0.539606012327     1.339380532006
    C           -1.752905652457     0.674757752105     0.450551379282
    H           -0.253429849424     1.208028169113    -1.006963242218
    H            0.082489892238     1.781503846638     0.590825722260
    C           -2.527709647865    -0.268137430011    -0.475962303064
    H           -2.277828326027     1.622670092820     0.502796214085
    H           -1.762686563895     0.272399606454     1.461205335524
    C           -3.758708354905    -0.871906750014     0.195638944603
    H           -2.857493927034     0.288768792342    -1.347824283046
    H           -1.890106585658    -1.068522839649    -0.834153357720
    H           -4.320727406776    -1.489329064032    -0.495634303150
    H           -4.423543327056    -0.095928201963     0.560865965237
    H           -3.479670542156    -1.490541072740     1.042008933864

  Mulliken Charges: (a.u.)
   Center  Symbol    Alpha    Beta     Spin     Total
       1     H     0.38240  0.38240  0.00000  0.23520
       2     O     4.16039  4.16039  0.00000 -0.32078
       3     C     2.80331  2.80331  0.00000  0.39338
       4     C     3.11113  3.11113  0.00000 -0.22226
       5     O     4.19108  4.19108  0.00000 -0.38217
       6     C     3.09139  3.09139  0.00000 -0.18278
       7     H     0.43776  0.43776  0.00000  0.12448
       8     H     0.43789  0.43789  0.00000  0.12423
       9     C     3.10102  3.10102  0.00000 -0.20204
      10     H     0.44554  0.44554  0.00000  0.10893
      11     H     0.44017  0.44017  0.00000  0.11965
      12     C     3.08545  3.08545  0.00000 -0.17091
      13     H     0.44325  0.44325  0.00000  0.11349
      14     H     0.45703  0.45703  0.00000  0.08595
      15     C     3.14912  3.14912  0.00000 -0.29823
      16     H     0.45043  0.45043  0.00000  0.09915
      17     H     0.45507  0.45507  0.00000  0.08986
      18     H     0.44804  0.44804  0.00000  0.10391
      19     H     0.45390  0.45390  0.00000  0.09221
      20     H     0.45564  0.45564  0.00000  0.08873

   Total alpha = 32.00000, Total beta = 32.00000, Total charge = -0.00000
