                              Psi4 1.0.54 Driver

  ==> Input File <==

--------------------------------------------------------------------------
set {
	reference rhf
	basis cc-pvtz
}

set_num_threads( 4 )
memory 2 gb

molecule MOL {
0 1

H	 -2.266744	 1.170042	 0.000098
O	 -1.438198	 1.611358	 0.000041
C	 -0.408782	 0.734800	 0.000005
C	 0.866379	 1.269004	 0.000030
C	 -0.607367	 -0.640946	 -0.000017
H	 0.977828	 2.335545	 0.000061
C	 1.963113	 0.433455	 0.000014
C	 0.512651	 -1.456475	 -0.000032
C	 -1.999554	 -1.222339	 -0.000029
H	 2.950029	 0.855328	 0.000028
C	 1.791920	 -0.937356	 -0.000025
H	 0.375999	 -2.521977	 -0.000058
H	 -2.563186	 -0.918693	 -0.877775
H	 -1.962177	 -2.302174	 -0.000040
H	 -2.563191	 -0.918709	 0.877722
H	 2.640386	 -1.593462	 -0.000043

	symmetry c1
}
ee,wfn = energy('scf', return_wfn=True)
oeprop( wfn, 'DIPOLE', 'QUADRUPOLE', 'MULLIKEN_CHARGES')
oeprop( wfn, 'GRID_ESP')
f=open( 'psi4out.xyz', 'w' )
f.write( "16  " )
f.write( str(ee) + "\n" )
f.write( MOL.save_string_xyz() )
f.close()
--------------------------------------------------------------------------

    Molecular point group: c1

    Geometry (in Angstrom), charge = 0, multiplicity = 1:

       Center              X                  Y                   Z               Mass
    ------------   -----------------  -----------------  -----------------  -----------------
           H         -2.266619466259     1.169943180643     0.000097993182     1.007825032070
           O         -1.438073466259     1.611259180643     0.000040993182    15.994914619560
           C         -0.408657466259     0.734701180643     0.000004993182    12.000000000000
           C          0.866503533741     1.268905180643     0.000029993182    12.000000000000
           C         -0.607242466259    -0.641044819357    -0.000017006818    12.000000000000
           H          0.977952533741     2.335446180643     0.000060993182     1.007825032070
           C          1.963237533741     0.433356180643     0.000013993182    12.000000000000
           C          0.512775533741    -1.456573819357    -0.000032006818    12.000000000000
           C         -1.999429466259    -1.222437819357    -0.000029006818    12.000000000000
           H          2.950153533741     0.855229180643     0.000027993182     1.007825032070
           C          1.792044533741    -0.937454819357    -0.000025006818    12.000000000000
           H          0.376123533741    -2.522075819357    -0.000058006818     1.007825032070
           H         -2.563061466259    -0.918791819357    -0.877775006818     1.007825032070
           H         -1.962052466259    -2.302272819357    -0.000040006818     1.007825032070
           H         -2.563066466259    -0.918807819357     0.877721993182     1.007825032070
           H          2.640510533741    -1.593560819357    -0.000043006818     1.007825032070

  Charge       = 0
  Multiplicity = 1
  Basis Set: CC-PVTZ
  Basis Set:

    Orbital Energies (a.u.)
    -----------------------

    Doubly Occupied:

       1A    -20.581777     2A    -11.291229     3A    -11.233587
       4A    -11.232668     5A    -11.228552     6A    -11.227271
       7A    -11.217473     8A    -11.216565     9A     -1.412457
      10A     -1.153395    11A     -1.052079    12A     -1.007891
      13A     -0.944267    14A     -0.828947    15A     -0.823986
      16A     -0.734733    17A     -0.680792    18A     -0.647385
      19A     -0.609164    20A     -0.606607    21A     -0.577578
      22A     -0.566483    23A     -0.566346    24A     -0.554721
      25A     -0.505520    26A     -0.485477    27A     -0.478877
      28A     -0.333862    29A     -0.308857

  @DF-RHF Final Energy:  -344.71931883241410

   => Energetics <=

    Nuclear Repulsion Energy =            351.0585702932043546
    One-Electron Energy =               -1163.3392954292812647
    Two-Electron Energy =                 467.5614063036627499
    DFT Exchange-Correlation Energy =       0.0000000000000000
    Empirical Dispersion Energy =           0.0000000000000000
    PCM Polarization Energy =               0.0000000000000000
    EFP Energy =                            0.0000000000000000
    Total Energy =                       -344.7193188324141033

  Mulliken Charges: (a.u.)
   Center  Symbol    Alpha    Beta     Spin     Total
       1     H     0.38740  0.38740  0.00000  0.22520
       2     O     4.17113  4.17113  0.00000 -0.34225
       3     C     2.87288  2.87288  0.00000  0.25425
       4     C     3.11175  3.11175  0.00000 -0.22351
       5     C     3.01228  3.01228  0.00000 -0.02456
       6     H     0.42023  0.42023  0.00000  0.15953
       7     C     3.06516  3.06516  0.00000 -0.13032
       8     C     3.08295  3.08295  0.00000 -0.16590
       9     C     3.16585  3.16585  0.00000 -0.33170
      10     H     0.42252  0.42252  0.00000  0.15496
      11     C     3.09256  3.09256  0.00000 -0.18512
      12     H     0.42572  0.42572  0.00000  0.14857
      13     H     0.44971  0.44971  0.00000  0.10058
      14     H     0.44505  0.44505  0.00000  0.10991
      15     H     0.44972  0.44972  0.00000  0.10056
      16     H     0.42510  0.42510  0.00000  0.14980

   Total alpha = 29.00000, Total beta = 29.00000, Total charge =  0.00000

*** Psi4 exiting successfully. Buy a developer a beer!
