  ==> Input File <==

--------------------------------------------------------------------------
set {
	reference rhf
	basis 6-31G*
}

set_num_threads( 4 )
memory 2 gb

molecule MOL {
0 1

H	 -2.358176	 -0.840075	 -0.869275
N	 -1.639289	 -0.142470	 -0.874491
C	 -0.563778	 -0.502042	 0.037919
H	 -2.068318	 0.717694	 -0.590222
C	 0.575259	 0.508231	 -0.048326
H	 -0.195995	 -1.481120	 -0.254209
H	 -0.891923	 -0.588386	 1.076962
C	 1.954651	 -0.143624	 0.035137
H	 0.475158	 1.060484	 -0.977307
H	 0.469181	 1.234488	 0.755973
H	 2.103292	 -0.853109	 -0.774172
H	 2.742821	 0.599562	 -0.030094
H	 2.083613	 -0.679371	 0.971560

	symmetry c1
}
set optking {
	frozen_dihedral = ("
		6 3 5 9
	")
}

ee = optimize('scf')
oeprop('DIPOLE', 'QUADRUPOLE', 'MULLIKEN_CHARGES')
f=open( 'psi4out.xyz', 'w' )
f.write( "13  " )
f.write( str(ee) + "\n" )
f.write( MOL.save_string_xyz() )
f.close()
--------------------------------------------------------------------------

    Molecular point group: c1
  Charge       = 0
  Multiplicity = 1
  Basis Set: 6-31G*
  Basis Set:
  @DF-RHF Final Energy:  -173.27787332724463
    Total Energy =                       -173.2778733272446345
    Molecular point group: c1
  Basis Set: 6-31G*
  Basis Set:
  Basis Set: 6-31G*
  Basis Set:
  @DF-RHF Final Energy:  -173.27817429091425
    Total Energy =                       -173.2781742909143077
  Basis Set: 6-31G*
  Basis Set:
  Basis Set: 6-31G*
  Basis Set:
  @DF-RHF Final Energy:  -173.27825222435405
    Total Energy =                       -173.2782522243540484
  Basis Set: 6-31G*
  Basis Set:
  Basis Set: 6-31G*
  Basis Set:
  @DF-RHF Final Energy:  -173.27825381871978
    Total Energy =                       -173.2782538187196053
  Basis Set: 6-31G*
  Basis Set:
  Charge       = 0
  Multiplicity = 1
  Basis Set: 6-31G*
  Basis Set:

    Orbital Energies (a.u.)
    -----------------------

    Doubly Occupied:

       1A    -15.533538     2A    -11.239984     3A    -11.211850
       4A    -11.208982     5A     -1.176645     6A     -1.033543
       7A     -0.898146     8A     -0.801188     9A     -0.651810
      10A     -0.640195    11A     -0.596779    12A     -0.566516
      13A     -0.533184    14A     -0.489814    15A     -0.474549
      16A     -0.468128    17A     -0.380468

  @DF-RHF Final Energy:  -173.27825389965912

   => Energetics <=

    Nuclear Repulsion Energy =            131.6421454090854866
    One-Electron Energy =                -494.0301634008595784
    Two-Electron Energy =                 189.1097640921149434
    DFT Exchange-Correlation Energy =       0.0000000000000000
    Empirical Dispersion Energy =           0.0000000000000000
    PCM Polarization Energy =               0.0000000000000000
    EFP Energy =                            0.0000000000000000
    Total Energy =                       -173.2782538996591200
    Molecular point group: c1
  Basis Set: 6-31G*
  Basis Set:

  -Total Gradient:
     Atom            X                  Y                   Z
    ------   -----------------  -----------------  -----------------
       1       -0.000006745606    -0.000002678800    -0.000001297570
       2        0.000017870491     0.000010823230     0.000005277770
       3       -0.001924630746     0.001784986728    -0.004991226909
       4       -0.000013614232     0.000009888468    -0.000001572551
       5        0.003449423575    -0.004068873981    -0.001535756320
       6        0.001113544320    -0.000885741580     0.004404255348
       7       -0.000007832005     0.000008035351     0.000008919022
       8       -0.000007800786    -0.000000947527    -0.000003997698
       9       -0.002613922570     0.003131142671     0.002108712182
      10       -0.000001997252     0.000010332474     0.000005790128
      11        0.000002937726     0.000006845090     0.000001262200
      12       -0.000002028993    -0.000002797967     0.000002127208
      13       -0.000005203924    -0.000001014158    -0.000002492813

  **** Optimization is complete! (in 5 steps) ****
    Final optimized geometry and variables:
    Molecular point group: c1

    Geometry (in Angstrom), charge = 0, multiplicity = 1:

    H           -2.456709246490    -0.739707283362    -0.580819740482
    N           -1.715278928293    -0.068760502018    -0.646259206936
    C           -0.614052789840    -0.435551975258     0.231938715200
    H           -2.102216267345     0.814023183683    -0.369580767474
    C            0.534957018955     0.579432562184     0.146040083983
    H           -0.257071083171    -1.420415187075    -0.053330015891
    H           -0.919913934145    -0.533839636270     1.276636143198
    C            1.918026811407    -0.056073699794     0.265855009617
    H            0.439850461347     1.128667931269    -0.785371328420
    H            0.416031808258     1.320910091238     0.934051277536
    H            2.103102068639    -0.743008795901    -0.554480659859
    H            2.699115199032     0.697391094185     0.252719081496
    H            2.014660370851    -0.614140460433     1.193508933062

  Mulliken Charges: (a.u.)
   Center  Symbol    Alpha    Beta     Spin     Total
       1     H     0.33306  0.33306  0.00000  0.33388
       2     N     3.92023  3.92023  0.00000 -0.84047
       3     C     3.06154  3.06154  0.00000 -0.12309
       4     H     0.33531  0.33531  0.00000  0.32938
       5     C     3.15892  3.15892  0.00000 -0.31784
       6     H     0.41952  0.41952  0.00000  0.16097
       7     H     0.43406  0.43406  0.00000  0.13187
       8     C     3.24241  3.24241  0.00000 -0.48482
       9     H     0.41013  0.41013  0.00000  0.17974
      10     H     0.42471  0.42471  0.00000  0.15058
      11     H     0.41838  0.41838  0.00000  0.16324
      12     H     0.41906  0.41906  0.00000  0.16187
      13     H     0.42265  0.42265  0.00000  0.15469

   Total alpha = 17.00000, Total beta = 17.00000, Total charge =  0.00000
