  ==> Input File <==

--------------------------------------------------------------------------
set {
	reference rhf
	basis cc-pvtz
}

set_num_threads( 4 )
memory 2 gb

molecule MOL {
0 1

H	 -3.144994	 -1.202467	 -0.018751
O	 -2.321472	 -0.864941	 -0.318626
C	 -2.021813	 0.336996	 0.342658
C	 -0.669613	 0.837286	 -0.127252
H	 -2.780861	 1.084746	 0.127159
H	 -2.006390	 0.184138	 1.420053
C	 0.490865	 -0.082543	 0.241244
H	 -0.708709	 0.967192	 -1.204587
H	 -0.507562	 1.822272	 0.303070
C	 1.839800	 0.429565	 -0.255472
H	 0.305636	 -1.070211	 -0.165276
H	 0.527397	 -0.195943	 1.322876
C	 2.499731	 1.408577	 0.709833
H	 2.503926	 -0.414372	 -0.421027
H	 1.711235	 0.909458	 -1.222355
H	 2.673810	 0.946606	 1.675853
H	 3.455366	 1.751958	 0.330154
H	 1.875053	 2.281186	 0.870384

	symmetry c1
}
set optking {
	frozen_dihedral = ("
		14 10 7 11
	")
}

ee = optimize('scf')
oeprop('DIPOLE', 'QUADRUPOLE', 'MULLIKEN_CHARGES')
f=open( 'psi4out.xyz', 'w' )
f.write( "18  " )
f.write( str(ee) + "\n" )
f.write( MOL.save_string_xyz() )
f.close()
--------------------------------------------------------------------------

    Molecular point group: c1
  Charge       = 0
  Multiplicity = 1
  Basis Set: CC-PVTZ
  Basis Set:
  @DF-RHF Final Energy:  -271.28381031590800
    Total Energy =                       -271.2838103159082266
    Molecular point group: c1
  Basis Set: CC-PVTZ
  Basis Set:
  Basis Set: CC-PVTZ
  Basis Set:
  @DF-RHF Final Energy:  -271.28403545724836
    Total Energy =                       -271.2840354572485353
  Basis Set: CC-PVTZ
  Basis Set:
  Basis Set: CC-PVTZ
  Basis Set:
  @DF-RHF Final Energy:  -271.28407995514340
    Total Energy =                       -271.2840799551436817
  Basis Set: CC-PVTZ
  Basis Set:
  Charge       = 0
  Multiplicity = 1
  Basis Set: CC-PVTZ
  Basis Set:

    Orbital Energies (a.u.)
    -----------------------

    Doubly Occupied:

       1A    -20.546155     2A    -11.265936     3A    -11.210609
       4A    -11.209247     5A    -11.204982     6A    -11.204269
       7A     -1.364086     8A     -1.075958     9A     -1.008528
      10A     -0.915681    11A     -0.826668    12A     -0.778334
      13A     -0.708332    14A     -0.637674    15A     -0.614444
      16A     -0.609338    17A     -0.571504    18A     -0.550387
      19A     -0.521756    20A     -0.508721    21A     -0.494912
      22A     -0.462878    23A     -0.456040    24A     -0.449989
      25A     -0.431049

  @DF-RHF Final Energy:  -271.28408067981587

   => Energetics <=

    Nuclear Repulsion Energy =            250.8978276267259275
    One-Electron Energy =                -865.1088705028309960
    Two-Electron Energy =                 342.9269621962890824
    DFT Exchange-Correlation Energy =       0.0000000000000000
    Empirical Dispersion Energy =           0.0000000000000000
    PCM Polarization Energy =               0.0000000000000000
    EFP Energy =                            0.0000000000000000
    Total Energy =                       -271.2840806798159292
    Molecular point group: c1
  Basis Set: CC-PVTZ
  Basis Set:

  -Total Gradient:
     Atom            X                  Y                   Z
    ------   -----------------  -----------------  -----------------
       1        0.000004094395     0.000007567264     0.000002849933
       2       -0.000028306348     0.000025169696    -0.000014467240
       3        0.000030289571    -0.000013212885     0.000071901053
       4       -0.000010696349     0.000019830681    -0.000036592747
       5       -0.000019506553    -0.000023578436    -0.000009361764
       6       -0.000023042733    -0.000002764848     0.000000222228
       7       -0.001744571287     0.001463894313    -0.003556665386
       8        0.000032173699    -0.000001118838    -0.000008083031
       9        0.000000167807    -0.000018176330    -0.000005951863
      10        0.001393291808    -0.000123968399     0.003987675926
      11        0.001242583031    -0.001210496446     0.002346313541
      12        0.000007038250     0.000010528804    -0.000012972737
      13        0.000002457908     0.000034372613     0.000014789605
      14       -0.000862756625    -0.000150679014    -0.002769124096
      15       -0.000009049741     0.000004541490     0.000025426592
      16       -0.000015168048    -0.000015510606    -0.000021682750
      17        0.000005612685    -0.000001609200    -0.000009383316
      18       -0.000004611473    -0.000004789861    -0.000004893946

  **** Optimization is complete! (in 4 steps) ****
    Final optimized geometry and variables:
    Molecular point group: c1

    Geometry (in Angstrom), charge = 0, multiplicity = 1:

    H           -3.066737274417    -1.520206266286    -0.086752972293
    O           -2.245465401094    -1.188556803954    -0.398848291143
    C           -1.935601231190     0.019564654494     0.246074102011
    C           -0.587949520906     0.512411403079    -0.244468117255
    H           -2.695652222272     0.766560464301     0.031286970806
    H           -1.908057472041    -0.121832828552     1.324720408641
    C            0.572205857134    -0.414867254791     0.108908714265
    H           -0.639937561252     0.636683184421    -1.321786859564
    H           -0.420552750888     1.498720354103     0.178925708109
    C            1.941326567969     0.104680002310    -0.346383078613
    H            0.392757874419    -1.394836888208    -0.314069287659
    H            0.591880467749    -0.562771235701     1.187199476165
    C            2.586497712093     1.094846922714     0.618494008417
    H            2.608599652711    -0.735727970522    -0.506667512853
    H            1.835228720062     0.574009959033    -1.321265168559
    H            2.770615630118     0.633040378028     1.582782462779
    H            3.536139644330     1.451529991034     0.235944390182
    H            1.955182055479     1.961133801696     0.783836389341

  Mulliken Charges: (a.u.)
   Center  Symbol    Alpha    Beta     Spin     Total
       1     H     0.39580  0.39580  0.00000  0.20840
       2     O     4.19861  4.19861  0.00000 -0.39721
       3     C     2.97337  2.97337  0.00000  0.05326
       4     C     3.08990  3.08990  0.00000 -0.17979
       5     H     0.46549  0.46549  0.00000  0.06901
       6     H     0.47330  0.47330  0.00000  0.05340
       7     C     3.09457  3.09457  0.00000 -0.18915
       8     H     0.45193  0.45193  0.00000  0.09613
       9     H     0.45454  0.45454  0.00000  0.09093
      10     C     3.09038  3.09038  0.00000 -0.18076
      11     H     0.43855  0.43855  0.00000  0.12290
      12     H     0.46089  0.46089  0.00000  0.07822
      13     C     3.14792  3.14792  0.00000 -0.29584
      14     H     0.44788  0.44788  0.00000  0.10424
      15     H     0.45683  0.45683  0.00000  0.08634
      16     H     0.45543  0.45543  0.00000  0.08914
      17     H     0.44833  0.44833  0.00000  0.10333
      18     H     0.45628  0.45628  0.00000  0.08744

   Total alpha = 25.00000, Total beta = 25.00000, Total charge = -0.00000
