                              Psi4 1.0.54 Driver

  ==> Input File <==

--------------------------------------------------------------------------
set {
	reference rhf
	basis cc-pvtz
}

set_num_threads( 4 )
memory 2 gb

molecule MOL {
0 1

H	 -3.258660	 -0.290394	 1.471450
C	 -3.307964	 -0.275695	 0.374072
C	 -2.653809	 0.914422	 -0.273689
O	 -3.855140	 -1.148880	 -0.205112
C	 -1.216901	 1.136108	 0.207794
H	 -2.700131	 0.790676	 -1.347875
H	 -3.256452	 1.781007	 -0.010713
C	 -0.247837	 0.040196	 -0.230469
H	 -0.872882	 2.093195	 -0.169002
H	 -1.209325	 1.218376	 1.291938
C	 1.181757	 0.280428	 0.247371
H	 -0.259600	 -0.030819	 -1.314870
H	 -0.591284	 -0.923375	 0.136958
C	 2.151032	 -0.811012	 -0.202643
H	 1.515939	 1.247397	 -0.115449
H	 1.191514	 0.341223	 1.333422
C	 3.580021	 -0.656538	 0.320835
H	 2.170545	 -0.847575	 -1.289412
H	 1.766632	 -1.772905	 0.124928
C	 4.583876	 -1.649367	 -0.260243
H	 3.562999	 -0.771491	 1.400135
H	 3.923890	 0.356806	 0.130589
H	 4.262592	 -2.672118	 -0.090678
H	 4.715417	 -1.516737	 -1.327384
H	 5.555942	 -1.528640	 0.203952

	symmetry c1
}
set optking {
	frozen_dihedral = ("
		20 17 14 18
	")
}

ee,wfn = optimize('scf', return_wfn=True)
oeprop( wfn, 'DIPOLE', 'QUADRUPOLE', 'MULLIKEN_CHARGES')
f=open( 'psi4out.xyz', 'w' )
f.write( "25  " )
f.write( str(ee) + "\n" )
f.write( MOL.save_string_xyz() )
f.close()
--------------------------------------------------------------------------

    Molecular point group: c1
  Charge       = 0
  Multiplicity = 1
  Basis Set: CC-PVTZ
  Basis Set:
  @DF-RHF Final Energy:  -387.26156094631568
    Total Energy =                       -387.2615609463156261
    Molecular point group: c1
  Basis Set: CC-PVTZ
  Basis Set:
  Basis Set: CC-PVTZ
  Basis Set:
  @DF-RHF Final Energy:  -387.26189460397399
    Total Energy =                       -387.2618946039738148
  Basis Set: CC-PVTZ
  Basis Set:
  Basis Set: CC-PVTZ
  Basis Set:
  @DF-RHF Final Energy:  -387.26192299094447
    Total Energy =                       -387.2619229909446403
  Basis Set: CC-PVTZ
  Basis Set:
  Basis Set: CC-PVTZ
  Basis Set:
  @DF-RHF Final Energy:  -387.26181412088295
    Total Energy =                       -387.2618141208831730
  Basis Set: CC-PVTZ
  Basis Set:
  Basis Set: CC-PVTZ
  Basis Set:
  @DF-RHF Final Energy:  -387.26192496093569
    Total Energy =                       -387.2619249609357439
  Basis Set: CC-PVTZ
  Basis Set:
  Charge       = 0
  Multiplicity = 1
  Basis Set: CC-PVTZ
  Basis Set:

    Orbital Energies (a.u.)
    -----------------------

    Doubly Occupied:

       1A    -20.551408     2A    -11.321018     3A    -11.233833
       4A    -11.232889     5A    -11.221799     6A    -11.218270
       7A    -11.215814     8A    -11.214643     9A    -11.208378
      10A     -1.406420    11A     -1.105433    12A     -1.071460
      13A     -1.016526    14A     -0.944601    15A     -0.868794
      16A     -0.814899    17A     -0.794858    18A     -0.787578
      19A     -0.668198    20A     -0.666105    21A     -0.641391
      22A     -0.616578    23A     -0.608671    24A     -0.593281
      25A     -0.567617    26A     -0.555583    27A     -0.540160
      28A     -0.521578    29A     -0.507332    30A     -0.503268
      31A     -0.487540    32A     -0.477625    33A     -0.466894
      34A     -0.465217    35A     -0.442446    36A     -0.411911

  @DF-RHF Final Energy:  -387.26192460964825

   => Energetics <=

    Nuclear Repulsion Energy =            436.0911535265110501
    One-Electron Energy =               -1388.7661308549400019
    Two-Electron Energy =                 565.4130527187805910
    DFT Exchange-Correlation Energy =       0.0000000000000000
    Empirical Dispersion Energy =           0.0000000000000000
    PCM Polarization Energy =               0.0000000000000000
    EFP Energy =                            0.0000000000000000
    Total Energy =                       -387.2619246096483039
    Molecular point group: c1
  Basis Set: CC-PVTZ
  Basis Set:

  -Total Gradient:
     Atom            X                  Y                   Z
    ------   -----------------  -----------------  -----------------
       1       -0.000053763331     0.000031473475     0.000011516431
       2        0.000178314866    -0.000096770479    -0.000022693568
       3       -0.000055534618     0.000003414674     0.000020537867
       4       -0.000057292749     0.000011264672    -0.000007166951
       5        0.000044711167     0.000017707211    -0.000037602943
       6       -0.000004857948     0.000016644146    -0.000008130850
       7        0.000000506157     0.000006584498     0.000018034691
       8       -0.000008586530    -0.000029198082     0.000001127754
       9        0.000015768081    -0.000001585539    -0.000008136903
      10        0.000003733059     0.000017188074     0.000004722233
      11       -0.000017095611     0.000017106224     0.000010925796
      12       -0.000000347790     0.000010612099    -0.000000317689
      13       -0.000016617952    -0.000004211758     0.000005011061
      14       -0.000143806806     0.002167775489    -0.000453565644
      15       -0.000014161921    -0.000003848621    -0.000003264385
      16        0.000012549152    -0.000009456306     0.000009105736
      17       -0.000258454126    -0.001363436165     0.001250439675
      18        0.000169206038    -0.001515432589     0.000070599165
      19        0.000009051990     0.000012497417     0.000015736479
      20        0.000212187797     0.000719044976    -0.000871531773
      21       -0.000002172159     0.000001164550     0.000002574814
      22       -0.000000734131    -0.000011746842    -0.000005963032
      23       -0.000003438614     0.000000153559     0.000012627995
      24        0.000014356626    -0.000006714796    -0.000011458669
      25       -0.000023520645     0.000009770115    -0.000003127291

  **** Optimization is complete! (in 6 steps) ****
    Final optimized geometry and variables:
    Molecular point group: c1

    Geometry (in Angstrom), charge = 0, multiplicity = 1:

    H           -3.312446917302    -0.019475984956     1.418848722025
    C           -3.343284845257     0.003778850770     0.320914416983
    C           -2.664923430735     1.190949343515    -0.307121656476
    O           -3.891810185030    -0.858079121509    -0.273757870097
    C           -1.234245771461     1.393168316443     0.200431547951
    H           -2.694212704884     1.075222944462    -1.382824789710
    H           -3.262465831557     2.062335093076    -0.048356242469
    C           -0.272126893984     0.285117557799    -0.222167382859
    H           -0.870760034130     2.346132487694    -0.168475343772
    H           -1.245060397546     1.473718852798     1.284671411769
    C            1.151632931716     0.507043805746     0.279778009259
    H           -0.266686492375     0.214349156779    -1.306607383180
    H           -0.633698686965    -0.674087697519     0.139374319253
    C            2.121753496024    -0.588832354876    -0.149802589769
    H            1.512860805423     1.467285723499    -0.080279105868
    H            1.143539341449     0.573339360578     1.365277939401
    C            3.540661791167    -0.388213238554     0.376381253307
    H            2.146074961302    -0.652474255525    -1.235009891400
    H            1.749826614960    -1.551462917105     0.193672461790
    C            4.539170337215    -1.388581031341    -0.196139781182
    H            3.535801526540    -0.456785011909     1.460580407818
    H            3.872233355712     0.618870025489     0.137382677147
    H            4.250442218195    -2.408630133538     0.035388367485
    H            4.602335566395    -1.301509251685    -1.275547703873
    H            5.532068071413    -1.227149140322     0.207517656076

  Mulliken Charges: (a.u.)
   Center  Symbol    Alpha    Beta     Spin     Total
       1     H     0.46413  0.46413  0.00000  0.07174
       2     C     2.90475  2.90475  0.00000  0.19051
       3     C     3.08905  3.08905  0.00000 -0.17810
       4     O     4.16627  4.16627  0.00000 -0.33255
       5     C     3.11684  3.11684  0.00000 -0.23368
       6     H     0.44288  0.44288  0.00000  0.11423
       7     H     0.44049  0.44049  0.00000  0.11902
       8     C     3.09051  3.09051  0.00000 -0.18102
       9     H     0.44306  0.44306  0.00000  0.11389
      10     H     0.44980  0.44980  0.00000  0.10041
      11     C     3.08958  3.08958  0.00000 -0.17916
      12     H     0.44986  0.44986  0.00000  0.10027
      13     H     0.44836  0.44836  0.00000  0.10329
      14     C     3.08700  3.08700  0.00000 -0.17399
      15     H     0.45334  0.45334  0.00000  0.09332
      16     H     0.45422  0.45422  0.00000  0.09156
      17     C     3.08477  3.08477  0.00000 -0.16955
      18     H     0.45437  0.45437  0.00000  0.09126
      19     H     0.45326  0.45326  0.00000  0.09348
      20     C     3.15015  3.15015  0.00000 -0.30029
      21     H     0.45382  0.45382  0.00000  0.09236
      22     H     0.45570  0.45570  0.00000  0.08859
      23     H     0.45461  0.45461  0.00000  0.09078
      24     H     0.45485  0.45485  0.00000  0.09029
      25     H     0.44833  0.44833  0.00000  0.10334

   Total alpha = 36.00000, Total beta = 36.00000, Total charge =  0.00000

*** Psi4 exiting successfully. Buy a developer a beer!
