  ==> Input File <==

--------------------------------------------------------------------------
set {
	reference rhf
	basis 6-31G*
}

set_num_threads( 1 )
memory 2 gb

molecule MOL {
0 1

H	 -1.782959	 -0.782674	 0.661889
O	 -2.035884	 -0.060112	 0.102722
C	 -0.955155	 0.788182	 -0.092531
C	 0.353668	 0.040312	 -0.004810
H	 -0.985057	 1.290372	 -1.054184
H	 -0.974469	 1.533190	 0.688632
F	 0.394464	 -0.937475	 -0.903053
F	 1.368604	 0.853376	 -0.249821
F	 0.546173	 -0.502608	 1.179981

	symmetry c1
}
set optking {
	frozen_dihedral = ("
		7 4 3 5
	")
}

ee = energy('scf')
oeprop('DIPOLE', 'QUADRUPOLE', 'MULLIKEN_CHARGES')
f=open( 'psi4out.xyz', 'w' )
f.write( "9  " )
f.write( str(ee) + "\n" )
f.write( MOL.save_string_xyz() )
f.close()
--------------------------------------------------------------------------

    Molecular point group: c1

    Geometry (in Angstrom), charge = 0, multiplicity = 1:

       Center              X                  Y                   Z               Mass
    ------------   -----------------  -----------------  -----------------  -----------------
           H         -1.786143435325    -0.781582183941     0.649004920333     1.007825032070
           O         -2.039068435325    -0.059020183941     0.089837920333    15.994914619560
           C         -0.958339435325     0.789273816059    -0.105415079667    12.000000000000
           C          0.350483564675     0.041403816059    -0.017694079667    12.000000000000
           H         -0.988241435325     1.291463816059    -1.067068079667     1.007825032070
           H         -0.977653435325     1.534281816059     0.675747920333     1.007825032070
           F          0.391279564675    -0.936383183941    -0.915937079667    18.998403224000
           F          1.365419564675     0.854467816059    -0.262705079667    18.998403224000
           F          0.542988564675    -0.501516183941     1.167096920333    18.998403224000

  Charge       = 0
  Multiplicity = 1
  Basis Set: 6-31G*
  Basis Set:

    Orbital Energies (a.u.)
    -----------------------

    Doubly Occupied:

       1A    -26.355801     2A    -26.347691     3A    -26.342543
       4A    -20.587130     5A    -11.507165     6A    -11.309525
       7A     -1.747441     8A     -1.648854     9A     -1.639700
      10A     -1.401700    11A     -1.050089    12A     -0.928720
      13A     -0.837319    14A     -0.834842    15A     -0.814455
      16A     -0.721972    17A     -0.718847    18A     -0.687732
      19A     -0.672054    20A     -0.666758    21A     -0.648782
      22A     -0.640484    23A     -0.622539    24A     -0.526137
      25A     -0.476128

  @DF-RHF Final Energy:  -450.65831992124356

   => Energetics <=

    Nuclear Repulsion Energy =            277.6373095272798537
    One-Electron Energy =               -1177.1224493142635765
    Two-Electron Energy =                 448.8268198657400490
    DFT Exchange-Correlation Energy =       0.0000000000000000
    Empirical Dispersion Energy =           0.0000000000000000
    PCM Polarization Energy =               0.0000000000000000
    EFP Energy =                            0.0000000000000000
    Total Energy =                       -450.6583199212436739

  Mulliken Charges: (a.u.)
   Center  Symbol    Alpha    Beta     Spin     Total
       1     H     0.27157  0.27157  0.00000  0.45686
       2     O     4.36734  4.36734  0.00000 -0.73468
       3     C     3.03126  3.03126  0.00000 -0.06253
       4     C     2.48379  2.48379  0.00000  1.03241
       5     H     0.39821  0.39821  0.00000  0.20358
       6     H     0.40892  0.40892  0.00000  0.18216
       7     F     4.68006  4.68006  0.00000 -0.36013
       8     F     4.68037  4.68037  0.00000 -0.36074
       9     F     4.67847  4.67847  0.00000 -0.35694

   Total alpha = 25.00000, Total beta = 25.00000, Total charge = -0.00000
