                              Psi4 1.0.54 Driver

  ==> Input File <==

--------------------------------------------------------------------------
set {
	reference rhf
	basis cc-pvtz
}

set_num_threads( 4 )
memory 2 gb

molecule MOL {
0 1

O	 -2.817697	 1.304178	 0.001046
C	 -2.664672	 0.129869	 0.003507
C	 -3.797908	 -0.860100	 -0.001145
O	 -1.481217	 -0.452708	 0.001092
H	 -4.408836	 -0.679689	 -0.875387
H	 -3.443486	 -1.878443	 -0.002770
H	 -4.412123	 -0.683688	 0.871605
C	 -0.332055	 0.384012	 -0.000250
C	 0.892252	 -0.506059	 -0.000295
H	 -0.360822	 1.020205	 -0.874146
H	 -0.359817	 1.021310	 0.872861
C	 2.188199	 0.299473	 -0.001416
H	 0.857046	 -1.152781	 -0.871031
H	 0.857910	 -1.151798	 0.871202
C	 2.608499	 0.753607	 -1.396492
H	 2.073952	 1.170983	 0.638423
H	 2.985771	 -0.296335	 0.435465
C	 3.904112	 1.557593	 -1.398193
H	 1.813013	 1.350562	 -1.833417
H	 2.723131	 -0.116459	 -2.036751
H	 3.809841	 2.453170	 -0.793297
H	 4.174016	 1.863972	 -2.402080
H	 4.726948	 0.974879	 -0.997896

	symmetry c1
}
set optking {
	frozen_dihedral = ("
		16 12 9 13
	")
}

ee,wfn = optimize('scf', return_wfn=True)
oeprop( wfn, 'DIPOLE', 'QUADRUPOLE', 'MULLIKEN_CHARGES')
f=open( 'psi4out.xyz', 'w' )
f.write( "23  " )
f.write( str(ee) + "\n" )
f.write( MOL.save_string_xyz() )
f.close()
--------------------------------------------------------------------------

    Molecular point group: c1
  Charge       = 0
  Multiplicity = 1
  Basis Set: CC-PVTZ
  Basis Set:
  @DF-RHF Final Energy:  -423.13218984337976
    Total Energy =                       -423.1321898433794786
    Molecular point group: c1
  Basis Set: CC-PVTZ
  Basis Set:
  Basis Set: CC-PVTZ
  Basis Set:
  @DF-RHF Final Energy:  -423.13215266559291
    Total Energy =                       -423.1321526655931393
  Basis Set: CC-PVTZ
  Basis Set:
  Basis Set: CC-PVTZ
  Basis Set:
  @DF-RHF Final Energy:  -423.13149978956415
    Total Energy =                       -423.1314997895644865
  Basis Set: CC-PVTZ
  Basis Set:
  Basis Set: CC-PVTZ
  Basis Set:
  @DF-RHF Final Energy:  -423.13237437726605
    Total Energy =                       -423.1323743772653643
  Basis Set: CC-PVTZ
  Basis Set:
  Basis Set: CC-PVTZ
  Basis Set:
  @DF-RHF Final Energy:  -423.13238173941767
    Total Energy =                       -423.1323817394181788
  Basis Set: CC-PVTZ
  Basis Set:
  Basis Set: CC-PVTZ
  Basis Set:
  @DF-RHF Final Energy:  -423.13238693667500
    Total Energy =                       -423.1323869366747203
  Basis Set: CC-PVTZ
  Basis Set:
  Charge       = 0
  Multiplicity = 1
  Basis Set: CC-PVTZ
  Basis Set:

    Orbital Energies (a.u.)
    -----------------------

    Doubly Occupied:

       1A    -20.595893     2A    -20.529589     3A    -11.366461
       4A    -11.279183     5A    -11.230700     6A    -11.222420
       7A    -11.221469     8A    -11.219169     9A    -11.210666
      10A     -1.471186    11A     -1.364014    12A     -1.094764
      13A     -1.041795    14A     -1.003497    15A     -0.931559
      16A     -0.847704    17A     -0.795474    18A     -0.781303
      19A     -0.691344    20A     -0.688033    21A     -0.675404
      22A     -0.634664    23A     -0.617918    24A     -0.587704
      25A     -0.579392    26A     -0.573046    27A     -0.562275
      28A     -0.531008    29A     -0.528529    30A     -0.507774
      31A     -0.495528    32A     -0.477685    33A     -0.470012
      34A     -0.463969    35A     -0.452014    36A     -0.439393

  @DF-RHF Final Energy:  -423.13238723697162

   => Energetics <=

    Nuclear Repulsion Energy =            455.7011511787655422
    One-Electron Energy =               -1479.3020028612593251
    Two-Electron Energy =                 600.4684644455223861
    DFT Exchange-Correlation Energy =       0.0000000000000000
    Empirical Dispersion Energy =           0.0000000000000000
    PCM Polarization Energy =               0.0000000000000000
    EFP Energy =                            0.0000000000000000
    Total Energy =                       -423.1323872369714536
    Molecular point group: c1
  Basis Set: CC-PVTZ
  Basis Set:

  -Total Gradient:
     Atom            X                  Y                   Z
    ------   -----------------  -----------------  -----------------
       1        0.000015901448    -0.000009974196     0.000005204741
       2       -0.000011873824    -0.000013415016     0.000006696977
       3       -0.000000099250     0.000003249861     0.000001299019
       4       -0.000008009132     0.000015584411     0.000014658885
       5        0.000004672360    -0.000002863302     0.000001958859
       6        0.000000795471     0.000004324664    -0.000000535818
       7        0.000007597089     0.000004129047    -0.000008903915
       8       -0.000000127227     0.000003411486    -0.000045139299
       9        0.000944358837    -0.001522140853     0.000899449540
      10        0.000005829075     0.000000511944     0.000007213441
      11       -0.000006977296    -0.000005530038     0.000004907566
      12        0.000608738042    -0.000928848404     0.001612605448
      13       -0.000892413290     0.001419657092    -0.000998593695
      14        0.000000290117    -0.000004476100     0.000000127961
      15       -0.000013660882     0.000025148268     0.000007964759
      16       -0.000657240834     0.001023686173    -0.001511291538
      17       -0.000002184153     0.000000840730     0.000004355180
      18        0.000007969292    -0.000014224873    -0.000002362428
      19        0.000014665812    -0.000006285236     0.000001413880
      20        0.000005926278     0.000021024156     0.000009430203
      21       -0.000008982495    -0.000018839601    -0.000009558360
      22        0.000000545214    -0.000004610387     0.000000617867
      23       -0.000015720658     0.000009640172    -0.000001519271

  **** Optimization is complete! (in 7 steps) ****
    Final optimized geometry and variables:
    Molecular point group: c1

    Geometry (in Angstrom), charge = 0, multiplicity = 1:

    O           -2.643381952292     0.993674321742     0.319281474033
    C           -2.483591672308    -0.179716524456     0.302538652877
    C           -3.611186981377    -1.175900753204     0.274916699715
    O           -1.296813494921    -0.755164286061     0.306174013144
    H           -4.216890296966    -0.985627635799    -0.600914707107
    H           -3.250898036775    -2.192110432659     0.260541068640
    H           -4.232528814465    -1.016127429664     1.145897046860
    C           -0.153003202345     0.088284243510     0.332875704519
    C            1.076385818575    -0.798671349590     0.327639061645
    H           -0.183141085878     0.745772371360    -0.523970148552
    H           -0.189915294448     0.702885115084     1.221862811269
    C            2.379991709529     0.006917701825     0.307490469591
    H            1.026372250800    -1.446762707922    -0.541036183643
    H            1.041715245527    -1.435192091340     1.204103056628
    C            2.805263718112     0.468329511675    -1.086688319907
    H            2.277414243262     0.879949441017     0.947627013333
    H            3.176228555652    -0.594266473475     0.733257614543
    C            4.090483152811     1.288834420315    -1.072510480527
    H            2.012990365322     1.055622076183    -1.540709070724
    H            2.940832056673    -0.402514844148    -1.721682703232
    H            3.974483344977     2.188146485448    -0.477017729875
    H            4.374253107412     1.590274932191    -2.074072742260
    H            4.913141916899     0.719566304063    -0.652642041280

  Mulliken Charges: (a.u.)
   Center  Symbol    Alpha    Beta     Spin     Total
       1     O     4.20248  4.20248  0.00000 -0.40496
       2     C     2.81493  2.81493  0.00000  0.37015
       3     C     3.13959  3.13959  0.00000 -0.27919
       4     O     4.14520  4.14520  0.00000 -0.29040
       5     H     0.44219  0.44219  0.00000  0.11562
       6     H     0.44186  0.44186  0.00000  0.11629
       7     H     0.44214  0.44214  0.00000  0.11572
       8     C     2.97560  2.97560  0.00000  0.04880
       9     C     3.09058  3.09058  0.00000 -0.18117
      10     H     0.45386  0.45386  0.00000  0.09227
      11     H     0.45407  0.45407  0.00000  0.09187
      12     C     3.10618  3.10618  0.00000 -0.21235
      13     H     0.45191  0.45191  0.00000  0.09618
      14     H     0.44414  0.44414  0.00000  0.11173
      15     C     3.08345  3.08345  0.00000 -0.16690
      16     H     0.45431  0.45431  0.00000  0.09137
      17     H     0.44489  0.44489  0.00000  0.11023
      18     C     3.14969  3.14969  0.00000 -0.29939
      19     H     0.45352  0.45352  0.00000  0.09296
      20     H     0.45338  0.45338  0.00000  0.09323
      21     H     0.45398  0.45398  0.00000  0.09203
      22     H     0.44742  0.44742  0.00000  0.10516
      23     H     0.45462  0.45462  0.00000  0.09075

   Total alpha = 36.00000, Total beta = 36.00000, Total charge = -0.00000

*** Psi4 exiting successfully. Buy a developer a beer!
