  ==> Input File <==

--------------------------------------------------------------------------
set {
	reference rhf
	basis 6-31G*
}

set_num_threads( 4 )
memory 2 gb

molecule MOL {
0 1

H	 2.591676	 2.013956	 0.335017
O	 3.341076	 1.666752	 -0.126416
C	 3.569581	 0.339145	 0.272707
C	 2.539767	 -0.640285	 -0.279495
H	 4.553106	 0.084646	 -0.100901
H	 3.608576	 0.269204	 1.359154
C	 2.088703	 -0.329087	 -1.708678
H	 2.960208	 -1.641778	 -0.239391
H	 1.675341	 -0.632346	 0.382374
C	 1.015684	 -1.297537	 -2.214200
H	 2.949666	 -0.363907	 -2.370414
H	 1.700432	 0.688598	 -1.752329
C	 0.466815	 -0.979066	 -3.609786
H	 1.415286	 -2.310017	 -2.207116
H	 0.186877	 -1.294345	 -1.509382
C	 1.476672	 -1.133982	 -4.750255
H	 -0.377942	 -1.636977	 -3.803055
H	 0.067749	 0.034117	 -3.616438
C	 0.856143	 -0.908510	 -6.130668
H	 1.911588	 -2.131712	 -4.711608
H	 2.300723	 -0.437073	 -4.617744
C	 1.863451	 -1.056241	 -7.270480
H	 0.039720	 -1.612329	 -6.277569
H	 0.412534	 0.084319	 -6.167916
H	 2.301311	 -2.050427	 -7.280334
H	 1.393191	 -0.892682	 -8.235228
H	 2.674611	 -0.340127	 -7.172686

	symmetry c1
}
set optking {
	frozen_dihedral = ("
		8 4 3 2
	")
}

ee = optimize('scf')
oeprop('DIPOLE', 'QUADRUPOLE', 'MULLIKEN_CHARGES')
f=open( 'psi4out.xyz', 'w' )
f.write( "27  " )
f.write( str(ee) + "\n" )
f.write( MOL.save_string_xyz() )
f.close()
--------------------------------------------------------------------------

    Molecular point group: c1
  Charge       = 0
  Multiplicity = 1
  Basis Set: 6-31G*
  Basis Set:
  @DF-RHF Final Energy:  -388.27934042446503
    Total Energy =                       -388.2793404244644080
    Molecular point group: c1
  Basis Set: 6-31G*
  Basis Set:
  Basis Set: 6-31G*
  Basis Set:
  @DF-RHF Final Energy:  -388.27991007196238
    Total Energy =                       -388.2799100719622629
  Basis Set: 6-31G*
  Basis Set:
  Basis Set: 6-31G*
  Basis Set:
  @DF-RHF Final Energy:  -388.28008388568912
    Total Energy =                       -388.2800838856892369
  Basis Set: 6-31G*
  Basis Set:
  Basis Set: 6-31G*
  Basis Set:
  @DF-RHF Final Energy:  -388.28008160435456
    Total Energy =                       -388.2800816043547911
  Basis Set: 6-31G*
  Basis Set:
  Basis Set: 6-31G*
  Basis Set:
  @DF-RHF Final Energy:  -388.28007768567056
    Total Energy =                       -388.2800776856702214
  Basis Set: 6-31G*
  Basis Set:
  Basis Set: 6-31G*
  Basis Set:
  @DF-RHF Final Energy:  -388.28009008609490
    Total Energy =                       -388.2800900860947877
  Basis Set: 6-31G*
  Basis Set:
  Charge       = 0
  Multiplicity = 1
  Basis Set: 6-31G*
  Basis Set:

    Orbital Energies (a.u.)
    -----------------------

    Doubly Occupied:

       1A    -20.554227     2A    -11.267858     3A    -11.216711
       4A    -11.212381     5A    -11.212361     6A    -11.211247
       7A    -11.210270     8A    -11.209652     9A    -11.206085
      10A     -1.360328    11A     -1.090423    12A     -1.057519
      13A     -1.008392    14A     -0.944677    15A     -0.884098
      16A     -0.819054    17A     -0.799528    18A     -0.773579
      19A     -0.682155    20A     -0.649227    21A     -0.639888
      22A     -0.613029    23A     -0.603767    24A     -0.584267
      25A     -0.569088    26A     -0.557270    27A     -0.538413
      28A     -0.519241    29A     -0.504376    30A     -0.491539
      31A     -0.477839    32A     -0.465727    33A     -0.465675
      34A     -0.455913    35A     -0.454108    36A     -0.439180
      37A     -0.421225

  @DF-RHF Final Energy:  -388.28008992394570

   => Energetics <=

    Nuclear Repulsion Energy =            460.1226132433508269
    One-Electron Energy =               -1438.4647764365913645
    Two-Electron Energy =                 590.0620732692943875
    DFT Exchange-Correlation Energy =       0.0000000000000000
    Empirical Dispersion Energy =           0.0000000000000000
    PCM Polarization Energy =               0.0000000000000000
    EFP Energy =                            0.0000000000000000
    Total Energy =                       -388.2800899239462069
    Molecular point group: c1
  Basis Set: 6-31G*
  Basis Set:

  -Total Gradient:
     Atom            X                  Y                   Z
    ------   -----------------  -----------------  -----------------
       1        0.000004156368     0.000019986649    -0.000003630723
       2        0.002119502965    -0.000746635807    -0.003463650851
       3       -0.002543055055     0.001160308265     0.003702271577
       4       -0.001379964874    -0.000807751481     0.004522750312
       5        0.000010682406    -0.000017593426     0.000009294278
       6       -0.000009015157    -0.000049513251    -0.000010621940
       7        0.000043292462     0.000001801302    -0.000014871275
       8        0.001778502005     0.000464085190    -0.004778750963
       9       -0.000024725395    -0.000017753390     0.000010554609
      10       -0.000015892445    -0.000014287680     0.000027415806
      11        0.000004589124     0.000011004643     0.000005087339
      12        0.000010446874    -0.000023292159    -0.000004310495
      13        0.000007916020    -0.000001319734    -0.000004093925
      14        0.000001322085    -0.000001801350     0.000001061443
      15       -0.000003071039    -0.000007075270     0.000007927460
      16        0.000001510972     0.000030743412     0.000003912651
      17       -0.000001337476     0.000002812830    -0.000009890868
      18        0.000006867847    -0.000000598841    -0.000000662809
      19       -0.000002482637    -0.000003259553     0.000000164142
      20        0.000002779682     0.000009584760     0.000005958727
      21       -0.000008417680     0.000006386570    -0.000005881041
      22       -0.000003631298    -0.000016250251    -0.000000726212
      23       -0.000010368456     0.000004231051     0.000001233772
      24        0.000011384575     0.000000421777    -0.000000260464
      25        0.000004156214    -0.000001374154    -0.000002201769
      26       -0.000000654907    -0.000003409526    -0.000000322904
      27       -0.000004493184     0.000000549425     0.000002244122

  **** Optimization is complete! (in 7 steps) ****
    Final optimized geometry and variables:
    Molecular point group: c1

    Geometry (in Angstrom), charge = 0, multiplicity = 1:

    H            0.749064804551     2.481266255387     3.103343996479
    O            1.506475031590     2.100816592113     2.679921511427
    C            1.644448947818     0.759903493800     3.074874891691
    C            0.523796294517    -0.156373232176     2.577425971781
    H            2.585560593182     0.439824535369     2.645242785891
    H            1.742178923229     0.683097372157     4.155894868956
    C            0.096641852038     0.130572275468     1.134499400590
    H            0.893892985028    -1.178945054255     2.618306758977
    H           -0.341140087321    -0.097083814829     3.236012127239
    C           -0.940064779330    -0.874322257743     0.624479136681
    H            0.978218714555     0.117358816060     0.499656994607
    H           -0.308744051515     1.135121278267     1.064313464719
    C           -1.491295696162    -0.571881149459    -0.773825911776
    H           -0.510193565674    -1.874921698240     0.631400517617
    H           -1.774331715651    -0.900559692734     1.323332582357
    C           -0.466496874867    -0.680907573930    -1.906057406974
    H           -2.308628886134    -1.260967307673    -0.977262606958
    H           -1.928288387762     0.425438314093    -0.778887331544
    C           -1.083854882727    -0.474546224857    -3.290862437248
    H            0.007347333441    -1.661025795291    -1.867968128737
    H            0.327064501187     0.047920990045    -1.762449175916
    C           -0.062568295725    -0.581770794734    -4.422759061304
    H           -1.872966092686    -1.207223901919    -3.446620746001
    H           -1.562796211344     0.501657877973    -3.329104213964
    H            0.411231086404    -1.559438147216    -4.431938579375
    H           -0.530423673028    -0.432302856816    -5.391046289923
    H            0.721034540955     0.162997673805    -4.315679050757

  Mulliken Charges: (a.u.)
   Center  Symbol    Alpha    Beta     Spin     Total
       1     H     0.28343  0.28343  0.00000  0.43314
       2     O     4.36763  4.36763  0.00000 -0.73526
       3     C     2.99438  2.99438  0.00000  0.01123
       4     C     3.17695  3.17695  0.00000 -0.35391
       5     H     0.41631  0.41631  0.00000  0.16739
       6     H     0.42768  0.42768  0.00000  0.14465
       7     C     3.14787  3.14787  0.00000 -0.29575
       8     H     0.42076  0.42076  0.00000  0.15849
       9     H     0.42525  0.42525  0.00000  0.14951
      10     C     3.15361  3.15361  0.00000 -0.30721
      11     H     0.41852  0.41852  0.00000  0.16296
      12     H     0.41983  0.41983  0.00000  0.16034
      13     C     3.15261  3.15261  0.00000 -0.30522
      14     H     0.42499  0.42499  0.00000  0.15002
      15     H     0.42404  0.42404  0.00000  0.15192
      16     C     3.15298  3.15298  0.00000 -0.30596
      17     H     0.42280  0.42280  0.00000  0.15439
      18     H     0.42416  0.42416  0.00000  0.15169
      19     C     3.15107  3.15107  0.00000 -0.30213
      20     H     0.42537  0.42537  0.00000  0.14926
      21     H     0.42012  0.42012  0.00000  0.15977
      22     C     3.23914  3.23914  0.00000 -0.47829
      23     H     0.42381  0.42381  0.00000  0.15238
      24     H     0.42313  0.42313  0.00000  0.15373
      25     H     0.42225  0.42225  0.00000  0.15549
      26     H     0.41989  0.41989  0.00000  0.16022
      27     H     0.42142  0.42142  0.00000  0.15715

   Total alpha = 37.00000, Total beta = 37.00000, Total charge =  0.00000
