  ==> Input File <==

--------------------------------------------------------------------------
set {
	reference rhf
	basis 6-31G*
}

set_num_threads( 4 )
memory 2 gb

molecule MOL {
0 1

H	 -4.236494	 0.538104	 0.039757
O	 -3.517110	 -0.026191	 -0.205115
C	 -2.306886	 0.532354	 0.237577
C	 -1.177863	 -0.397191	 -0.171080
H	 -2.156308	 1.517575	 -0.201710
H	 -2.315015	 0.655684	 1.319734
C	 0.198102	 0.111031	 0.262842
H	 -1.208843	 -0.518759	 -1.250427
H	 -1.368741	 -1.376554	 0.258909
C	 1.331804	 -0.827780	 -0.158768
H	 0.361943	 1.100838	 -0.156218
H	 0.217265	 0.229072	 1.345532
C	 2.723619	 -0.410569	 0.329459
H	 1.342964	 -0.912588	 -1.244120
H	 1.116806	 -1.824343	 0.220779
C	 3.286454	 -1.274052	 1.459923
H	 2.673049	 0.620406	 0.670958
H	 3.416191	 -0.417673	 -0.509862
H	 2.608316	 -1.295785	 2.308861
H	 3.454304	 -2.298455	 1.144326
H	 4.237106	 -0.881559	 1.807721

	symmetry c1
}
set optking {
	frozen_dihedral = ("
		16 13 10 14
	")
}

ee = optimize('scf')
oeprop('DIPOLE', 'QUADRUPOLE', 'MULLIKEN_CHARGES')
f=open( 'psi4out.xyz', 'w' )
f.write( "21  " )
f.write( str(ee) + "\n" )
f.write( MOL.save_string_xyz() )
f.close()
--------------------------------------------------------------------------

    Molecular point group: c1
  Charge       = 0
  Multiplicity = 1
  Basis Set: 6-31G*
  Basis Set:
  @DF-RHF Final Energy:  -310.20887136798291
    Total Energy =                       -310.2088713679827379
    Molecular point group: c1
  Basis Set: 6-31G*
  Basis Set:
  Basis Set: 6-31G*
  Basis Set:
  @DF-RHF Final Energy:  -310.20925272461750
    Total Energy =                       -310.2092527246176132
  Basis Set: 6-31G*
  Basis Set:
  Basis Set: 6-31G*
  Basis Set:
  @DF-RHF Final Energy:  -310.20933050939482
    Total Energy =                       -310.2093305093948175
  Basis Set: 6-31G*
  Basis Set:
  Basis Set: 6-31G*
  Basis Set:
  @DF-RHF Final Energy:  -310.20932779757391
    Total Energy =                       -310.2093277975737351
  Basis Set: 6-31G*
  Basis Set:
  Basis Set: 6-31G*
  Basis Set:
  @DF-RHF Final Energy:  -310.20933206928618
    Total Energy =                       -310.2093320692863472
  Basis Set: 6-31G*
  Basis Set:
  Charge       = 0
  Multiplicity = 1
  Basis Set: 6-31G*
  Basis Set:

    Orbital Energies (a.u.)
    -----------------------

    Doubly Occupied:

       1A    -20.551885     2A    -11.267161     3A    -11.216601
       4A    -11.214513     5A    -11.213006     6A    -11.210559
       7A    -11.208471     8A     -1.358711     9A     -1.084997
      10A     -1.033221    11A     -0.955890    12A     -0.869140
      13A     -0.804424    14A     -0.788239    15A     -0.692567
      16A     -0.661204    17A     -0.620644    18A     -0.606183
      19A     -0.585891    20A     -0.564711    21A     -0.540003
      22A     -0.522080    23A     -0.507086    24A     -0.486798
      25A     -0.478669    26A     -0.463392    27A     -0.453633
      28A     -0.441974    29A     -0.434028

  @DF-RHF Final Energy:  -310.20933223892473

   => Energetics <=

    Nuclear Repulsion Energy =            310.3743918253453558
    One-Electron Energy =               -1035.4960839152206518
    Two-Electron Energy =                 414.9123598509503381
    DFT Exchange-Correlation Energy =       0.0000000000000000
    Empirical Dispersion Energy =           0.0000000000000000
    PCM Polarization Energy =               0.0000000000000000
    EFP Energy =                            0.0000000000000000
    Total Energy =                       -310.2093322389249579
    Molecular point group: c1
  Basis Set: 6-31G*
  Basis Set:

  -Total Gradient:
     Atom            X                  Y                   Z
    ------   -----------------  -----------------  -----------------
       1        0.000000121188    -0.000000282468     0.000000767294
       2        0.000000008835    -0.000001097954    -0.000000408807
       3        0.000001950601    -0.000003417331     0.000005700593
       4        0.000001169434     0.000008013162    -0.000004429266
       5       -0.000000975007    -0.000003557565    -0.000001984034
       6        0.000000558845     0.000003856093     0.000002692830
       7       -0.000002618909    -0.000000642128    -0.000006089624
       8       -0.000004261721     0.000005024614    -0.000001990818
       9        0.000006198870    -0.000001218268    -0.000005217072
      10       -0.000542570713     0.002470184056    -0.000685108012
      11        0.000003759140    -0.000005239823    -0.000002099290
      12       -0.000001873374    -0.000003527936    -0.000004797190
      13       -0.000909273497     0.000912051601     0.001689518961
      14        0.000680503956    -0.002309749594     0.000198365646
      15        0.000004929800     0.000003290904     0.000006646888
      16        0.000769354139    -0.001070892510    -0.001178292664
      17       -0.000011149914    -0.000006094484    -0.000002168888
      18        0.000004149547    -0.000005764111    -0.000006739794
      19       -0.000003694585     0.000005102285    -0.000005532949
      20        0.000006472615     0.000007658888    -0.000000982852
      21       -0.000002759244    -0.000003697431     0.000002149047

  **** Optimization is complete! (in 6 steps) ****
    Final optimized geometry and variables:
    Molecular point group: c1

    Geometry (in Angstrom), charge = 0, multiplicity = 1:

    H           -4.237709735110     0.869647134563    -0.211690858709
    O           -3.521982792864     0.304020327162    -0.464121954983
    C           -2.308637053333     0.846394679325    -0.010024601806
    C           -1.185516605799    -0.084412654670    -0.431958821705
    H           -2.150060641991     1.837577441457    -0.432724775203
    H           -2.318005040662     0.951890571767     1.074002454078
    C            0.192673864052     0.406090518065     0.012077403393
    H           -1.215374634050    -0.188329541321    -1.513207177443
    H           -1.383983055399    -1.069325544181    -0.018247498906
    C            1.327423745216    -0.525635344212    -0.418633650380
    H            0.374790312059     1.399788624964    -0.393932294563
    H            0.210498313068     0.512099560283     1.096069035691
    C            2.720122391299    -0.074470505254     0.072364216404
    H            1.326027278984    -0.623425222672    -1.501050136282
    H            1.120803977748    -1.525093555395    -0.041257003843
    C            3.271022110804    -0.935643861564     1.209851923460
    H            2.677898182424     0.963193953227     0.393757387792
    H            3.426541316551    -0.100908353604    -0.752590172226
    H            2.600467887195    -0.935962416093     2.065222162526
    H            3.396799877593    -1.965918416374     0.890233741850
    H            4.236944716203    -0.572388396835     1.547655940938

  Mulliken Charges: (a.u.)
   Center  Symbol    Alpha    Beta     Spin     Total
       1     H     0.28117  0.28117  0.00000  0.43766
       2     O     4.37175  4.37175  0.00000 -0.74350
       3     C     2.98978  2.98978  0.00000  0.02045
       4     C     3.15985  3.15985  0.00000 -0.31971
       5     H     0.43282  0.43282  0.00000  0.13437
       6     H     0.43288  0.43288  0.00000  0.13424
       7     C     3.16138  3.16138  0.00000 -0.32276
       8     H     0.41473  0.41473  0.00000  0.17054
       9     H     0.41462  0.41462  0.00000  0.17075
      10     C     3.15470  3.15470  0.00000 -0.30941
      11     H     0.42302  0.42302  0.00000  0.15395
      12     H     0.42350  0.42350  0.00000  0.15300
      13     C     3.15530  3.15530  0.00000 -0.31061
      14     H     0.41964  0.41964  0.00000  0.16072
      15     H     0.42039  0.42039  0.00000  0.15922
      16     C     3.23961  3.23961  0.00000 -0.47922
      17     H     0.42094  0.42094  0.00000  0.15812
      18     H     0.42007  0.42007  0.00000  0.15987
      19     H     0.42244  0.42244  0.00000  0.15512
      20     H     0.42090  0.42090  0.00000  0.15820
      21     H     0.42049  0.42049  0.00000  0.15901

   Total alpha = 29.00000, Total beta = 29.00000, Total charge = -0.00000
