  ==> Input File <==

--------------------------------------------------------------------------
set {
	reference rhf
	basis cc-pvtz
}

set_num_threads( 4 )
memory 2 gb

molecule MOL {
0 1

H	 -2.341000	 -0.002000	 -0.104000
N	 -1.363000	 -0.001000	 -0.316000
C	 -0.735000	 1.205000	 0.199000
C	 -0.734000	 -1.206000	 0.199000
H	 -0.802000	 1.278000	 1.287000
H	 -1.234000	 2.068000	 -0.228000
C	 0.734000	 1.206000	 -0.199000
H	 -0.800000	 -1.280000	 1.287000
H	 -1.231000	 -2.070000	 -0.228000
C	 0.735000	 -1.205000	 -0.199000
H	 0.800000	 1.280000	 -1.287000
H	 1.231000	 2.070000	 0.228000
N	 1.363000	 0.001000	 0.316000
H	 1.234000	 -2.068000	 0.228000
H	 0.802000	 -1.278000	 -1.287000
H	 2.341000	 0.002000	 0.104000

	symmetry c1
}
ee = optimize('scf')
oeprop('DIPOLE', 'QUADRUPOLE', 'MULLIKEN_CHARGES')
f=open( 'psi4out.xyz', 'w' )
f.write( "16  " )
f.write( str(ee) + "\n" )
f.write( MOL.save_string_xyz() )
f.close()
--------------------------------------------------------------------------

    Molecular point group: c1
  Charge       = 0
  Multiplicity = 1
  Basis Set: CC-PVTZ
  Basis Set:
  @DF-RHF Final Energy:  -266.26742899613566
    Total Energy =                       -266.2674289961356067
    Molecular point group: c1
  Basis Set: CC-PVTZ
  Basis Set:
  Basis Set: CC-PVTZ
  Basis Set:
  @DF-RHF Final Energy:  -266.26751980521311
    Total Energy =                       -266.2675198052128280
  Basis Set: CC-PVTZ
  Basis Set:
  Charge       = 0
  Multiplicity = 1
  Basis Set: CC-PVTZ
  Basis Set:

    Orbital Energies (a.u.)
    -----------------------

    Doubly Occupied:

       1A    -15.529955     2A    -15.529952     3A    -11.236055
       4A    -11.236036     5A    -11.235406     6A    -11.235394
       7A     -1.237894     8A     -1.170677     9A     -1.022046
      10A     -0.910096    11A     -0.855026    12A     -0.759907
      13A     -0.705596    14A     -0.642828    15A     -0.619333
      16A     -0.600602    17A     -0.577030    18A     -0.572252
      19A     -0.533920    20A     -0.489503    21A     -0.470989
      22A     -0.459284    23A     -0.369923    24A     -0.357865

  @DF-RHF Final Energy:  -266.26752296142831

   => Energetics <=

    Nuclear Repulsion Energy =            264.1372723920093222
    One-Electron Energy =                -884.0944667142798608
    Two-Electron Energy =                 353.6896713608422260
    DFT Exchange-Correlation Energy =       0.0000000000000000
    Empirical Dispersion Energy =           0.0000000000000000
    PCM Polarization Energy =               0.0000000000000000
    EFP Energy =                            0.0000000000000000
    Total Energy =                       -266.2675229614283126
    Molecular point group: c1
  Basis Set: CC-PVTZ
  Basis Set:

  -Total Gradient:
     Atom            X                  Y                   Z
    ------   -----------------  -----------------  -----------------
       1        0.000122690828    -0.000009392963    -0.000001303177
       2       -0.000153896579    -0.000014728750    -0.000136586660
       3        0.000156862364     0.000058832156     0.000166560481
       4        0.000133126480    -0.000067172443     0.000166380720
       5       -0.000026243423    -0.000007404724    -0.000032553389
       6        0.000042226052    -0.000083043006    -0.000008148898
       7       -0.000133128035     0.000067173591    -0.000166381404
       8       -0.000021524123     0.000001913561    -0.000029764158
       9        0.000024528677     0.000078039390    -0.000008783421
      10       -0.000156862877    -0.000058831226    -0.000166560390
      11        0.000021524387    -0.000001913830     0.000029764648
      12       -0.000024528721    -0.000078039528     0.000008783419
      13        0.000153895811     0.000014728499     0.000136587095
      14       -0.000042225357     0.000083041682     0.000008149389
      15        0.000026243669     0.000007404654     0.000032552659
      16       -0.000122689151     0.000009392935     0.000001303084

  **** Optimization is complete! (in 3 steps) ****
    Final optimized geometry and variables:
    Molecular point group: c1

    Geometry (in Angstrom), charge = 0, multiplicity = 1:

    H           -2.338375968824    -0.001812094582    -0.100213312515
    N           -1.364403063084    -0.001055340876    -0.310259313257
    C           -0.734045695945     1.203329811299     0.197366129668
    C           -0.732296569412    -1.204517293064     0.197261806627
    H           -0.802395942701     1.280097568403     1.284041995823
    H           -1.229204276090     2.066468288319    -0.230642112886
    C            0.732296569110     1.204517293217    -0.197261808558
    H           -0.800495197572    -1.281538454475     1.283937287799
    H           -1.226194067012    -2.068355622038    -0.230833287715
    C            0.734045695826    -1.203329811441    -0.197366130022
    H            0.800495198850     1.281538450566    -1.283937289429
    H            1.226194067497     2.068355623735     0.230833283624
    N            1.364403062870     0.001055341074     0.310259315223
    H            1.229204275306    -2.066468290351     0.230642113001
    H            0.802395947345    -1.280097566915    -1.284041997026
    H            2.338375971200     0.001812094461     0.100213319197

  Mulliken Charges: (a.u.)
   Center  Symbol    Alpha    Beta     Spin     Total
       1     H     0.44002  0.44002  0.00000  0.11995
       2     N     3.64493  3.64493  0.00000 -0.28987
       3     C     3.03851  3.03851  0.00000 -0.07702
       4     C     3.03851  3.03851  0.00000 -0.07702
       5     H     0.46612  0.46612  0.00000  0.06777
       6     H     0.45289  0.45289  0.00000  0.09422
       7     C     3.03851  3.03851  0.00000 -0.07702
       8     H     0.46612  0.46612  0.00000  0.06776
       9     H     0.45289  0.45289  0.00000  0.09422
      10     C     3.03851  3.03851  0.00000 -0.07702
      11     H     0.46612  0.46612  0.00000  0.06776
      12     H     0.45289  0.45289  0.00000  0.09422
      13     N     3.64493  3.64493  0.00000 -0.28987
      14     H     0.45289  0.45289  0.00000  0.09422
      15     H     0.46612  0.46612  0.00000  0.06777
      16     H     0.44002  0.44002  0.00000  0.11995

   Total alpha = 24.00000, Total beta = 24.00000, Total charge =  0.00000
