  ==> Input File <==

--------------------------------------------------------------------------
set {
	reference rhf
	basis cc-pvtz
}

set_num_threads( 4 )
memory 2 gb

molecule MOL {
0 1

O	 0.074770	 1.259872	 0.000487
C	 0.029490	 0.077183	 0.000078
C	 -1.232113	 -0.748027	 0.000015
O	 1.106773	 -0.690081	 -0.000204
C	 -2.501422	 0.088592	 -0.000052
H	 -1.188777	 -1.400384	 -0.865133
H	 -1.188857	 -1.400312	 0.865225
H	 -2.548170	 0.725504	 -0.873205
H	 -3.371613	 -0.556398	 -0.000040
H	 -2.548215	 0.725571	 0.873047
C	 1.635190	 -1.066234	 -1.255962
H	 0.907632	 -1.627876	 -1.822930
H	 2.496472	 -1.679081	 -1.045161
H	 1.927387	 -0.194812	 -1.822963

	symmetry c1
}
set optking {
	frozen_dihedral = ("
		11 4 2 3
	")
}

ee = optimize('scf')
oeprop('DIPOLE', 'QUADRUPOLE', 'MULLIKEN_CHARGES')
f=open( 'psi4out.xyz', 'w' )
f.write( "14  " )
f.write( str(ee) + "\n" )
f.write( MOL.save_string_xyz() )
f.close()
--------------------------------------------------------------------------

    Molecular point group: c1
  Charge       = 0
  Multiplicity = 1
  Basis Set: CC-PVTZ
  Basis Set:
  @DF-RHF Final Energy:  -305.96676318258369
    Total Energy =                       -305.9667631825838043
    Molecular point group: c1
  Basis Set: CC-PVTZ
  Basis Set:
  Basis Set: CC-PVTZ
  Basis Set:
  @DF-RHF Final Energy:  -305.96785766957191
    Total Energy =                       -305.9678576695715719
  Basis Set: CC-PVTZ
  Basis Set:
  Basis Set: CC-PVTZ
  Basis Set:
  @DF-RHF Final Energy:  -305.96769563450891
    Total Energy =                       -305.9676956345089138
  Basis Set: CC-PVTZ
  Basis Set:
  Basis Set: CC-PVTZ
  Basis Set:
  @DF-RHF Final Energy:  -305.96806877692876
    Total Energy =                       -305.9680687769284759
  Basis Set: CC-PVTZ
  Basis Set:
  Basis Set: CC-PVTZ
  Basis Set:
  @DF-RHF Final Energy:  -305.96808102675493
    Total Energy =                       -305.9680810267549305
  Basis Set: CC-PVTZ
  Basis Set:
  Charge       = 0
  Multiplicity = 1
  Basis Set: CC-PVTZ
  Basis Set:

    Orbital Energies (a.u.)
    -----------------------

    Doubly Occupied:

       1A    -20.578539     2A    -20.546850     3A    -11.368676
       4A    -11.289861     5A    -11.242201     6A    -11.218342
       7A     -1.462611     8A     -1.370892     9A     -1.064211
      10A     -0.976682    11A     -0.893558    12A     -0.767767
      13A     -0.702881    14A     -0.681126    15A     -0.674409
      16A     -0.625386    17A     -0.616088    18A     -0.557292
      19A     -0.546832    20A     -0.526508    21A     -0.511783
      22A     -0.494399    23A     -0.459718    24A     -0.440392

  @DF-RHF Final Energy:  -305.96808157103987

   => Energetics <=

    Nuclear Repulsion Energy =            247.1272203934618403
    One-Electron Energy =                -906.9565950310183098
    Two-Electron Energy =                 353.8612930665168506
    DFT Exchange-Correlation Energy =       0.0000000000000000
    Empirical Dispersion Energy =           0.0000000000000000
    PCM Polarization Energy =               0.0000000000000000
    EFP Energy =                            0.0000000000000000
    Total Energy =                       -305.9680815710396473
    Molecular point group: c1
  Basis Set: CC-PVTZ
  Basis Set:

  -Total Gradient:
     Atom            X                  Y                   Z
    ------   -----------------  -----------------  -----------------
       1       -0.000027921885     0.000012195499    -0.000004275635
       2       -0.000558283832    -0.001014995489     0.003128676678
       3        0.000030994024     0.000035254913    -0.002122858040
       4        0.001923577604     0.002951882035    -0.000967391244
       5       -0.000028296720     0.000001980585    -0.000010672596
       6        0.000012934363     0.000004163675    -0.000013161315
       7        0.000004407424    -0.000001107114    -0.000015701722
       8        0.000000873816    -0.000001783269     0.000004385865
       9       -0.000011635908     0.000006156037     0.000002440730
      10       -0.000001451760    -0.000000587220     0.000000022045
      11       -0.001366888586    -0.001981919453     0.000008498433
      12        0.000013347665    -0.000001915949    -0.000013991468
      13        0.000010774741    -0.000001768298    -0.000008404605
      14       -0.000002430943    -0.000007555951     0.000012432874

  **** Optimization is complete! (in 6 steps) ****
    Final optimized geometry and variables:
    Molecular point group: c1

    Geometry (in Angstrom), charge = 0, multiplicity = 1:

    O            0.203052221896     1.420760774754     0.242381248273
    C            0.147359464083     0.246463246863     0.221243825380
    C           -1.128539977972    -0.556227691295     0.225845841326
    O            1.264777617793    -0.512375040913     0.217328341659
    C           -2.389264290047     0.293168866890     0.224649709207
    H           -1.102237429193    -1.219282541120    -0.632768998218
    H           -1.087778868029    -1.204091396534     1.095305622620
    H           -2.433170607552     0.924005262355    -0.653310159140
    H           -3.267287230470    -0.341027477091     0.234439211131
    H           -2.422782352388     0.937356613244     1.092782996799
    C            1.791177808151    -0.872982763546    -1.038824463010
    H            1.089985593275    -1.478396098442    -1.602072942428
    H            2.680340601402    -1.451543719450    -0.848242908805
    H            2.051467123850     0.008295469772    -1.611238372811

  Mulliken Charges: (a.u.)
   Center  Symbol    Alpha    Beta     Spin     Total
       1     O     4.16814  4.16814  0.00000 -0.33629
       2     C     2.78997  2.78997  0.00000  0.42007
       3     C     3.10594  3.10594  0.00000 -0.21188
       4     O     4.16806  4.16806  0.00000 -0.33613
       5     C     3.13888  3.13888  0.00000 -0.27777
       6     H     0.44600  0.44600  0.00000  0.10801
       7     H     0.43936  0.43936  0.00000  0.12128
       8     H     0.44911  0.44911  0.00000  0.10179
       9     H     0.45051  0.45051  0.00000  0.09899
      10     H     0.44570  0.44570  0.00000  0.10860
      11     C     3.03421  3.03421  0.00000 -0.06842
      12     H     0.46705  0.46705  0.00000  0.06590
      13     H     0.44229  0.44229  0.00000  0.11543
      14     H     0.45479  0.45479  0.00000  0.09042

   Total alpha = 24.00000, Total beta = 24.00000, Total charge = -0.00000
