  ==> Input File <==

--------------------------------------------------------------------------
set {
	reference rhf
	basis cc-pvtz
}

set_num_threads( 4 )
memory 2 gb

molecule MOL {
0 1

O	 -2.440701	 -0.934798	 -0.415053
C	 -1.922978	 0.063265	 -0.045005
C	 -2.632749	 1.372204	 0.158357
O	 -0.637375	 0.157174	 0.243149
H	 -2.187724	 2.129143	 -0.474664
H	 -3.677681	 1.257276	 -0.079438
H	 -2.516788	 1.693160	 1.185542
C	 0.162530	 -1.009518	 0.097799
C	 1.587210	 -0.664190	 0.477086
H	 0.096803	 -1.356267	 -0.924704
H	 -0.233803	 -1.785900	 0.736810
C	 2.256770	 0.342732	 -0.454344
H	 2.154716	 -1.590834	 0.479041
H	 1.598751	 -0.289614	 1.496104
C	 2.009488	 1.787612	 -0.033880
H	 3.326299	 0.151116	 -0.476455
H	 1.895848	 0.192649	 -1.465311
H	 2.498546	 2.480306	 -0.708700
H	 2.387697	 1.976932	 0.965374
H	 0.949533	 2.018942	 -0.034227

	symmetry c1
}
set optking {
	frozen_dihedral = ("
		16 12 9 8
	")
}

ee = optimize('scf')
oeprop('DIPOLE', 'QUADRUPOLE', 'MULLIKEN_CHARGES')
f=open( 'psi4out.xyz', 'w' )
f.write( "20  " )
f.write( str(ee) + "\n" )
f.write( MOL.save_string_xyz() )
f.close()
--------------------------------------------------------------------------

    Molecular point group: c1
  Charge       = 0
  Multiplicity = 1
  Basis Set: CC-PVTZ
  Basis Set:
  @DF-RHF Final Energy:  -384.08318246842998
    Total Energy =                       -384.0831824684299818
    Molecular point group: c1
  Basis Set: CC-PVTZ
  Basis Set:
  Basis Set: CC-PVTZ
  Basis Set:
  @DF-RHF Final Energy:  -384.08385823177844
    Total Energy =                       -384.0838582317787768
  Basis Set: CC-PVTZ
  Basis Set:
  Basis Set: CC-PVTZ
  Basis Set:
  @DF-RHF Final Energy:  -384.08377130042356
    Total Energy =                       -384.0837713004231091
  Basis Set: CC-PVTZ
  Basis Set:
  Basis Set: CC-PVTZ
  Basis Set:
  @DF-RHF Final Energy:  -384.08379869307970
    Total Energy =                       -384.0837986930800980
  Basis Set: CC-PVTZ
  Basis Set:
  Basis Set: CC-PVTZ
  Basis Set:
  @DF-RHF Final Energy:  -384.08393722958323
    Total Energy =                       -384.0839372295831708
  Basis Set: CC-PVTZ
  Basis Set:
  Charge       = 0
  Multiplicity = 1
  Basis Set: CC-PVTZ
  Basis Set:

    Orbital Energies (a.u.)
    -----------------------

    Doubly Occupied:

       1A    -20.594753     2A    -20.533307     3A    -11.367235
       4A    -11.280588     5A    -11.232262     6A    -11.224396
       7A    -11.220395     8A    -11.206852     9A     -1.471561
      10A     -1.365738    11A     -1.085072    12A     -1.028127
      13A     -0.981519    14A     -0.886616    15A     -0.805064
      16A     -0.778968    17A     -0.694043    18A     -0.689124
      19A     -0.670241    20A     -0.620565    21A     -0.601476
      22A     -0.598665    23A     -0.575617    24A     -0.556563
      25A     -0.541813    26A     -0.535359    27A     -0.511968
      28A     -0.481352    29A     -0.476886    30A     -0.469479
      31A     -0.451304    32A     -0.441607

  @DF-RHF Final Energy:  -384.08393788124340

   => Energetics <=

    Nuclear Repulsion Energy =            392.7099448402968846
    One-Electron Energy =               -1301.6307396610750402
    Two-Electron Energy =                 524.8368569395347549
    DFT Exchange-Correlation Energy =       0.0000000000000000
    Empirical Dispersion Energy =           0.0000000000000000
    PCM Polarization Energy =               0.0000000000000000
    EFP Energy =                            0.0000000000000000
    Total Energy =                       -384.0839378812434006
    Molecular point group: c1
  Basis Set: CC-PVTZ
  Basis Set:

  -Total Gradient:
     Atom            X                  Y                   Z
    ------   -----------------  -----------------  -----------------
       1       -0.000006760759     0.000000378745     0.000012479983
       2       -0.000012776520    -0.000013177091     0.000060589983
       3        0.000011867339     0.000013689830    -0.000066261907
       4       -0.000006131465     0.000020850887     0.000014291467
       5       -0.000000866992     0.000008284899     0.000018468219
       6       -0.000002553201    -0.000000377762     0.000002374615
       7       -0.000004882795    -0.000016916030     0.000009564478
       8        0.000352657038    -0.000634932885    -0.000667754813
       9       -0.000471488247     0.000758043528     0.000571286084
      10        0.000026347840    -0.000013998696     0.000040526433
      11       -0.000031249287    -0.000001105537     0.000026409348
      12        0.000272871022     0.000614680862     0.000896899593
      13        0.000007781322    -0.000010984115     0.000008274477
      14        0.000011372713     0.000001918838    -0.000005159516
      15       -0.000018871575    -0.000001733469    -0.000005404862
      16       -0.000147899935    -0.000725954016    -0.000921663352
      17       -0.000000061246    -0.000003778034    -0.000000487024
      18        0.000006549857     0.000009083955     0.000002694140
      19       -0.000001142758    -0.000000569281     0.000002219294
      20        0.000015237649    -0.000003404633     0.000000653361

  **** Optimization is complete! (in 6 steps) ****
    Final optimized geometry and variables:
    Molecular point group: c1

    Geometry (in Angstrom), charge = 0, multiplicity = 1:

    O           -2.234224147890    -1.109501962066    -0.406698043831
    C           -1.733129045084    -0.101522913462    -0.041091232948
    C           -2.466727704908     1.193139998453     0.167213062690
    O           -0.446395405674     0.017295688636     0.234529625123
    H           -2.049391456199     1.955012148711    -0.478692901870
    H           -3.512893962933     1.054758565484    -0.051937763474
    H           -2.339610712110     1.523192870900     1.190084529754
    C            0.370974741350    -1.136680680869     0.083553519869
    C            1.797769814279    -0.802189374434     0.468926952360
    H            0.313288191088    -1.474987699292    -0.942141834089
    H           -0.020688851820    -1.923262286353     0.713025189392
    C            2.514843768828     0.205155140910    -0.440734196194
    H            2.336676405018    -1.744500162740     0.444825704397
    H            1.821886936569    -0.461256029667     1.499133091065
    C            2.320765115765     1.670289728866    -0.058613266560
    H            3.576080725773    -0.020218946336    -0.431573363763
    H            2.191113582533     0.051427308442    -1.466572496505
    H            2.874714238775     2.316876668064    -0.729940008067
    H            2.680248324099     1.856487693349     0.948125431031
    H            1.279292537390     1.958071222472    -0.096254494700

  Mulliken Charges: (a.u.)
   Center  Symbol    Alpha    Beta     Spin     Total
       1     O     4.19748  4.19748  0.00000 -0.39497
       2     C     2.80808  2.80808  0.00000  0.38384
       3     C     3.14136  3.14136  0.00000 -0.28271
       4     O     4.15316  4.15316  0.00000 -0.30632
       5     H     0.44627  0.44627  0.00000  0.10745
       6     H     0.43568  0.43568  0.00000  0.12865
       7     H     0.44515  0.44515  0.00000  0.10969
       8     C     2.99141  2.99141  0.00000  0.01717
       9     C     3.09210  3.09210  0.00000 -0.18419
      10     H     0.45215  0.45215  0.00000  0.09569
      11     H     0.44488  0.44488  0.00000  0.11025
      12     C     3.08886  3.08886  0.00000 -0.17773
      13     H     0.44546  0.44546  0.00000  0.10907
      14     H     0.45228  0.45228  0.00000  0.09544
      15     C     3.14673  3.14673  0.00000 -0.29347
      16     H     0.44781  0.44781  0.00000  0.10438
      17     H     0.45505  0.45505  0.00000  0.08990
      18     H     0.44991  0.44991  0.00000  0.10017
      19     H     0.45698  0.45698  0.00000  0.08604
      20     H     0.44918  0.44918  0.00000  0.10163

   Total alpha = 32.00000, Total beta = 32.00000, Total charge = -0.00000
