  ==> Input File <==

--------------------------------------------------------------------------
set {
	reference rhf
	basis 6-31G*
}

set_num_threads( 4 )
memory 2 gb

molecule MOL {
0 1

O	 0.035709	 -0.220705	 0.339771
C	 1.122059	 0.121804	 -0.000188
C	 1.497076	 1.502190	 -0.481634
O	 2.172624	 -0.688929	 0.000216
C	 0.323445	 2.476610	 -0.502579
H	 2.297102	 1.863216	 0.158970
H	 1.936118	 1.393346	 -1.469637
C	 0.730504	 3.866547	 -0.994254
H	 -0.100612	 2.548370	 0.494181
H	 -0.462366	 2.077559	 -1.136426
C	 -0.439709	 4.848871	 -1.019615
H	 1.518585	 4.261398	 -0.356213
H	 1.157109	 3.788530	 -1.992248
H	 -0.866518	 4.974946	 -0.028861
H	 -0.124300	 5.826117	 -1.371442
H	 -1.230290	 4.499009	 -1.677049
C	 3.452279	 -0.082609	 0.000533
H	 3.583069	 0.529321	 -0.880332
H	 4.163299	 -0.894027	 0.001117
H	 3.582335	 0.529955	 0.881077

	symmetry c1
}
set optking {
	frozen_dihedral = ("
		1 2 4 17
	")
}

ee = optimize('scf')
oeprop('DIPOLE', 'QUADRUPOLE', 'MULLIKEN_CHARGES')
f=open( 'psi4out.xyz', 'w' )
f.write( "20  " )
f.write( str(ee) + "\n" )
f.write( MOL.save_string_xyz() )
f.close()
--------------------------------------------------------------------------

    Molecular point group: c1
  Charge       = 0
  Multiplicity = 1
  Basis Set: 6-31G*
  Basis Set:
  @DF-RHF Final Energy:  -383.91525706290281
    Total Energy =                       -383.9152570629025831
    Molecular point group: c1
  Basis Set: 6-31G*
  Basis Set:
  Basis Set: 6-31G*
  Basis Set:
  @DF-RHF Final Energy:  -383.91398768074231
    Total Energy =                       -383.9139876807427640
  Basis Set: 6-31G*
  Basis Set:
  Basis Set: 6-31G*
  Basis Set:
  @DF-RHF Final Energy:  -383.92300760891658
    Total Energy =                       -383.9230076089165777
  Basis Set: 6-31G*
  Basis Set:
  Basis Set: 6-31G*
  Basis Set:
  @DF-RHF Final Energy:  -383.92500364717364
    Total Energy =                       -383.9250036471735257
  Basis Set: 6-31G*
  Basis Set:
  @DF-RHF Final Energy:  -383.92405497209057
    Total Energy =                       -383.9240549720906301
  Basis Set: 6-31G*
  Basis Set:
  @DF-RHF Final Energy:  -383.92551158978915
    Total Energy =                       -383.9255115897894939
  Basis Set: 6-31G*
  Basis Set:
  Basis Set: 6-31G*
  Basis Set:
  @DF-RHF Final Energy:  -383.92569803281549
    Total Energy =                       -383.9256980328151485
  Basis Set: 6-31G*
  Basis Set:
  Basis Set: 6-31G*
  Basis Set:
  @DF-RHF Final Energy:  -383.92570163175844
    Total Energy =                       -383.9257016317583293
  Basis Set: 6-31G*
  Basis Set:
  Charge       = 0
  Multiplicity = 1
  Basis Set: 6-31G*
  Basis Set:

    Orbital Energies (a.u.)
    -----------------------

    Doubly Occupied:

       1A    -20.600540     2A    -20.541043     3A    -11.373999
       4A    -11.296391     5A    -11.245655     6A    -11.224430
       7A    -11.223602     8A    -11.213506     9A     -1.462569
      10A     -1.365332    11A     -1.091865    12A     -1.017184
      13A     -0.984630    14A     -0.901868    15A     -0.810697
      16A     -0.767201    17A     -0.700106    18A     -0.688578
      19A     -0.673034    20A     -0.649977    21A     -0.603514
      22A     -0.593981    23A     -0.589386    24A     -0.552616
      25A     -0.541153    26A     -0.522350    27A     -0.509436
      28A     -0.482512    29A     -0.475197    30A     -0.474285
      31A     -0.447499    32A     -0.430975

  @DF-RHF Final Energy:  -383.92570191103403

   => Energetics <=

    Nuclear Repulsion Energy =            383.1060131085257581
    One-Electron Energy =               -1281.9532028432608968
    Two-Electron Energy =                 514.9214878237011135
    DFT Exchange-Correlation Energy =       0.0000000000000000
    Empirical Dispersion Energy =           0.0000000000000000
    PCM Polarization Energy =               0.0000000000000000
    EFP Energy =                            0.0000000000000000
    Total Energy =                       -383.9257019110340252
    Molecular point group: c1
  Basis Set: 6-31G*
  Basis Set:

  -Total Gradient:
     Atom            X                  Y                   Z
    ------   -----------------  -----------------  -----------------
       1        0.000576515509     0.000563526198     0.002048841351
       2       -0.000769282051    -0.000785254660    -0.001917963631
       3        0.000008210321    -0.000002853413     0.000052982512
       4        0.000194634234     0.000239207187    -0.002100345630
       5        0.000003081426    -0.000006100361    -0.000012936238
       6       -0.000012751448     0.000002867720    -0.000010036248
       7        0.000000196927    -0.000023020761     0.000001099852
       8       -0.000002926509     0.000005334979     0.000000875299
       9       -0.000002855738     0.000001896480     0.000000934790
      10        0.000006719082    -0.000003607215    -0.000001298414
      11        0.000000636777     0.000004786258     0.000004174269
      12        0.000002586795    -0.000002555902    -0.000002140138
      13       -0.000004393932    -0.000002106173    -0.000001853246
      14       -0.000001984982     0.000000660097     0.000000870139
      15       -0.000000477965     0.000000430036     0.000002133000
      16        0.000001454582     0.000000043839    -0.000001025813
      17       -0.000029257716    -0.000001616068     0.001970491207
      18       -0.000022261762     0.000012750227    -0.000015519558
      19        0.000006591161     0.000008514485    -0.000006911623
      20        0.000045565292    -0.000012902953    -0.000012371882

  **** Optimization is complete! (in 9 steps) ****
    Final optimized geometry and variables:
    Molecular point group: c1

    Geometry (in Angstrom), charge = 0, multiplicity = 1:

    O           -1.024123104521    -1.598621730026     0.681500815004
    C            0.058276853706    -1.269584321758     0.333674104318
    C            0.390590154605     0.129969648814    -0.145794627565
    O            1.044215750671    -2.173326565548     0.333914166413
    C           -0.830900404114     1.044646313696    -0.188393595143
    H            1.153685220731     0.553028865140     0.502530698308
    H            0.843874236530     0.052111987078    -1.131092324471
    C           -0.484378633444     2.451979561663    -0.676836125732
    H           -1.273119670083     1.094439771980     0.800938173542
    H           -1.583798127040     0.604087602573    -0.833493643770
    C           -1.701576927880     3.374775214598    -0.721961540215
    H            0.272944262427     2.887142482419    -0.027498340111
    H           -0.039468060895     2.394666671332    -1.668356449079
    H           -2.149172846349     3.480380648979     0.261876749391
    H           -1.429608155933     4.365980392485    -1.070809335443
    H           -2.463325112842     2.985029730735    -1.390715374758
    C            2.404841072798    -1.811579665741     0.341116103594
    H            2.689376720157    -1.283140593676    -0.559970403808
    H            2.954524426163    -2.738385596295     0.393096564873
    H            2.647776140669    -1.209015468608     1.207875746171

  Mulliken Charges: (a.u.)
   Center  Symbol    Alpha    Beta     Spin     Total
       1     O     4.26545  4.26545  0.00000 -0.53090
       2     C     2.59869  2.59869  0.00000  0.80261
       3     C     3.23385  3.23385  0.00000 -0.46770
       4     O     4.30416  4.30416  0.00000 -0.60832
       5     C     3.14754  3.14754  0.00000 -0.29508
       6     H     0.40514  0.40514  0.00000  0.18973
       7     H     0.40299  0.40299  0.00000  0.19402
       8     C     3.15482  3.15482  0.00000 -0.30964
       9     H     0.40897  0.40897  0.00000  0.18206
      10     H     0.40926  0.40926  0.00000  0.18149
      11     C     3.23954  3.23954  0.00000 -0.47908
      12     H     0.42400  0.42400  0.00000  0.15201
      13     H     0.42349  0.42349  0.00000  0.15302
      14     H     0.41918  0.41918  0.00000  0.16163
      15     H     0.41845  0.41845  0.00000  0.16310
      16     H     0.41903  0.41903  0.00000  0.16194
      17     C     3.09394  3.09394  0.00000 -0.18788
      18     H     0.41747  0.41747  0.00000  0.16505
      19     H     0.39815  0.39815  0.00000  0.20371
      20     H     0.41588  0.41588  0.00000  0.16824

   Total alpha = 32.00000, Total beta = 32.00000, Total charge = -0.00000
