  ==> Input File <==

--------------------------------------------------------------------------
set {
	reference rhf
	basis 6-31G*
}

set_num_threads( 1 )
memory 2 gb

molecule MOL {
0 1

O	 1.893217	 0.088086	 -0.918726
C	 2.701189	 0.057885	 -0.047330
C	 3.130336	 1.233849	 0.796311
O	 3.347903	 -1.046386	 0.304773
C	 2.403257	 2.527594	 0.436179
H	 2.975116	 0.955085	 1.833320
H	 4.205210	 1.342661	 0.675885
C	 2.901923	 3.752041	 1.211135
H	 1.337687	 2.397614	 0.599839
H	 2.522981	 2.707054	 -0.626780
C	 2.625799	 3.719115	 2.717051
H	 2.425484	 4.634223	 0.789846
H	 3.970539	 3.877247	 1.042632
C	 3.042792	 5.008878	 3.426719
H	 1.563584	 3.545220	 2.882208
H	 3.147301	 2.881892	 3.175380
C	 2.776347	 4.985309	 4.932901
H	 2.514735	 5.850866	 2.982371
H	 4.102546	 5.189008	 3.253012
C	 3.192040	 6.278413	 5.633460
H	 1.717972	 4.804408	 5.108288
H	 3.306854	 4.146927	 5.379508
H	 2.990870	 6.231069	 6.699244
H	 2.652774	 7.132145	 5.232799
H	 4.253770	 6.469821	 5.505530
C	 4.728119	 -1.109107	 -0.004993
H	 4.882018	 -1.033965	 -1.071845
H	 5.068212	 -2.067527	 0.355250
H	 5.265056	 -0.311663	 0.488280

	symmetry c1
}
set optking {
	frozen_dihedral = ("
		21 17 14 11,
		17 14 11 15,
		15 11 8 5,
		6 3 5 9,
		11 8 5 9,
		2 4 26 27,
		6 3 2 1
	")
}

ee = energy('scf')
oeprop('DIPOLE', 'QUADRUPOLE', 'MULLIKEN_CHARGES')
f=open( 'psi4out.xyz', 'w' )
f.write( "29  " )
f.write( str(ee) + "\n" )
f.write( MOL.save_string_xyz() )
f.close()
--------------------------------------------------------------------------

    Molecular point group: c1

    Geometry (in Angstrom), charge = 0, multiplicity = 1:

       Center              X                  Y                   Z               Mass
    ------------   -----------------  -----------------  -----------------  -----------------
           O         -1.099349123457    -2.196933072130    -2.588538105493    15.994914619560
           C         -0.291377123457    -2.227134072130    -1.717142105493    12.000000000000
           C          0.137769876543    -1.051170072130    -0.873501105493    12.000000000000
           O          0.355336876543    -3.331405072130    -1.365039105493    15.994914619560
           C         -0.589309123457     0.242574927870    -1.233633105493    12.000000000000
           H         -0.017450123457    -1.329934072130     0.163507894507     1.007825032070
           H          1.212643876543    -0.942358072130    -0.993927105493     1.007825032070
           C         -0.090643123457     1.467021927870    -0.458677105493    12.000000000000
           H         -1.654879123457     0.112594927870    -1.069973105493     1.007825032070
           H         -0.469585123457     0.422034927870    -2.296592105493     1.007825032070
           C         -0.366767123457     1.434095927870     1.047238894507    12.000000000000
           H         -0.567082123457     2.349203927870    -0.879966105493     1.007825032070
           H          0.977972876543     1.592227927870    -0.627180105493     1.007825032070
           C          0.050225876543     2.723858927870     1.756906894507    12.000000000000
           H         -1.428982123457     1.260200927870     1.212395894507     1.007825032070
           H          0.154734876543     0.596872927870     1.505567894507     1.007825032070
           C         -0.216219123457     2.700289927870     3.263088894507    12.000000000000
           H         -0.477831123457     3.565846927870     1.312558894507     1.007825032070
           H          1.109979876543     2.903988927870     1.583199894507     1.007825032070
           C          0.199473876543     3.993393927870     3.963647894507    12.000000000000
           H         -1.274594123457     2.519388927870     3.438475894507     1.007825032070
           H          0.314287876543     1.861907927870     3.709695894507     1.007825032070
           H         -0.001696123457     3.946049927870     5.029431894507     1.007825032070
           H         -0.339792123457     4.847125927870     3.562986894507     1.007825032070
           H          1.261203876543     4.184801927870     3.835717894507     1.007825032070
           C          1.735552876543    -3.394126072130    -1.674805105493    12.000000000000
           H          1.889451876543    -3.318984072130    -2.741657105493     1.007825032070
           H          2.075645876543    -4.352546072130    -1.314562105493     1.007825032070
           H          2.272489876543    -2.596682072130    -1.181532105493     1.007825032070

  Charge       = 0
  Multiplicity = 1
  Basis Set: 6-31G*
  Basis Set:

    Orbital Energies (a.u.)
    -----------------------

    Doubly Occupied:

       1A    -20.589860     2A    -20.553985     3A    -11.373629
       4A    -11.296831     5A    -11.237098     6A    -11.220954
       7A    -11.219682     8A    -11.218056     9A    -11.217451
      10A    -11.216304    11A    -11.210449    12A     -1.464076
      13A     -1.368466    14A     -1.099686    15A     -1.067070
      16A     -1.015023    17A     -0.983164    18A     -0.941946
      19A     -0.868072    20A     -0.804191    21A     -0.793388
      22A     -0.763970    23A     -0.699914    24A     -0.681180
      25A     -0.678082    26A     -0.653124    27A     -0.631161
      28A     -0.617541    29A     -0.600412    30A     -0.587787
      31A     -0.565942    32A     -0.559613    33A     -0.543381
      34A     -0.532880    35A     -0.519174    36A     -0.501229
      37A     -0.492979    38A     -0.481095    39A     -0.472678
      40A     -0.467148    41A     -0.464014    42A     -0.452148
      43A     -0.442758    44A     -0.430892

  @DF-RHF Final Energy:  -501.01976376333334

   => Energetics <=

    Nuclear Repulsion Energy =            614.8106861717272977
    One-Electron Energy =               -1900.4637542810030482
    Two-Electron Energy =                 784.6333043459444525
    DFT Exchange-Correlation Energy =       0.0000000000000000
    Empirical Dispersion Energy =           0.0000000000000000
    PCM Polarization Energy =               0.0000000000000000
    EFP Energy =                            0.0000000000000000
    Total Energy =                       -501.0197637633314116

  Mulliken Charges: (a.u.)
   Center  Symbol    Alpha    Beta     Spin     Total
       1     O     4.25825  4.25825  0.00000 -0.51649
       2     C     2.61129  2.61129  0.00000  0.77742
       3     C     3.22153  3.22153  0.00000 -0.44307
       4     O     4.30739  4.30739  0.00000 -0.61478
       5     C     3.15316  3.15316  0.00000 -0.30632
       6     H     0.39670  0.39670  0.00000  0.20659
       7     H     0.40862  0.40862  0.00000  0.18276
       8     C     3.15625  3.15625  0.00000 -0.31249
       9     H     0.41133  0.41133  0.00000  0.17733
      10     H     0.40961  0.40961  0.00000  0.18078
      11     C     3.15483  3.15483  0.00000 -0.30966
      12     H     0.41794  0.41794  0.00000  0.16413
      13     H     0.42553  0.42553  0.00000  0.14894
      14     C     3.15026  3.15026  0.00000 -0.30052
      15     H     0.42169  0.42169  0.00000  0.15662
      16     H     0.42474  0.42474  0.00000  0.15051
      17     C     3.15149  3.15149  0.00000 -0.30297
      18     H     0.42293  0.42293  0.00000  0.15414
      19     H     0.42452  0.42452  0.00000  0.15096
      20     C     3.23939  3.23939  0.00000 -0.47877
      21     H     0.42232  0.42232  0.00000  0.15536
      22     H     0.42372  0.42372  0.00000  0.15257
      23     H     0.41897  0.41897  0.00000  0.16207
      24     H     0.42132  0.42132  0.00000  0.15735
      25     H     0.42203  0.42203  0.00000  0.15593
      26     C     3.09550  3.09550  0.00000 -0.19099
      27     H     0.40988  0.40988  0.00000  0.18024
      28     H     0.39938  0.39938  0.00000  0.20123
      29     H     0.41944  0.41944  0.00000  0.16112

   Total alpha = 44.00000, Total beta = 44.00000, Total charge = -0.00000
