  ==> Input File <==

--------------------------------------------------------------------------
set {
	reference rhf
	basis 6-31G*
}

set_num_threads( 4 )
memory 2 gb

molecule MOL {
0 1

H	 1.148083	 -1.049780	 0.784252
O	 1.319262	 -0.618148	 -0.041729
C	 0.709265	 0.639550	 -0.033818
C	 -0.203924	 0.875197	 1.140548
H	 0.142101	 0.706352	 -0.955266
H	 1.456002	 1.432068	 -0.070197
C	 -0.564731	 -0.037648	 2.019921
H	 -0.574574	 1.884385	 1.233511
H	 -0.229587	 -1.056426	 1.947816
H	 -1.221468	 0.201428	 2.836937

	symmetry c1
}
set optking {
	frozen_dihedral = ("
		5 3 2 1
	")
}

ee = optimize('scf')
oeprop('DIPOLE', 'QUADRUPOLE', 'MULLIKEN_CHARGES')
f=open( 'psi4out.xyz', 'w' )
f.write( "10  " )
f.write( str(ee) + "\n" )
f.write( MOL.save_string_xyz() )
f.close()
--------------------------------------------------------------------------

    Molecular point group: c1
  Charge       = 0
  Multiplicity = 1
  Basis Set: 6-31G*
  Basis Set:
  @DF-RHF Final Energy:  -191.91116492393220
    Total Energy =                       -191.9111649239322901
    Molecular point group: c1
  Basis Set: 6-31G*
  Basis Set:
  Basis Set: 6-31G*
  Basis Set:
  @DF-RHF Final Energy:  -191.91187754296433
    Total Energy =                       -191.9118775429643620
  Basis Set: 6-31G*
  Basis Set:
  Basis Set: 6-31G*
  Basis Set:
  @DF-RHF Final Energy:  -191.91252734460170
    Total Energy =                       -191.9125273446016138
  Basis Set: 6-31G*
  Basis Set:
  Basis Set: 6-31G*
  Basis Set:
  @DF-RHF Final Energy:  -191.91257269715476
    Total Energy =                       -191.9125726971547579
  Basis Set: 6-31G*
  Basis Set:
  Basis Set: 6-31G*
  Basis Set:
  @DF-RHF Final Energy:  -191.91258717947363
    Total Energy =                       -191.9125871794736611
  Basis Set: 6-31G*
  Basis Set:
  Basis Set: 6-31G*
  Basis Set:
  @DF-RHF Final Energy:  -191.91260543296272
    Total Energy =                       -191.9126054329627209
  Basis Set: 6-31G*
  Basis Set:
  Charge       = 0
  Multiplicity = 1
  Basis Set: 6-31G*
  Basis Set:

    Orbital Energies (a.u.)
    -----------------------

    Doubly Occupied:

       1A    -20.555407     2A    -11.278488     3A    -11.242234
       4A    -11.230505     5A     -1.365381     6A     -1.065754
       7A     -0.934286     8A     -0.776244     9A     -0.688271
      10A     -0.655523    11A     -0.628687    12A     -0.569733
      13A     -0.555610    14A     -0.481184    15A     -0.451798
      16A     -0.372102

  @DF-RHF Final Energy:  -191.91261063782031

   => Energetics <=

    Nuclear Repulsion Energy =            119.2318094353207130
    One-Electron Energy =                -496.5864233278727511
    Two-Electron Energy =                 185.4420032547317305
    DFT Exchange-Correlation Energy =       0.0000000000000000
    Empirical Dispersion Energy =           0.0000000000000000
    PCM Polarization Energy =               0.0000000000000000
    EFP Energy =                            0.0000000000000000
    Total Energy =                       -191.9126106378203076
    Molecular point group: c1
  Basis Set: 6-31G*
  Basis Set:

  -Total Gradient:
     Atom            X                  Y                   Z
    ------   -----------------  -----------------  -----------------
       1       -0.003033861467    -0.001797207087    -0.001076381503
       2        0.003161730158     0.001924909641     0.001770077304
       3        0.002208454621     0.001138951348    -0.002412900143
       4        0.000044718062     0.000005508460     0.000038349698
       5       -0.002337218108    -0.001305379439     0.001723035805
       6       -0.000024687095     0.000016174494     0.000013469020
       7        0.000061968118     0.000072358976    -0.000053418036
       8       -0.000030645922    -0.000003344578    -0.000013464607
       9       -0.000030841245    -0.000017177169     0.000008541420
      10       -0.000019617125    -0.000034794645     0.000002691045

  **** Optimization is complete! (in 7 steps) ****
    Final optimized geometry and variables:
    Molecular point group: c1

    Geometry (in Angstrom), charge = 0, multiplicity = 1:

    H            0.959421100997    -1.169697370792     0.077663831255
    O            1.022201949283    -0.761395403162    -0.772206031944
    C            0.316640275146     0.447514535946    -0.782526634956
    C           -0.543073430046     0.695928262558     0.432003620446
    H           -0.334517963985     0.447837109118    -1.652623958522
    H            1.016074781724     1.270505031303    -0.896041811913
    C           -1.002315612430    -0.217487862583     1.264693475266
    H           -0.809844383847     1.728367243297     0.591093269659
    H           -0.804340696872    -1.269577311665     1.147991614717
    H           -1.619378498913     0.051276087113     2.102516093945

  Mulliken Charges: (a.u.)
   Center  Symbol    Alpha    Beta     Spin     Total
       1     H     0.27640  0.27640  0.00000  0.44720
       2     O     4.37630  4.37630  0.00000 -0.75261
       3     C     2.98624  2.98624  0.00000  0.02752
       4     C     3.09534  3.09534  0.00000 -0.19068
       5     H     0.41383  0.41383  0.00000  0.17233
       6     H     0.42105  0.42105  0.00000  0.15789
       7     C     3.20536  3.20536  0.00000 -0.41073
       8     H     0.40534  0.40534  0.00000  0.18931
       9     H     0.41403  0.41403  0.00000  0.17194
      10     H     0.40609  0.40609  0.00000  0.18782

   Total alpha = 16.00000, Total beta = 16.00000, Total charge = -0.00000
