                              Psi4 1.0.54 Driver

  ==> Input File <==

--------------------------------------------------------------------------
set {
	reference rhf
	basis cc-pvtz
}

set_num_threads( 4 )
memory 2 gb

molecule MOL {
0 1

H	 0.178697	 3.485416	 -0.369765
C	 0.468289	 2.986952	 0.565412
C	 -0.606204	 2.139397	 1.190716
O	 1.552007	 3.146604	 1.009682
C	 -1.216901	 1.136108	 0.207794
H	 -0.192618	 1.645060	 2.060148
H	 -1.381086	 2.822526	 1.531594
C	 -0.247837	 0.040196	 -0.230469
H	 -2.085145	 0.683860	 0.674661
H	 -1.586635	 1.667612	 -0.665701
C	 1.181757	 0.280428	 0.247371
H	 -0.259600	 -0.030819	 -1.314870
H	 -0.591284	 -0.923375	 0.136958
C	 2.151032	 -0.811012	 -0.202643
H	 1.515939	 1.247397	 -0.115449
H	 1.191514	 0.341223	 1.333422
C	 3.580021	 -0.656538	 0.320835
H	 2.170545	 -0.847575	 -1.289412
H	 1.766632	 -1.772905	 0.124928
C	 4.327657	 0.562694	 -0.213579
H	 4.138806	 -1.549270	 0.057813
H	 3.561991	 -0.620783	 1.406976
H	 4.355973	 0.557257	 -1.298551
H	 3.867136	 1.491650	 0.100501
H	 5.351524	 0.571613	 0.142204

	symmetry c1
}
set optking {
	frozen_dihedral = ("
		3 5 8 12
	")
}

ee,wfn = optimize('scf', return_wfn=True)
oeprop( wfn, 'DIPOLE', 'QUADRUPOLE', 'MULLIKEN_CHARGES')
f=open( 'psi4out.xyz', 'w' )
f.write( "25  " )
f.write( str(ee) + "\n" )
f.write( MOL.save_string_xyz() )
f.close()
--------------------------------------------------------------------------

    Molecular point group: c1
  Charge       = 0
  Multiplicity = 1
  Basis Set: CC-PVTZ
  Basis Set:
  @DF-RHF Final Energy:  -387.23766304318008
    Total Energy =                       -387.2376630431803051
    Molecular point group: c1
  Basis Set: CC-PVTZ
  Basis Set:
  Basis Set: CC-PVTZ
  Basis Set:
  @DF-RHF Final Energy:  -387.24042494406586
    Total Energy =                       -387.2404249440655803
  Basis Set: CC-PVTZ
  Basis Set:
  Basis Set: CC-PVTZ
  Basis Set:
  @DF-RHF Final Energy:  -387.24620031158508
    Total Energy =                       -387.2462003115848574
  Basis Set: CC-PVTZ
  Basis Set:
  Basis Set: CC-PVTZ
  Basis Set:
  @DF-RHF Final Energy:  -387.24781375340331
    Total Energy =                       -387.2478137534034204
  Basis Set: CC-PVTZ
  Basis Set:
  @DF-RHF Final Energy:  -387.24879426420745
    Total Energy =                       -387.2487942642072767
  @DF-RHF Final Energy:  -387.24741387730290
    Total Energy =                       -387.2474138773027335
  @DF-RHF Final Energy:  -387.24949372235909
    Total Energy =                       -387.2494937223590341
  @DF-RHF Final Energy:  -387.24962492060860
    Total Energy =                       -387.2496249206081984
  Basis Set: CC-PVTZ
  Basis Set:
  @DF-RHF Final Energy:  -387.24965371804643
    Total Energy =                       -387.2496537180464884
  Basis Set: CC-PVTZ
  Basis Set:
  Basis Set: CC-PVTZ
  Basis Set:
  @DF-RHF Final Energy:  -387.24966310932462
    Total Energy =                       -387.2496631093250699
  Basis Set: CC-PVTZ
  Basis Set:
  Basis Set: CC-PVTZ
  Basis Set:
  @DF-RHF Final Energy:  -387.24966684129572
    Total Energy =                       -387.2496668412965164
  Basis Set: CC-PVTZ
  Basis Set:
  Charge       = 0
  Multiplicity = 1
  Basis Set: CC-PVTZ
  Basis Set:

    Orbital Energies (a.u.)
    -----------------------

    Doubly Occupied:

       1A    -20.550665     2A    -11.321669     3A    -11.234466
       4A    -11.233194     5A    -11.221881     6A    -11.214494
       7A    -11.213045     8A    -11.212166     9A    -11.202901
      10A     -1.406422    11A     -1.100822    12A     -1.066578
      13A     -1.009666    14A     -0.943916    15A     -0.881263
      16A     -0.815443    17A     -0.787749    18A     -0.775160
      19A     -0.665285    20A     -0.660845    21A     -0.631477
      22A     -0.628355    23A     -0.606062    24A     -0.595461
      25A     -0.565128    26A     -0.550023    27A     -0.540201
      28A     -0.529358    29A     -0.509839    30A     -0.500934
      31A     -0.477603    32A     -0.471303    33A     -0.459811
      34A     -0.453785    35A     -0.442758    36A     -0.411104

  @DF-RHF Final Energy:  -387.24966754308417

   => Energetics <=

    Nuclear Repulsion Energy =            456.5580193588043016
    One-Electron Energy =               -1429.8337054680198435
    Two-Electron Energy =                 586.0260185661312562
    DFT Exchange-Correlation Energy =       0.0000000000000000
    Empirical Dispersion Energy =           0.0000000000000000
    PCM Polarization Energy =               0.0000000000000000
    EFP Energy =                            0.0000000000000000
    Total Energy =                       -387.2496675430842288
    Molecular point group: c1
  Basis Set: CC-PVTZ
  Basis Set:

  -Total Gradient:
     Atom            X                  Y                   Z
    ------   -----------------  -----------------  -----------------
       1       -0.000045305032     0.000064250538     0.000034850672
       2       -0.000057724314     0.000017506038     0.000028850862
       3        0.000298768311     0.000870097028    -0.000811785400
       4        0.000068714603    -0.000045553805    -0.000046204367
       5       -0.000183595676    -0.001032319718     0.001243135006
       6       -0.000004329388     0.000038311102     0.000008916159
       7       -0.000020605136    -0.000011116596    -0.000054259278
       8       -0.001140016213    -0.001121666260    -0.000537954496
       9       -0.000004650495     0.000017492114     0.000011965295
      10       -0.000002923299    -0.000003764497     0.000003282469
      11        0.000030580214    -0.000026926994     0.000010685788
      12        0.001057986713     0.001231273622     0.000143225173
      13       -0.000012279793     0.000007103834    -0.000008906265
      14        0.000002097245    -0.000028082850     0.000000927522
      15        0.000001662717     0.000007488275     0.000003122959
      16        0.000011596974    -0.000016219900    -0.000019486306
      17        0.000002822075    -0.000008631956     0.000002735188
      18        0.000004359490     0.000029164283     0.000006927774
      19        0.000003507172    -0.000000095061    -0.000030236168
      20        0.000003382278    -0.000000104040    -0.000010523490
      21       -0.000002967825    -0.000006617069     0.000023130958
      22       -0.000014640782     0.000023419972    -0.000001637012
      23       -0.000010746456     0.000001863765     0.000000898474
      24        0.000011088126    -0.000004196365     0.000007807375
      25        0.000003218491    -0.000002675458    -0.000009468890

  **** Optimization is complete! (in 12 steps) ****
    Final optimized geometry and variables:
    Molecular point group: c1

    Geometry (in Angstrom), charge = 0, multiplicity = 1:

    H           -1.592425378533     2.509483698592    -0.424550321637
    C           -1.290445988986     2.058075642170     0.530523454888
    C           -2.086077837491     0.847469513855     0.939741643663
    O           -0.422889449777     2.546484003260     1.167766768996
    C           -2.391221847937    -0.132292474149    -0.200695548518
    H           -1.600096984611     0.379730744670     1.784134748349
    H           -3.035880250577     1.242059985641     1.296987840538
    C           -1.244243865695    -1.041670933388    -0.719006572895
    H           -3.208879381141    -0.762142697249     0.125948927640
    H           -2.788688214025     0.444479743343    -1.030437678551
    C            0.166231840246    -0.781692609005    -0.186519197143
    H           -1.206879845122    -0.960621355515    -1.800213997042
    H           -1.499571668881    -2.073783125115    -0.505345581309
    C            1.185129699170    -1.754396672800    -0.778814316967
    H            0.466422459038     0.234495292107    -0.411317362883
    H            0.182516015988    -0.873174988235     0.894998685931
    C            2.603172514280    -1.608525682029    -0.223924084988
    H            1.210491038821    -1.634604798377    -1.859637521561
    H            0.845619529071    -2.770224456415    -0.595138992506
    C            3.287873008199    -0.286470107286    -0.562357470507
    H            3.206910540411    -2.423580799708    -0.611227780816
    H            2.579980685716    -1.735617514462     0.855098169522
    H            3.313315926456    -0.125003885450    -1.635542630249
    H            2.783888500595     0.559289885708    -0.111126108313
    H            4.311297520444    -0.282811205536    -0.205214943335

  Mulliken Charges: (a.u.)
   Center  Symbol    Alpha    Beta     Spin     Total
       1     H     0.46304  0.46304  0.00000  0.07392
       2     C     2.90261  2.90261  0.00000  0.19478
       3     C     3.09260  3.09260  0.00000 -0.18520
       4     O     4.16985  4.16985  0.00000 -0.33969
       5     C     3.12230  3.12230  0.00000 -0.24459
       6     H     0.44006  0.44006  0.00000  0.11989
       7     H     0.43552  0.43552  0.00000  0.12897
       8     C     3.09224  3.09224  0.00000 -0.18448
       9     H     0.43960  0.43960  0.00000  0.12080
      10     H     0.44854  0.44854  0.00000  0.10292
      11     C     3.10471  3.10471  0.00000 -0.20943
      12     H     0.44892  0.44892  0.00000  0.10217
      13     H     0.44858  0.44858  0.00000  0.10285
      14     C     3.09570  3.09570  0.00000 -0.19139
      15     H     0.44471  0.44471  0.00000  0.11058
      16     H     0.44873  0.44873  0.00000  0.10254
      17     C     3.08918  3.08918  0.00000 -0.17835
      18     H     0.45421  0.45421  0.00000  0.09158
      19     H     0.44959  0.44959  0.00000  0.10083
      20     C     3.15608  3.15608  0.00000 -0.31216
      21     H     0.44904  0.44904  0.00000  0.10191
      22     H     0.45446  0.45446  0.00000  0.09109
      23     H     0.45623  0.45623  0.00000  0.08754
      24     H     0.44744  0.44744  0.00000  0.10513
      25     H     0.44609  0.44609  0.00000  0.10783

   Total alpha = 36.00000, Total beta = 36.00000, Total charge = -0.00000

*** Psi4 exiting successfully. Buy a developer a beer!
