                              Psi4 1.0.54 Driver

  ==> Input File <==

--------------------------------------------------------------------------
set {
	reference rhf
	basis cc-pvtz
}

set_num_threads( 4 )
memory 2 gb

molecule MOL {
0 1

O	 3.219313	 0.959291	 -0.614106
C	 2.698710	 0.058177	 -0.050237
C	 1.246364	 -0.005813	 0.348416
O	 3.344101	 -1.038700	 0.312317
C	 0.453207	 1.232821	 -0.049003
H	 0.839270	 -0.907818	 -0.092281
H	 1.216683	 -0.160521	 1.422434
C	 -0.998367	 1.217982	 0.432195
H	 0.481498	 1.345443	 -1.127236
H	 0.951413	 2.105557	 0.354893
C	 -1.882951	 0.151251	 -0.211235
H	 -1.429490	 2.193659	 0.228843
H	 -1.019755	 1.099323	 1.513279
C	 -3.342450	 0.243269	 0.226009
H	 -1.826223	 0.246578	 -1.293162
H	 -1.508033	 -0.839650	 0.027695
C	 -4.234517	 -0.821434	 -0.405970
H	 -3.730149	 1.228245	 -0.022691
H	 -3.398860	 0.159952	 1.308941
C	 -5.687315	 -0.379749	 -0.547635
H	 -3.841373	 -1.084055	 -1.384330
H	 -4.190972	 -1.727588	 0.192232
H	 -6.292514	 -1.157665	 -0.998816
H	 -5.768345	 0.504987	 -1.170359
H	 -6.120317	 -0.142687	 0.418553
C	 4.720529	 -1.114346	 0.001449
H	 4.874321	 -1.055557	 -1.065852
H	 5.057824	 -2.067950	 0.373977
H	 5.264321	 -0.313596	 0.480350

	symmetry c1
}
set optking {
	frozen_dihedral = ("
		21 17 14 11
	")
}

ee,wfn = optimize('scf', return_wfn=True)
oeprop( wfn, 'DIPOLE', 'QUADRUPOLE', 'MULLIKEN_CHARGES')
f=open( 'psi4out.xyz', 'w' )
f.write( "29  " )
f.write( str(ee) + "\n" )
f.write( MOL.save_string_xyz() )
f.close()
--------------------------------------------------------------------------

    Molecular point group: c1
  Charge       = 0
  Multiplicity = 1
  Basis Set: CC-PVTZ
  Basis Set:
  @DF-RHF Final Energy:  -501.22240753961796
    Total Energy =                       -501.2224075396179614
    Molecular point group: c1
  Basis Set: CC-PVTZ
  Basis Set:
  Basis Set: CC-PVTZ
  Basis Set:
  @DF-RHF Final Energy:  -501.22260252756269
    Total Energy =                       -501.2226025275633674
  Basis Set: CC-PVTZ
  Basis Set:
  Basis Set: CC-PVTZ
  Basis Set:
  @DF-RHF Final Energy:  -501.22265797789635
    Total Energy =                       -501.2226579778963469
  Basis Set: CC-PVTZ
  Basis Set:
  Basis Set: CC-PVTZ
  Basis Set:
  @DF-RHF Final Energy:  -501.22238195903003
    Total Energy =                       -501.2223819590296898
  Basis Set: CC-PVTZ
  Basis Set:
  Basis Set: CC-PVTZ
  Basis Set:
  @DF-RHF Final Energy:  -501.22266892789628
    Total Energy =                       -501.2226689278961658
  Basis Set: CC-PVTZ
  Basis Set:
  Charge       = 0
  Multiplicity = 1
  Basis Set: CC-PVTZ
  Basis Set:

    Orbital Energies (a.u.)
    -----------------------

    Doubly Occupied:

       1A    -20.596004     2A    -20.533860     3A    -11.364262
       4A    -11.278256     5A    -11.232922     6A    -11.217068
       7A    -11.215467     8A    -11.214011     9A    -11.213708
      10A    -11.212198    11A    -11.207492    12A     -1.471865
      13A     -1.365497    14A     -1.099111    15A     -1.067313
      16A     -1.020478    17A     -0.978238    18A     -0.929225
      19A     -0.862360    20A     -0.800411    21A     -0.791197
      22A     -0.765736    23A     -0.702883    24A     -0.685449
      25A     -0.676100    26A     -0.647959    27A     -0.631217
      28A     -0.605010    29A     -0.596853    30A     -0.582367
      31A     -0.567679    32A     -0.551712    33A     -0.532175
      34A     -0.529404    35A     -0.517464    36A     -0.516497
      37A     -0.495546    38A     -0.478647    39A     -0.470849
      40A     -0.462067    41A     -0.459514    42A     -0.456984
      43A     -0.443602    44A     -0.437246

  @DF-RHF Final Energy:  -501.22266926981456

   => Energetics <=

    Nuclear Repulsion Energy =            611.1587799207095486
    One-Electron Energy =               -1893.7950870632512306
    Two-Electron Energy =                 781.4136378727271222
    DFT Exchange-Correlation Energy =       0.0000000000000000
    Empirical Dispersion Energy =           0.0000000000000000
    PCM Polarization Energy =               0.0000000000000000
    EFP Energy =                            0.0000000000000000
    Total Energy =                       -501.2226692698145598
    Molecular point group: c1
  Basis Set: CC-PVTZ
  Basis Set:

  -Total Gradient:
     Atom            X                  Y                   Z
    ------   -----------------  -----------------  -----------------
       1       -0.000051117640     0.000067107889    -0.000019919485
       2        0.000027680740     0.000013133526     0.000002291934
       3        0.000020578944    -0.000015134241    -0.000009570943
       4       -0.000018920234    -0.000089586926     0.000039248058
       5        0.000006084232    -0.000000150211     0.000006015407
       6       -0.000000043852     0.000000617728    -0.000003051843
       7        0.000009953714     0.000002667704    -0.000001907395
       8        0.000001730716     0.000011578290     0.000005191962
       9       -0.000005631830    -0.000002087906     0.000003563318
      10        0.000001059693     0.000003868945     0.000001891490
      11       -0.000549488554     0.001825988112    -0.002410373192
      12        0.000010035018     0.000004194065    -0.000003159910
      13       -0.000003359740     0.000004100733    -0.000004465267
      14        0.001310774805    -0.003281538921     0.003795411836
      15       -0.000013453148     0.000000347902    -0.000015254815
      16        0.000019277870    -0.000012301997     0.000001858383
      17       -0.003086911257     0.004418928804    -0.003238123338
      18       -0.000003594679     0.000011713919    -0.000001461322
      19       -0.000001175877    -0.000001413692     0.000012029332
      20       -0.000024007038     0.000010532339    -0.000004659956
      21        0.002330127906    -0.002965247854     0.001833691315
      22       -0.000001965416    -0.000016442598     0.000007966480
      23        0.000019824336     0.000010984612     0.000012563797
      24        0.000000172918    -0.000017122399     0.000004454116
      25        0.000008183574     0.000001033538    -0.000010247908
      26       -0.000002532868     0.000032746550    -0.000013096922
      27        0.000007043819    -0.000005687031     0.000005774633
      28       -0.000016567656    -0.000003095461     0.000005598677
      29        0.000006241500    -0.000009735421    -0.000002258441

  **** Optimization is complete! (in 6 steps) ****
    Final optimized geometry and variables:
    Molecular point group: c1

    Geometry (in Angstrom), charge = 0, multiplicity = 1:

    O            3.226256637479     0.937252736907    -0.516733710057
    C            2.699313676907     0.026951492778     0.026129824029
    C            1.243391375413    -0.041736193805     0.410593518159
    O            3.339567218554    -1.077695863926     0.374091422586
    C            0.456285778881     1.206267187343     0.030793129958
    H            0.838352400745    -0.933859210941    -0.051644501864
    H            1.203741504171    -0.217799916557     1.480980720531
    C           -0.999580593952     1.184679441246     0.498546080077
    H            0.494467541793     1.340172408288    -1.044701462912
    H            0.952429381522     2.069861092846     0.456334414592
    C           -1.879889338735     0.132565556112    -0.173579403202
    H           -1.427450910931     2.164977367887     0.310465295122
    H           -1.030973818147     1.044978081278     1.576806300533
    C           -3.346986118408     0.230332282785     0.237406647866
    H           -1.809067784305     0.242636937610    -1.252857276549
    H           -1.512780282054    -0.864155551870     0.056068600618
    C           -4.231223294920    -0.852723781412    -0.389792050030
    H           -3.717974009648     1.209121732316    -0.057568577049
    H           -3.433405729287     0.191097423104     1.319627319114
    C           -5.693750653887    -0.446967574802    -0.523467703318
    H           -3.827175437379    -1.138854827840    -1.356533068744
    H           -4.166944651674    -1.752926491969     0.216220566861
    H           -6.292021558271    -1.256140143137    -0.926309387719
    H           -5.803425448013     0.407621878212    -1.182544526908
    H           -6.112161613731    -0.174642185722     0.440086276827
    C            4.718486094155    -1.150420251449     0.073746129395
    H            4.881678748232    -1.072420129313    -0.990922530212
    H            5.050687449020    -2.111415475394     0.431597875121
    H            5.259709149485    -0.359774871196     0.571954101185

  Mulliken Charges: (a.u.)
   Center  Symbol    Alpha    Beta     Spin     Total
       1     O     4.19699  4.19699  0.00000 -0.39397
       2     C     2.80490  2.80490  0.00000  0.39021
       3     C     3.10160  3.10160  0.00000 -0.20320
       4     O     4.14720  4.14720  0.00000 -0.29440
       5     C     3.09255  3.09255  0.00000 -0.18510
       6     H     0.43901  0.43901  0.00000  0.12198
       7     H     0.43992  0.43992  0.00000  0.12016
       8     C     3.10440  3.10440  0.00000 -0.20880
       9     H     0.44628  0.44628  0.00000  0.10744
      10     H     0.43958  0.43958  0.00000  0.12084
      11     C     3.09338  3.09338  0.00000 -0.18676
      12     H     0.44511  0.44511  0.00000  0.10979
      13     H     0.45363  0.45363  0.00000  0.09275
      14     C     3.08783  3.08783  0.00000 -0.17565
      15     H     0.45259  0.45259  0.00000  0.09482
      16     H     0.45358  0.45358  0.00000  0.09284
      17     C     3.08560  3.08560  0.00000 -0.17119
      18     H     0.45509  0.45509  0.00000  0.08982
      19     H     0.45269  0.45269  0.00000  0.09462
      20     C     3.14841  3.14841  0.00000 -0.29683
      21     H     0.45480  0.45480  0.00000  0.09040
      22     H     0.45420  0.45420  0.00000  0.09161
      23     H     0.44888  0.44888  0.00000  0.10224
      24     H     0.45523  0.45523  0.00000  0.08955
      25     H     0.45460  0.45460  0.00000  0.09079
      26     C     3.03811  3.03811  0.00000 -0.07621
      27     H     0.45436  0.45436  0.00000  0.09129
      28     H     0.44528  0.44528  0.00000  0.10945
      29     H     0.45424  0.45424  0.00000  0.09153

   Total alpha = 44.00000, Total beta = 44.00000, Total charge = -0.00000

*** Psi4 exiting successfully. Buy a developer a beer!
