  ==> Input File <==

--------------------------------------------------------------------------
set {
	reference rhf
	basis 6-31G*
}

set_num_threads( 4 )
memory 2 gb

molecule MOL {
0 1

H	 2.845955	 -0.323208	 0.022310
C	 1.900140	 0.071967	 -0.330070
C	 0.778463	 -0.508087	 0.517968
H	 1.782469	 -0.206877	 -1.370777
H	 1.922247	 1.149867	 -0.254252
N	 -0.540928	 0.005139	 0.058438
H	 0.716718	 -1.581298	 0.454712
H	 0.859711	 -0.198647	 1.550086
O	 -0.656550	 0.279039	 -1.095201
O	 -1.397666	 0.105989	 0.883259

	symmetry c1
}
set optking {
	frozen_dihedral = ("
		9 6 3 2
	")
}

ee = optimize('scf')
oeprop('DIPOLE', 'QUADRUPOLE', 'MULLIKEN_CHARGES')
f=open( 'psi4out.xyz', 'w' )
f.write( "10  " )
f.write( str(ee) + "\n" )
f.write( MOL.save_string_xyz() )
f.close()
--------------------------------------------------------------------------

    Molecular point group: c1
  Charge       = 0
  Multiplicity = 1
  Basis Set: 6-31G*
  Basis Set:
  @DF-RHF Final Energy:  -282.69978349178979
    Total Energy =                       -282.6997834917899013
    Molecular point group: c1
  Basis Set: 6-31G*
  Basis Set:
  Basis Set: 6-31G*
  Basis Set:
  @DF-RHF Final Energy:  -282.69626118376721
    Total Energy =                       -282.6962611837672057
  Basis Set: 6-31G*
  Basis Set:
  Basis Set: 6-31G*
  Basis Set:
  @DF-RHF Final Energy:  -282.69929645962702
    Total Energy =                       -282.6992964596270212
  Basis Set: 6-31G*
  Basis Set:
  Basis Set: 6-31G*
  Basis Set:
  @DF-RHF Final Energy:  -282.70040083407673
    Total Energy =                       -282.7004008340767882
  Basis Set: 6-31G*
  Basis Set:
  Basis Set: 6-31G*
  Basis Set:
  @DF-RHF Final Energy:  -282.70041277857513
    Total Energy =                       -282.7004127785751280
  Basis Set: 6-31G*
  Basis Set:
  Charge       = 0
  Multiplicity = 1
  Basis Set: 6-31G*
  Basis Set:

    Orbital Energies (a.u.)
    -----------------------

    Doubly Occupied:

       1A    -20.603562     2A    -20.601901     3A    -15.849836
       4A    -11.304896     5A    -11.247421     6A     -1.633215
       7A     -1.418703     8A     -1.125906     9A     -0.967424
      10A     -0.834388    11A     -0.761443    12A     -0.745508
      13A     -0.726899    14A     -0.643543    15A     -0.592900
      16A     -0.564296    17A     -0.540056    18A     -0.486705
      19A     -0.478380    20A     -0.450753

  @DF-RHF Final Energy:  -282.70041505649573

   => Energetics <=

    Nuclear Repulsion Energy =            186.0835719238461365
    One-Electron Energy =                -754.4125037811919583
    Two-Electron Energy =                 285.6285168008500932
    DFT Exchange-Correlation Energy =       0.0000000000000000
    Empirical Dispersion Energy =           0.0000000000000000
    PCM Polarization Energy =               0.0000000000000000
    EFP Energy =                            0.0000000000000000
    Total Energy =                       -282.7004150564957854
    Molecular point group: c1
  Basis Set: 6-31G*
  Basis Set:

  -Total Gradient:
     Atom            X                  Y                   Z
    ------   -----------------  -----------------  -----------------
       1        0.000013920072     0.000001538644     0.000004298564
       2        0.000019175952    -0.000081339828    -0.000079376248
       3        0.000018429111     0.000181700896     0.000074425708
       4       -0.000002064606     0.000019814320     0.000034837393
       5        0.000001351559    -0.000004168919    -0.000002204169
       6       -0.000137998176    -0.000158837965    -0.000148683418
       7       -0.000020676879    -0.000015796013     0.000000386312
       8       -0.000023096390    -0.000007917937    -0.000010917174
       9        0.000099560150     0.000083343745     0.000000260174
      10        0.000031399213    -0.000018336944     0.000126972861

  **** Optimization is complete! (in 6 steps) ****
    Final optimized geometry and variables:
    Molecular point group: c1

    Geometry (in Angstrom), charge = 0, multiplicity = 1:

    H            2.861489979384    -0.318483852687     0.047978439109
    C            1.926572528772     0.070566192895    -0.339934237187
    C            0.790947383822    -0.481576773784     0.499743212209
    H            1.829260898018    -0.223384402417    -1.374772096207
    H            1.960775718826     1.151994497922    -0.289057718100
    N           -0.543816092349     0.017759479156     0.060368092177
    H            0.714076364842    -1.558464293710     0.422079551639
    H            0.862298001150    -0.215553749703     1.541585594638
    O           -0.690769302488     0.283867597432    -1.092001993880
    O           -1.390356311985     0.082276211418     0.897341249412

  Mulliken Charges: (a.u.)
   Center  Symbol    Alpha    Beta     Spin     Total
       1     H     0.40885  0.40885  0.00000  0.18229
       2     C     3.25246  3.25246  0.00000 -0.50491
       3     C     3.09546  3.09546  0.00000 -0.19093
       4     H     0.39452  0.39452  0.00000  0.21096
       5     H     0.40361  0.40361  0.00000  0.19278
       6     N     3.21926  3.21926  0.00000  0.56149
       7     H     0.38455  0.38455  0.00000  0.23091
       8     H     0.38495  0.38495  0.00000  0.23010
       9     O     4.22811  4.22811  0.00000 -0.45621
      10     O     4.22824  4.22824  0.00000 -0.45648

   Total alpha = 20.00000, Total beta = 20.00000, Total charge =  0.00000
