  ==> Input File <==

--------------------------------------------------------------------------
set {
	reference rhf
	basis 6-31G*
}

set_num_threads( 4 )
memory 2 gb

molecule MOL {
0 1

O	 1.840160	 1.307606	 0.116815
C	 1.684305	 0.151502	 0.345401
C	 0.361322	 -0.574807	 0.337857
O	 2.682710	 -0.671414	 0.640583
C	 -0.823008	 0.326187	 0.001381
H	 0.445403	 -1.395246	 -0.369620
H	 0.239398	 -1.037482	 1.313452
C	 -2.149452	 -0.435131	 -0.000098
H	 -0.659431	 0.784300	 -0.968961
H	 -0.866388	 1.141764	 0.716407
C	 -3.368779	 0.488503	 -0.000883
H	 -2.193746	 -1.087250	 -0.871175
H	 -2.195311	 -1.087803	 0.870418
C	 -4.693822	 -0.272754	 -0.001129
H	 -3.325798	 1.139422	 -0.871284
H	 -3.326423	 1.139959	 0.869145
H	 -4.781274	 -0.907928	 -0.878124
H	 -5.538651	 0.408946	 -0.001420
H	 -4.781694	 -0.907783	 0.875984
C	 3.984153	 -0.114908	 0.679317
H	 4.249386	 0.298727	 -0.283017
H	 4.645755	 -0.928809	 0.931752
H	 4.043273	 0.661790	 1.428151

	symmetry c1
}
set optking {
	frozen_dihedral = ("
		9 5 8 12
	")
}

ee = optimize('scf')
oeprop('DIPOLE', 'QUADRUPOLE', 'MULLIKEN_CHARGES')
f=open( 'psi4out.xyz', 'w' )
f.write( "23  " )
f.write( str(ee) + "\n" )
f.write( MOL.save_string_xyz() )
f.close()
--------------------------------------------------------------------------

    Molecular point group: c1
  Charge       = 0
  Multiplicity = 1
  Basis Set: 6-31G*
  Basis Set:
  @DF-RHF Final Energy:  -422.97560546156052
    Total Energy =                       -422.9756054615602352
    Molecular point group: c1
  Basis Set: 6-31G*
  Basis Set:
  Basis Set: 6-31G*
  Basis Set:
  @DF-RHF Final Energy:  -422.97559316390340
    Total Energy =                       -422.9755931639033406
  Basis Set: 6-31G*
  Basis Set:
  Basis Set: 6-31G*
  Basis Set:
  @DF-RHF Final Energy:  -422.97510076388170
    Total Energy =                       -422.9751007638816418
  Basis Set: 6-31G*
  Basis Set:
  Basis Set: 6-31G*
  Basis Set:
  @DF-RHF Final Energy:  -422.97570150364891
    Total Energy =                       -422.9757015036489065
  Basis Set: 6-31G*
  Basis Set:
  Basis Set: 6-31G*
  Basis Set:
  @DF-RHF Final Energy:  -422.97571448171851
    Total Energy =                       -422.9757144817183416
  Basis Set: 6-31G*
  Basis Set:
  Basis Set: 6-31G*
  Basis Set:
  @DF-RHF Final Energy:  -422.97571720023728
    Total Energy =                       -422.9757172002371135
  Basis Set: 6-31G*
  Basis Set:
  Charge       = 0
  Multiplicity = 1
  Basis Set: 6-31G*
  Basis Set:

    Orbital Energies (a.u.)
    -----------------------

    Doubly Occupied:

       1A    -20.603566     2A    -20.545388     3A    -11.372137
       4A    -11.280809     5A    -11.235386     6A    -11.219370
       7A    -11.217912     8A    -11.216375     9A    -11.209579
      10A     -1.469252    11A     -1.362699    12A     -1.092993
      13A     -1.043527    14A     -0.986895    15A     -0.931920
      16A     -0.843529    17A     -0.794834    18A     -0.767168
      19A     -0.697039    20A     -0.683726    21A     -0.671450
      22A     -0.651455    23A     -0.609983    24A     -0.599295
      25A     -0.572333    26A     -0.558466    27A     -0.556688
      28A     -0.524144    29A     -0.521490    30A     -0.506733
      31A     -0.485280    32A     -0.469676    33A     -0.466473
      34A     -0.460455    35A     -0.455559    36A     -0.435219

  @DF-RHF Final Energy:  -422.97571753691375

   => Energetics <=

    Nuclear Repulsion Energy =            452.1367099350321723
    One-Electron Energy =               -1471.9872460171357034
    Two-Electron Energy =                 596.8748185451891004
    DFT Exchange-Correlation Energy =       0.0000000000000000
    Empirical Dispersion Energy =           0.0000000000000000
    PCM Polarization Energy =               0.0000000000000000
    EFP Energy =                            0.0000000000000000
    Total Energy =                       -422.9757175369144306
    Molecular point group: c1
  Basis Set: 6-31G*
  Basis Set:

  -Total Gradient:
     Atom            X                  Y                   Z
    ------   -----------------  -----------------  -----------------
       1        0.000004185436    -0.000002508444    -0.000006689712
       2       -0.000010726000     0.000005302937     0.000018069067
       3        0.000004499571    -0.000004299834    -0.000019396934
       4        0.000005775570    -0.000000196877    -0.000013545763
       5       -0.001747142887     0.002999936554     0.000706640059
       6       -0.000003457671    -0.000002693643     0.000007670226
       7        0.000001581466     0.000005706467     0.000005677913
       8        0.001591843752    -0.002769233531     0.001439707915
       9        0.001201508523    -0.002065130214    -0.000775735407
      10        0.000008843120    -0.000006633159    -0.000006234359
      11       -0.000002548103     0.000004744887    -0.000030053198
      12       -0.001061926648     0.001830075548    -0.001330676281
      13        0.000005300103     0.000003035429    -0.000006948359
      14       -0.000000572436     0.000000779218     0.000020136903
      15       -0.000001211252     0.000000011659    -0.000006587252
      16        0.000001508333     0.000001568649    -0.000006494455
      17        0.000000832715     0.000007491669    -0.000002554726
      18        0.000000284079     0.000000226944     0.000007718139
      19       -0.000000642225    -0.000008069525    -0.000002593629
      20        0.000001052616    -0.000000034235     0.000002928428
      21       -0.000000050650    -0.000000151135    -0.000000494072
      22        0.000000708863     0.000000149555    -0.000000414286
      23        0.000000353719    -0.000000078923    -0.000000130217

  **** Optimization is complete! (in 7 steps) ****
    Final optimized geometry and variables:
    Molecular point group: c1

    Geometry (in Angstrom), charge = 0, multiplicity = 1:

    O            1.856417904731     1.280024531488    -0.140821563992
    C            1.700553137423     0.127171994892     0.103753838642
    C            0.374428811028    -0.592849790311     0.132774744766
    O            2.701160801723    -0.696042650295     0.390605835395
    C           -0.814192813502     0.311056355498    -0.185154864220
    H            0.438398454415    -1.419767760314    -0.569531527837
    H            0.272840107777    -1.046745262996     1.114648830661
    C           -2.137173901551    -0.459287585778    -0.195848184816
    H           -0.649336200886     0.767801846325    -1.155528460293
    H           -0.853220366314     1.118690922211     0.538520330899
    C           -3.359178840364     0.461575279494    -0.236705051658
    H           -2.166310642355    -1.110563247792    -1.067663542231
    H           -2.203041252948    -1.102018764426     0.680161635199
    C           -4.680993167167    -0.302915455061    -0.295590227886
    H           -3.283722210546     1.120439177235    -1.099039925349
    H           -3.352861765716     1.105388806095     0.639897981178
    H           -4.734859379119    -0.926217146207    -1.183765185110
    H           -5.527448836664     0.376402234076    -0.317031228074
    H           -4.798602290205    -0.950341138139     0.568970835431
    C            4.005273616020    -0.144459421595     0.397716923434
    H            4.254081120931     0.255534980495    -0.574714002602
    H            4.668352382461    -0.957793666866     0.648289008770
    H            4.081456635145     0.641600613089     1.135161740358

  Mulliken Charges: (a.u.)
   Center  Symbol    Alpha    Beta     Spin     Total
       1     O     4.28614  4.28614  0.00000 -0.57228
       2     C     2.60502  2.60502  0.00000  0.78997
       3     C     3.20867  3.20867  0.00000 -0.41734
       4     O     4.30735  4.30735  0.00000 -0.61470
       5     C     3.15241  3.15241  0.00000 -0.30482
       6     H     0.40070  0.40070  0.00000  0.19860
       7     H     0.40075  0.40075  0.00000  0.19850
       8     C     3.15356  3.15356  0.00000 -0.30713
       9     H     0.41082  0.41082  0.00000  0.17836
      10     H     0.41189  0.41189  0.00000  0.17623
      11     C     3.15189  3.15189  0.00000 -0.30378
      12     H     0.42293  0.42293  0.00000  0.15415
      13     H     0.42410  0.42410  0.00000  0.15179
      14     C     3.23962  3.23962  0.00000 -0.47925
      15     H     0.42110  0.42110  0.00000  0.15780
      16     H     0.42173  0.42173  0.00000  0.15653
      17     H     0.42179  0.42179  0.00000  0.15641
      18     H     0.41849  0.41849  0.00000  0.16303
      19     H     0.42198  0.42198  0.00000  0.15604
      20     C     3.09243  3.09243  0.00000 -0.18487
      21     H     0.40910  0.40910  0.00000  0.18180
      22     H     0.40844  0.40844  0.00000  0.18311
      23     H     0.40908  0.40908  0.00000  0.18183

   Total alpha = 36.00000, Total beta = 36.00000, Total charge =  0.00000
