  ==> Input File <==

--------------------------------------------------------------------------
set {
	reference rhf
	basis 6-31G*
}

set_num_threads( 4 )
memory 2 gb

molecule MOL {
0 1

H	 -2.646374	 -0.642757	 1.268656
C	 -2.083525	 -0.384536	 0.393091
O	 -0.807605	 -0.127164	 0.768327
F	 -2.118945	 -1.383102	 -0.486752
F	 -2.621877	 0.670592	 -0.209486
C	 0.036490	 0.445089	 -0.165867
C	 1.342189	 -0.338223	 -0.124262
Cl	 0.321896	 2.153577	 0.204032
H	 -0.359906	 0.389138	 -1.164623
F	 2.195735	 0.144306	 -1.002194
F	 1.094345	 -1.593338	 -0.441592
F	 1.897276	 -0.311962	 1.062820

	symmetry c1
}
set optking {
	frozen_dihedral = ("
		6 3 2 4
	")
}

ee = optimize('scf')
oeprop('DIPOLE', 'QUADRUPOLE', 'MULLIKEN_CHARGES')
f=open( 'psi4out.xyz', 'w' )
f.write( "12  " )
f.write( str(ee) + "\n" )
f.write( MOL.save_string_xyz() )
f.close()
--------------------------------------------------------------------------

    Molecular point group: c1
  Charge       = 0
  Multiplicity = 1
  Basis Set: 6-31G*
  Basis Set:
  @DF-RHF Final Energy: -1146.31407447585343
    Total Energy =                      -1146.3140744758543406
    Molecular point group: c1
  Basis Set: 6-31G*
  Basis Set:
  Basis Set: 6-31G*
  Basis Set:
  @DF-RHF Final Energy: -1146.31408536562094
    Total Energy =                      -1146.3140853656191211
  Basis Set: 6-31G*
  Basis Set:
  Basis Set: 6-31G*
  Basis Set:
  @DF-RHF Final Energy: -1146.31409587554663
    Total Energy =                      -1146.3140958755470820
  Basis Set: 6-31G*
  Basis Set:
  Basis Set: 6-31G*
  Basis Set:
  @DF-RHF Final Energy: -1146.31409837316869
    Total Energy =                      -1146.3140983731686902
  Basis Set: 6-31G*
  Basis Set:
  Basis Set: 6-31G*
  Basis Set:
  @DF-RHF Final Energy: -1146.31410010587069
    Total Energy =                      -1146.3141001058711481
  Basis Set: 6-31G*
  Basis Set:
  Charge       = 0
  Multiplicity = 1
  Basis Set: 6-31G*
  Basis Set:

    Orbital Energies (a.u.)
    -----------------------

    Doubly Occupied:

       1A   -104.843756     2A    -26.359721     3A    -26.358143
       4A    -26.357347     5A    -26.349225     6A    -26.344152
       7A    -20.649483     8A    -11.527303     9A    -11.489662
      10A    -11.401004    11A    -10.578495    12A     -8.047854
      13A     -8.044317    14A     -8.044222    15A     -1.760767
      16A     -1.718227    17A     -1.657266    18A     -1.655795
      19A     -1.639102    20A     -1.485933    21A     -1.179721
      22A     -1.052152    23A     -0.986453    24A     -0.919468
      25A     -0.859514    26A     -0.851879    27A     -0.844935
      28A     -0.824936    29A     -0.811073    30A     -0.790038
      31A     -0.727122    32A     -0.725919    33A     -0.705406
      34A     -0.701760    35A     -0.678344    36A     -0.674609
      37A     -0.658607    38A     -0.657408    39A     -0.647116
      40A     -0.633560    41A     -0.596879    42A     -0.580738
      43A     -0.522946    44A     -0.477078    45A     -0.469041

  @DF-RHF Final Energy: -1146.31410081129206

   => Energetics <=

    Nuclear Repulsion Energy =            737.8535402244456236
    One-Electron Energy =               -3058.5583309218463910
    Two-Electron Energy =                1174.3906898861091577
    DFT Exchange-Correlation Energy =       0.0000000000000000
    Empirical Dispersion Energy =           0.0000000000000000
    PCM Polarization Energy =               0.0000000000000000
    EFP Energy =                            0.0000000000000000
    Total Energy =                      -1146.3141008112916097
    Molecular point group: c1
  Basis Set: 6-31G*
  Basis Set:

  -Total Gradient:
     Atom            X                  Y                   Z
    ------   -----------------  -----------------  -----------------
       1        0.000033414040    -0.000033122279     0.000024586339
       2       -0.000236065332     0.002070361921    -0.001284654664
       3        0.000654325574    -0.002481197029    -0.000487180103
       4       -0.000062301977    -0.000927556885     0.001215111278
       5        0.000066467834    -0.000033403159    -0.000047422060
       6       -0.000509220410     0.001361904783     0.000639080126
       7        0.000012237888    -0.000058176387    -0.000046188597
       8        0.000011197321     0.000008722183    -0.000013689543
       9        0.000013607336     0.000021552534    -0.000017225699
      10        0.000023405503     0.000024042236    -0.000016449685
      11       -0.000006590117     0.000029698461     0.000003090227
      12       -0.000000477691     0.000017173659     0.000030942375

  **** Optimization is complete! (in 6 steps) ****
    Final optimized geometry and variables:
    Molecular point group: c1

    Geometry (in Angstrom), charge = 0, multiplicity = 1:

    H           -2.615416557717    -0.778644537181     1.270285632462
    C           -2.062129847066    -0.504771392877     0.393326533638
    O           -0.776814258620    -0.272435315929     0.755955818127
    F           -2.119076713537    -1.485536746329    -0.503901019138
    F           -2.598074847117     0.569094253361    -0.176773324901
    C            0.065162180363     0.305126774196    -0.175549477559
    C            1.379446071953    -0.463418026785    -0.122266159825
    CL           0.330706226675     2.019000328930     0.186466233962
    H           -0.324333378631     0.239891675756    -1.176777771089
    F            2.233983019378     0.026269536280    -0.995188192831
    F            1.148696205204    -1.721821336380    -0.437917080025
    F            1.925767983325    -0.427462465658     1.068832359116

  Mulliken Charges: (a.u.)
   Center  Symbol    Alpha    Beta     Spin     Total
       1     H     0.40187  0.40187  0.00000  0.19626
       2     C     2.56567  2.56567  0.00000  0.86867
       3     O     4.29880  4.29880  0.00000 -0.59761
       4     F     4.68520  4.68520  0.00000 -0.37039
       5     F     4.68403  4.68403  0.00000 -0.36807
       6     C     3.04553  3.04553  0.00000 -0.09106
       7     C     2.43336  2.43336  0.00000  1.13328
       8    CL     8.50025  8.50025  0.00000 -0.00050
       9     H     0.36723  0.36723  0.00000  0.26553
      10     F     4.67400  4.67400  0.00000 -0.34801
      11     F     4.67564  4.67564  0.00000 -0.35128
      12     F     4.66842  4.66842  0.00000 -0.33684

   Total alpha = 45.00000, Total beta = 45.00000, Total charge =  0.00000
