  ==> Input File <==

--------------------------------------------------------------------------
set {
	reference rhf
	basis 6-31G*
}

set_num_threads( 1 )
memory 2 gb

molecule MOL {
0 1

H	 -3.420663	 1.227371	 -1.044276
O	 -3.452007	 0.283848	 -0.965577
C	 -3.181085	 -0.079926	 0.364119
C	 -1.765924	 0.277073	 0.805136
H	 -3.327791	 -1.152017	 0.410903
H	 -3.905698	 0.375695	 1.036898
C	 -0.677594	 -0.417312	 -0.014550
H	 -1.637766	 1.358238	 0.744969
H	 -1.659588	 0.017670	 1.857098
C	 0.738335	 -0.034840	 0.421385
H	 -0.814977	 -0.178223	 -1.064632
H	 -0.802730	 -1.495410	 0.071702
C	 0.817635	 0.361907	 1.897999
H	 1.406577	 -0.869799	 0.224626
H	 1.094821	 0.792393	 -0.191157
C	 2.199124	 0.838706	 2.360932
H	 0.504069	 -0.479625	 2.513788
H	 0.098429	 1.156955	 2.083630
C	 3.285825	 -0.237711	 2.332470
H	 2.110258	 1.216710	 3.376563
H	 2.511396	 1.683329	 1.749948
H	 2.995319	 -1.100910	 2.925456
H	 4.216993	 0.143705	 2.740251
H	 3.490164	 -0.582533	 1.324250

	symmetry c1
}
set optking {
	frozen_dihedral = ("
		20 16 13 17,
		17 13 10 7,
		11 7 4 3,
		1 2 3 5,
		7 4 3 2
	")
}

ee = energy('scf')
oeprop('DIPOLE', 'QUADRUPOLE', 'MULLIKEN_CHARGES')
f=open( 'psi4out.xyz', 'w' )
f.write( "24  " )
f.write( str(ee) + "\n" )
f.write( MOL.save_string_xyz() )
f.close()
--------------------------------------------------------------------------

    Molecular point group: c1

    Geometry (in Angstrom), charge = 0, multiplicity = 1:

       Center              X                  Y                   Z               Mass
    ------------   -----------------  -----------------  -----------------  -----------------
           H         -3.116343788059     1.096773677595    -1.918133082772     1.007825032070
           O         -3.147687788059     0.153250677595    -1.839434082772    15.994914619560
           C         -2.876765788059    -0.210523322405    -0.509738082772    12.000000000000
           C         -1.461604788059     0.146475677595    -0.068721082772    12.000000000000
           H         -3.023471788059    -1.282614322405    -0.462954082772     1.007825032070
           H         -3.601378788059     0.245097677595     0.163040917228     1.007825032070
           C         -0.373274788059    -0.547909322405    -0.888407082772    12.000000000000
           H         -1.333446788059     1.227640677595    -0.128888082772     1.007825032070
           H         -1.355268788059    -0.112927322405     0.983240917228     1.007825032070
           C          1.042654211941    -0.165437322405    -0.452472082772    12.000000000000
           H         -0.510657788059    -0.308820322405    -1.938489082772     1.007825032070
           H         -0.498410788059    -1.626007322405    -0.802155082772     1.007825032070
           C          1.121954211941     0.231309677595     1.024141917228    12.000000000000
           H          1.710896211941    -1.000396322405    -0.649231082772     1.007825032070
           H          1.399140211941     0.661795677595    -1.065014082772     1.007825032070
           C          2.503443211941     0.708108677595     1.487074917228    12.000000000000
           H          0.808388211941    -0.610222322405     1.639930917228     1.007825032070
           H          0.402748211941     1.026357677595     1.209772917228     1.007825032070
           C          3.590144211941    -0.368308322405     1.458612917228    12.000000000000
           H          2.414577211941     1.086112677595     2.502705917228     1.007825032070
           H          2.815715211941     1.552731677595     0.876090917228     1.007825032070
           H          3.299638211941    -1.231507322405     2.051598917228     1.007825032070
           H          4.521312211941     0.013107677595     1.866393917228     1.007825032070
           H          3.794483211941    -0.713130322405     0.450392917228     1.007825032070

  Charge       = 0
  Multiplicity = 1
  Basis Set: 6-31G*
  Basis Set:

    Orbital Energies (a.u.)
    -----------------------

    Doubly Occupied:

       1A    -20.552719     2A    -11.266626     3A    -11.215935
       4A    -11.214528     5A    -11.212205     6A    -11.211563
       7A    -11.210503     8A    -11.207496     9A     -1.359366
      10A     -1.092778    11A     -1.045365    12A     -0.982996
      13A     -0.916598    14A     -0.855517    15A     -0.811901
      16A     -0.761625    17A     -0.677691    18A     -0.645740
      19A     -0.635656    20A     -0.619574    21A     -0.599303
      22A     -0.581793    23A     -0.555237    24A     -0.548462
      25A     -0.516068    26A     -0.513628    27A     -0.500000
      28A     -0.477766    29A     -0.475721    30A     -0.451592
      31A     -0.447463    32A     -0.436815    33A     -0.424827

  @DF-RHF Final Energy:  -349.23777588057715

   => Energetics <=

    Nuclear Repulsion Energy =            391.5625681936196543
    One-Electron Energy =               -1249.5506440495598781
    Two-Electron Energy =                 508.7502999753622817
    DFT Exchange-Correlation Energy =       0.0000000000000000
    Empirical Dispersion Energy =           0.0000000000000000
    PCM Polarization Energy =               0.0000000000000000
    EFP Energy =                            0.0000000000000000
    Total Energy =                       -349.2377758805779422

  Mulliken Charges: (a.u.)
   Center  Symbol    Alpha    Beta     Spin     Total
       1     H     0.28354  0.28354  0.00000  0.43291
       2     O     4.36889  4.36889  0.00000 -0.73777
       3     C     2.99345  2.99345  0.00000  0.01310
       4     C     3.17887  3.17887  0.00000 -0.35774
       5     H     0.41679  0.41679  0.00000  0.16643
       6     H     0.42859  0.42859  0.00000  0.14281
       7     C     3.15240  3.15240  0.00000 -0.30480
       8     H     0.42779  0.42779  0.00000  0.14443
       9     H     0.41729  0.41729  0.00000  0.16542
      10     C     3.15552  3.15552  0.00000 -0.31105
      11     H     0.40952  0.40952  0.00000  0.18096
      12     H     0.42268  0.42268  0.00000  0.15463
      13     C     3.16058  3.16058  0.00000 -0.32116
      14     H     0.41821  0.41821  0.00000  0.16357
      15     H     0.42377  0.42377  0.00000  0.15245
      16     C     3.14992  3.14992  0.00000 -0.29984
      17     H     0.42459  0.42459  0.00000  0.15082
      18     H     0.41836  0.41836  0.00000  0.16328
      19     C     3.24125  3.24125  0.00000 -0.48251
      20     H     0.42204  0.42204  0.00000  0.15592
      21     H     0.42390  0.42390  0.00000  0.15220
      22     H     0.42262  0.42262  0.00000  0.15475
      23     H     0.41961  0.41961  0.00000  0.16078
      24     H     0.41980  0.41980  0.00000  0.16040

   Total alpha = 33.00000, Total beta = 33.00000, Total charge = -0.00000
