  ==> Input File <==

--------------------------------------------------------------------------
set {
	reference rhf
	basis 6-31G*
}

set_num_threads( 1 )
memory 2 gb

molecule MOL {
0 1

H	 -2.708833	 2.174416	 -1.434537
C	 -2.931382	 1.100222	 -1.448764
C	 -1.915821	 0.248473	 -2.166935
O	 -3.913669	 0.686821	 -0.923443
C	 -0.484381	 0.494762	 -1.670372
H	 -2.202386	 -0.791042	 -2.057395
H	 -1.976507	 0.501872	 -3.224650
C	 -0.252658	 0.041456	 -0.226725
H	 0.202681	 -0.029626	 -2.327827
H	 -0.246013	 1.552997	 -1.765641
C	 1.180775	 0.282413	 0.250794
H	 -0.490075	 -1.017117	 -0.143642
H	 -0.943290	 0.557537	 0.437524
C	 2.148627	 -0.814315	 -0.201312
H	 1.516199	 1.249228	 -0.115937
H	 1.192670	 0.346017	 1.338083
C	 3.580890	 -0.659131	 0.322722
H	 2.166869	 -0.852443	 -1.289387
H	 1.762857	 -1.776509	 0.128956
C	 4.324889	 0.564933	 -0.213704
H	 4.142010	 -1.551473	 0.056605
H	 3.564836	 -0.624694	 1.410140
H	 4.342616	 0.565491	 -1.300421
H	 3.866655	 1.493402	 0.110242
H	 5.353900	 0.572371	 0.132816

	symmetry c1
}
set optking {
	frozen_dihedral = ("
		6 3 5 8,
		6 3 2 4,
		3 5 8 12,
		8 11 14 18,
		20 17 14 18
	")
}

ee = energy('scf')
oeprop('DIPOLE', 'QUADRUPOLE', 'MULLIKEN_CHARGES')
f=open( 'psi4out.xyz', 'w' )
f.write( "25  " )
f.write( str(ee) + "\n" )
f.write( MOL.save_string_xyz() )
f.close()
--------------------------------------------------------------------------

    Molecular point group: c1

    Geometry (in Angstrom), charge = 0, multiplicity = 1:

       Center              X                  Y                   Z               Mass
    ------------   -----------------  -----------------  -----------------  -----------------
           H         -2.903256720082     1.952121671809    -0.738739795545     1.007825032070
           C         -3.125805720082     0.877927671809    -0.752966795545    12.000000000000
           C         -2.110244720082     0.026178671809    -1.471137795545    12.000000000000
           O         -4.108092720082     0.464526671809    -0.227645795545    15.994914619560
           C         -0.678804720082     0.272467671809    -0.974574795545    12.000000000000
           H         -2.396809720082    -1.013336328191    -1.361597795545     1.007825032070
           H         -2.170930720082     0.279577671809    -2.528852795545     1.007825032070
           C         -0.447081720082    -0.180838328191     0.469072204455    12.000000000000
           H          0.008257279918    -0.251920328191    -1.632029795545     1.007825032070
           H         -0.440436720082     1.330702671809    -1.069843795545     1.007825032070
           C          0.986351279918     0.060118671809     0.946591204455    12.000000000000
           H         -0.684498720082    -1.239411328191     0.552155204455     1.007825032070
           H         -1.137713720082     0.335242671809     1.133321204455     1.007825032070
           C          1.954203279918    -1.036609328191     0.494485204455    12.000000000000
           H          1.321775279918     1.026933671809     0.579860204455     1.007825032070
           H          0.998246279918     0.123722671809     2.033880204455     1.007825032070
           C          3.386466279918    -0.881425328191     1.018519204455    12.000000000000
           H          1.972445279918    -1.074737328191    -0.593589795545     1.007825032070
           H          1.568433279918    -1.998803328191     0.824753204455     1.007825032070
           C          4.130465279918     0.342638671809     0.482093204455    12.000000000000
           H          3.947586279918    -1.773767328191     0.752402204455     1.007825032070
           H          3.370412279918    -0.846988328191     2.105937204455     1.007825032070
           H          4.148192279918     0.343196671809    -0.604623795545     1.007825032070
           H          3.672231279918     1.271107671809     0.806039204455     1.007825032070
           H          5.159476279918     0.350076671809     0.828613204455     1.007825032070

  Charge       = 0
  Multiplicity = 1
  Basis Set: 6-31G*
  Basis Set:

    Orbital Energies (a.u.)
    -----------------------

    Doubly Occupied:

       1A    -20.561911     2A    -11.326038     3A    -11.235078
       4A    -11.234436     5A    -11.223413     6A    -11.219503
       7A    -11.218968     8A    -11.218187     9A    -11.211712
      10A     -1.401883    11A     -1.105363    12A     -1.069132
      13A     -1.013656    14A     -0.940956    15A     -0.879690
      16A     -0.822602    17A     -0.789272    18A     -0.778580
      19A     -0.665836    20A     -0.652094    21A     -0.635408
      22A     -0.622641    23A     -0.608682    24A     -0.598437
      25A     -0.576717    26A     -0.551430    27A     -0.531665
      28A     -0.523453    29A     -0.519448    30A     -0.500958
      31A     -0.485576    32A     -0.478382    33A     -0.461283
      34A     -0.454113    35A     -0.446140    36A     -0.409161

  @DF-RHF Final Energy:  -387.11943713955111

   => Energetics <=

    Nuclear Repulsion Energy =            443.0431401756676451
    One-Electron Energy =               -1402.3814862284332321
    Two-Electron Energy =                 572.2189089132141362
    DFT Exchange-Correlation Energy =       0.0000000000000000
    Empirical Dispersion Energy =           0.0000000000000000
    PCM Polarization Energy =               0.0000000000000000
    EFP Energy =                            0.0000000000000000
    Total Energy =                       -387.1194371395514509

  Mulliken Charges: (a.u.)
   Center  Symbol    Alpha    Beta     Spin     Total
       1     H     0.43264  0.43264  0.00000  0.13472
       2     C     2.83077  2.83077  0.00000  0.33846
       3     C     3.20792  3.20792  0.00000 -0.41585
       4     O     4.23781  4.23781  0.00000 -0.47561
       5     C     3.16808  3.16808  0.00000 -0.33615
       6     H     0.39966  0.39966  0.00000  0.20068
       7     H     0.40687  0.40687  0.00000  0.18625
       8     C     3.15744  3.15744  0.00000 -0.31488
       9     H     0.41152  0.41152  0.00000  0.17695
      10     H     0.41953  0.41953  0.00000  0.16093
      11     C     3.15720  3.15720  0.00000 -0.31440
      12     H     0.41764  0.41764  0.00000  0.16472
      13     H     0.41593  0.41593  0.00000  0.16814
      14     C     3.15443  3.15443  0.00000 -0.30886
      15     H     0.42107  0.42107  0.00000  0.15787
      16     H     0.41873  0.41873  0.00000  0.16254
      17     C     3.15228  3.15228  0.00000 -0.30456
      18     H     0.42436  0.42436  0.00000  0.15127
      19     H     0.42068  0.42068  0.00000  0.15863
      20     C     3.24139  3.24139  0.00000 -0.48278
      21     H     0.42040  0.42040  0.00000  0.15920
      22     H     0.42236  0.42236  0.00000  0.15527
      23     H     0.42271  0.42271  0.00000  0.15458
      24     H     0.42017  0.42017  0.00000  0.15966
      25     H     0.41839  0.41839  0.00000  0.16322

   Total alpha = 36.00000, Total beta = 36.00000, Total charge =  0.00000
