  ==> Input File <==

--------------------------------------------------------------------------
set {
	reference rhf
	basis 6-31G*
}

set_num_threads( 4 )
memory 2 gb

molecule MOL {
0 1

H	 -0.254453	 -1.349717	 -4.756265
O	 -0.436624	 -2.199250	 -5.130669
C	 0.107086	 -3.203784	 -4.312534
C	 -0.664147	 -3.403161	 -3.012467
H	 0.073739	 -4.112147	 -4.900274
H	 1.154800	 -2.995547	 -4.098733
C	 -0.639924	 -2.188144	 -2.081868
H	 -1.692783	 -3.655195	 -3.256913
H	 -0.241032	 -4.262983	 -2.495702
C	 -1.376565	 -2.438667	 -0.762998
H	 -1.086864	 -1.339081	 -2.591478
H	 0.393884	 -1.916753	 -1.867559
C	 -1.309753	 -1.282496	 0.241564
H	 -2.418563	 -2.672468	 -0.973766
H	 -0.955970	 -3.326159	 -0.294854
C	 -2.037799	 -0.007733	 -0.193645
H	 -1.737852	 -1.622133	 1.182411
H	 -0.267135	 -1.048650	 0.451569
C	 -3.489788	 0.042957	 0.286558
H	 -2.017067	 0.064384	 -1.280144
H	 -1.513726	 0.868678	 0.179924
C	 -4.216917	 1.317354	 -0.141063
H	 -4.025645	 -0.823308	 -0.095450
H	 -3.513059	 -0.038752	 1.371301
H	 -4.239342	 1.411634	 -1.223113
H	 -5.243387	 1.322503	 0.212445
H	 -3.726170	 2.201406	 0.256408

	symmetry c1
}
set optking {
	frozen_dihedral = ("
		10 13 16 20
	")
}

ee = optimize('scf')
oeprop('DIPOLE', 'QUADRUPOLE', 'MULLIKEN_CHARGES')
f=open( 'psi4out.xyz', 'w' )
f.write( "27  " )
f.write( str(ee) + "\n" )
f.write( MOL.save_string_xyz() )
f.close()
--------------------------------------------------------------------------

    Molecular point group: c1
  Charge       = 0
  Multiplicity = 1
  Basis Set: 6-31G*
  Basis Set:
  @DF-RHF Final Energy:  -388.27779816090236
    Total Energy =                       -388.2777981609028757
    Molecular point group: c1
  Basis Set: 6-31G*
  Basis Set:
  Basis Set: 6-31G*
  Basis Set:
  @DF-RHF Final Energy:  -388.27813599172737
    Total Energy =                       -388.2781359917272539
  Basis Set: 6-31G*
  Basis Set:
  Basis Set: 6-31G*
  Basis Set:
  @DF-RHF Final Energy:  -388.27839331648505
    Total Energy =                       -388.2783933164849941
  Basis Set: 6-31G*
  Basis Set:
  Basis Set: 6-31G*
  Basis Set:
  @DF-RHF Final Energy:  -388.27842629732362
    Total Energy =                       -388.2784262973232217
  Basis Set: 6-31G*
  Basis Set:
  Basis Set: 6-31G*
  Basis Set:
  @DF-RHF Final Energy:  -388.27842237543314
    Total Energy =                       -388.2784223754326831
  Basis Set: 6-31G*
  Basis Set:
  Basis Set: 6-31G*
  Basis Set:
  @DF-RHF Final Energy:  -388.27843071729285
    Total Energy =                       -388.2784307172935314
  Basis Set: 6-31G*
  Basis Set:
  Charge       = 0
  Multiplicity = 1
  Basis Set: 6-31G*
  Basis Set:

    Orbital Energies (a.u.)
    -----------------------

    Doubly Occupied:

       1A    -20.552484     2A    -11.267230     3A    -11.219985
       4A    -11.217496     5A    -11.215534     6A    -11.215404
       7A    -11.215368     8A    -11.214063     9A    -11.208596
      10A     -1.359221    11A     -1.094831    12A     -1.060560
      13A     -1.010186    14A     -0.948202    15A     -0.886646
      16A     -0.825170    17A     -0.802563    18A     -0.773034
      19A     -0.694042    20A     -0.654007    21A     -0.629765
      22A     -0.612789    23A     -0.604849    24A     -0.588956
      25A     -0.575558    26A     -0.561308    27A     -0.533448
      28A     -0.528554    29A     -0.506666    30A     -0.492616
      31A     -0.485820    32A     -0.482159    33A     -0.467721
      34A     -0.452324    35A     -0.448368    36A     -0.445138
      37A     -0.423673

  @DF-RHF Final Energy:  -388.27843086809429

   => Energetics <=

    Nuclear Repulsion Energy =            463.0748903915105643
    One-Electron Energy =               -1444.1579814103095032
    Two-Electron Energy =                 592.8046601507040805
    DFT Exchange-Correlation Energy =       0.0000000000000000
    Empirical Dispersion Energy =           0.0000000000000000
    PCM Polarization Energy =               0.0000000000000000
    EFP Energy =                            0.0000000000000000
    Total Energy =                       -388.2784308680949152
    Molecular point group: c1
  Basis Set: 6-31G*
  Basis Set:

  -Total Gradient:
     Atom            X                  Y                   Z
    ------   -----------------  -----------------  -----------------
       1        0.000002066921    -0.000006966485    -0.000006527026
       2       -0.000000617731    -0.000003289832    -0.000014797954
       3        0.000010562536     0.000016807319     0.000016682952
       4       -0.000013717212     0.000004437804    -0.000006054471
       5       -0.000001075512     0.000004849839     0.000001978306
       6        0.000004212030    -0.000001336562    -0.000003534258
       7        0.000022804984    -0.000013729692    -0.000018323660
       8       -0.000004071496    -0.000000558517    -0.000011170649
       9       -0.000010236516     0.000005832910     0.000008622181
      10        0.001626300452     0.000677239075    -0.000982810916
      11       -0.000009365013    -0.000016488056     0.000005234800
      12        0.000000695698     0.000000900035    -0.000005721328
      13       -0.002811785047    -0.001361723344     0.001462596901
      14        0.000011441380     0.000008975994     0.000018011402
      15        0.000007903970    -0.000001978786    -0.000002798598
      16        0.003534491272     0.002141231995    -0.000483780848
      17        0.000013776935    -0.000017164244     0.000009227336
      18       -0.000017343796    -0.000041599639    -0.000007670055
      19       -0.000014866069     0.000006817960    -0.000042734532
      20       -0.002349037902    -0.001420820174     0.000090773882
      21       -0.000003877371     0.000022408227    -0.000017496554
      22       -0.000000027982    -0.000001297241     0.000008506867
      23       -0.000009206284    -0.000000967073    -0.000005247428
      24        0.000011209299     0.000001987053    -0.000011659556
      25       -0.000007972145    -0.000003518624     0.000000002398
      26        0.000002333806     0.000003280265     0.000004475138
      27        0.000005400784    -0.000003330208    -0.000005784323

  **** Optimization is complete! (in 7 steps) ****
    Final optimized geometry and variables:
    Molecular point group: c1

    Geometry (in Angstrom), charge = 0, multiplicity = 1:

    H            1.579772943459     0.112738435345    -2.969443504977
    O            1.292544164828    -0.690755259411    -3.378133903343
    C            1.653815718503    -1.785550838326    -2.575006007890
    C            0.805980813352    -1.910774148615    -1.313994433736
    H            1.518912408900    -2.662553715359    -3.194926007791
    H            2.710020468702    -1.734150771921    -2.313303380696
    C            0.955223831494    -0.734928389718    -0.345708605376
    H           -0.235670686946    -2.012284953573    -1.607148893416
    H            1.084529951804    -2.833837144786    -0.808209276174
    C            0.154402557922    -0.923284167941     0.945777110996
    H            0.639810819895     0.179212089084    -0.841514052237
    H            2.007364559491    -0.605130089048    -0.092775162245
    C            0.266173457159     0.248954068852     1.930659582724
    H           -0.891335554000    -1.098336255406     0.699470845626
    H            0.503214907017    -1.829151808306     1.436808543894
    C           -0.529420275179     1.504937853356     1.528547263766
    H           -0.063602448743    -0.077761096848     2.913687804110
    H            1.318534726515     0.501773789110     2.040245290133
    C           -1.953499707277     1.520650545447     2.094273191469
    H           -0.596714633129     1.572605695937     0.445686640136
    H           -0.009120247583     2.398244900088     1.864301048980
    C           -2.762834691183     2.734577936070     1.640079416324
    H           -2.472969675483     0.611399740556     1.799112847464
    H           -1.905984333383     1.504579154287     3.180954384809
    H           -2.866544389880     2.755240314811     0.558816136741
    H           -3.760816098212     2.725142778533     2.067389562278
    H           -2.282503352485     3.661050210219     1.942552737036

  Mulliken Charges: (a.u.)
   Center  Symbol    Alpha    Beta     Spin     Total
       1     H     0.27978  0.27978  0.00000  0.44044
       2     O     4.37098  4.37098  0.00000 -0.74195
       3     C     2.99755  2.99755  0.00000  0.00490
       4     C     3.16083  3.16083  0.00000 -0.32166
       5     H     0.41442  0.41442  0.00000  0.17116
       6     H     0.43191  0.43191  0.00000  0.13618
       7     C     3.16262  3.16262  0.00000 -0.32523
       8     H     0.41509  0.41509  0.00000  0.16982
       9     H     0.42423  0.42423  0.00000  0.15153
      10     C     3.15375  3.15375  0.00000 -0.30750
      11     H     0.42336  0.42336  0.00000  0.15328
      12     H     0.42518  0.42518  0.00000  0.14965
      13     C     3.15758  3.15758  0.00000 -0.31516
      14     H     0.42129  0.42129  0.00000  0.15741
      15     H     0.42124  0.42124  0.00000  0.15751
      16     C     3.15472  3.15472  0.00000 -0.30944
      17     H     0.41943  0.41943  0.00000  0.16113
      18     H     0.42221  0.42221  0.00000  0.15557
      19     C     3.15255  3.15255  0.00000 -0.30509
      20     H     0.42232  0.42232  0.00000  0.15536
      21     H     0.42109  0.42109  0.00000  0.15782
      22     C     3.23961  3.23961  0.00000 -0.47923
      23     H     0.42251  0.42251  0.00000  0.15498
      24     H     0.42297  0.42297  0.00000  0.15406
      25     H     0.42156  0.42156  0.00000  0.15687
      26     H     0.41919  0.41919  0.00000  0.16162
      27     H     0.42201  0.42201  0.00000  0.15597

   Total alpha = 37.00000, Total beta = 37.00000, Total charge =  0.00000
