  ==> Input File <==

--------------------------------------------------------------------------
set {
	reference rhf
	basis cc-pvtz
}

set_num_threads( 4 )
memory 2 gb

molecule MOL {
0 1

H	 3.889604	 0.356866	 -0.089510
N	 3.091268	 -0.241216	 -0.065538
C	 1.860978	 0.530248	 0.016256
H	 3.192566	 -0.835836	 0.730398
C	 0.644130	 -0.381765	 -0.031064
H	 1.835721	 1.204666	 -0.833114
H	 1.808789	 1.151975	 0.911067
C	 -0.678115	 0.376691	 0.025731
H	 0.693998	 -0.977147	 -0.936845
H	 0.693309	 -1.082142	 0.800523
C	 -0.528717	 1.816484	 0.509343
H	 -1.366726	 -0.149954	 0.682552
H	 -1.139307	 0.377715	 -0.959242
C	 -1.853552	 2.569284	 0.570826
H	 -0.067678	 1.817692	 1.493077
H	 0.155982	 2.346046	 -0.147559
H	 -2.548765	 2.083394	 1.247457
H	 -1.711981	 3.586514	 0.917535
H	 -2.323482	 2.615499	 -0.406090

	symmetry c1
}
set optking {
	frozen_dihedral = ("
		12 8 5 9
	")
}

ee = optimize('scf')
oeprop('DIPOLE', 'QUADRUPOLE', 'MULLIKEN_CHARGES')
f=open( 'psi4out.xyz', 'w' )
f.write( "19  " )
f.write( str(ee) + "\n" )
f.write( MOL.save_string_xyz() )
f.close()
--------------------------------------------------------------------------

    Molecular point group: c1
  Charge       = 0
  Multiplicity = 1
  Basis Set: CC-PVTZ
  Basis Set:
  @DF-RHF Final Energy:  -251.43544019153637
    Total Energy =                       -251.4354401915364292
    Molecular point group: c1
  Basis Set: CC-PVTZ
  Basis Set:
  Basis Set: CC-PVTZ
  Basis Set:
  @DF-RHF Final Energy:  -251.43607987238252
    Total Energy =                       -251.4360798723824928
  Basis Set: CC-PVTZ
  Basis Set:
  Basis Set: CC-PVTZ
  Basis Set:
  @DF-RHF Final Energy:  -251.43898749018996
    Total Energy =                       -251.4389874901899589
  Basis Set: CC-PVTZ
  Basis Set:
  Basis Set: CC-PVTZ
  Basis Set:
  @DF-RHF Final Energy:  -251.43935723154254
    Total Energy =                       -251.4393572315426013
  Basis Set: CC-PVTZ
  Basis Set:
  @DF-RHF Final Energy:  -251.43938752847279
    Total Energy =                       -251.4393875284730484
  Basis Set: CC-PVTZ
  Basis Set:
  @DF-RHF Final Energy:  -251.43939647318516
    Total Energy =                       -251.4393964731849564
  Basis Set: CC-PVTZ
  Basis Set:
  Basis Set: CC-PVTZ
  Basis Set:
  @DF-RHF Final Energy:  -251.43940386453994
    Total Energy =                       -251.4394038645399405
  Basis Set: CC-PVTZ
  Basis Set:
  Basis Set: CC-PVTZ
  Basis Set:
  @DF-RHF Final Energy:  -251.43940586317999
    Total Energy =                       -251.4394058631801840
  Basis Set: CC-PVTZ
  Basis Set:
  Charge       = 0
  Multiplicity = 1
  Basis Set: CC-PVTZ
  Basis Set:

    Orbital Energies (a.u.)
    -----------------------

    Doubly Occupied:

       1A    -15.525827     2A    -11.237027     3A    -11.212509
       4A    -11.211273     5A    -11.208397     6A    -11.205851
       7A     -1.177733     8A     -1.071341     9A     -0.995533
      10A     -0.899893    11A     -0.835583    12A     -0.768502
      13A     -0.660749    14A     -0.643687    15A     -0.624082
      16A     -0.585214    17A     -0.572751    18A     -0.545749
      19A     -0.527021    20A     -0.504124    21A     -0.491218
      22A     -0.461010    23A     -0.451341    24A     -0.447686
      25A     -0.383027

  @DF-RHF Final Energy:  -251.43940587933810

   => Energetics <=

    Nuclear Repulsion Energy =            249.9295354688315456
    One-Electron Energy =                -834.2436259582509592
    Two-Electron Energy =                 332.8746846100814878
    DFT Exchange-Correlation Energy =       0.0000000000000000
    Empirical Dispersion Energy =           0.0000000000000000
    PCM Polarization Energy =               0.0000000000000000
    EFP Energy =                            0.0000000000000000
    Total Energy =                       -251.4394058793379259
    Molecular point group: c1
  Basis Set: CC-PVTZ
  Basis Set:

  -Total Gradient:
     Atom            X                  Y                   Z
    ------   -----------------  -----------------  -----------------
       1       -0.000000948155     0.000001619934     0.000002793860
       2       -0.000001079613    -0.000006800498     0.000026009518
       3       -0.000008804256     0.000004643410    -0.000077221951
       4        0.000010801943    -0.000007220141     0.000002086555
       5       -0.002423039295    -0.004284750993     0.004063621758
       6        0.000007613968     0.000003522709     0.000003827491
       7       -0.000008297250    -0.000003209599     0.000004130060
       8       -0.001591150832    -0.002506065740    -0.005522194921
       9        0.002296571655     0.004003213662    -0.002562120602
      10       -0.000004548905    -0.000011425577     0.000001016583
      11        0.000000757422    -0.000007805103     0.000010053535
      12        0.001724241489     0.002810197607     0.004052054467
      13        0.000000776557    -0.000000321509     0.000000419174
      14       -0.000001757508    -0.000001287539     0.000001422770
      15       -0.000009254802     0.000002853515    -0.000003180158
      16        0.000006173937     0.000002805321    -0.000001307515
      17       -0.000000557951     0.000000496882    -0.000000040026
      18        0.000001144995     0.000000504560    -0.000001593561
      19        0.000001356597    -0.000000970901     0.000000222963

  **** Optimization is complete! (in 9 steps) ****
    Final optimized geometry and variables:
    Molecular point group: c1

    Geometry (in Angstrom), charge = 0, multiplicity = 1:

    H            3.506662189739    -0.624986881993    -0.346550785046
    N            2.661182191400    -1.153638560238    -0.307444295804
    C            1.504782805389    -0.279717560333    -0.172885458732
    H            2.735469518862    -1.768513496059     0.476216656433
    C            0.226525704414    -1.114205598536    -0.162476951339
    H            1.498429010475     0.387791198983    -1.027582477187
    H            1.555954275144     0.345754012324     0.715702218356
    C           -1.107143457971    -0.332367357493    -0.136507431896
    H            0.267903622231    -1.715984690349    -1.062216361335
    H            0.271184842565    -1.794619736990     0.682605104865
    C           -1.053667492621     1.113585904883     0.365569778922
    H           -1.796267478447    -0.854890463413     0.519470540646
    H           -1.548009227756    -0.334805094864    -1.127586575420
    C           -2.432272935520     1.766896664115     0.374653923062
    H           -0.643329485285     1.139211401067     1.370703716739
    H           -0.387845972662     1.705478006838    -0.253025739638
    H           -3.119020516628     1.225328433392     1.016773351951
    H           -2.380238843214     2.788493964827     0.733585367253
    H           -2.861620293267     1.788034546415    -0.621599721545

  Mulliken Charges: (a.u.)
   Center  Symbol    Alpha    Beta     Spin     Total
       1     H     0.43015  0.43015  0.00000  0.13969
       2     N     3.69168  3.69168  0.00000 -0.38337
       3     C     3.02816  3.02816  0.00000 -0.05632
       4     H     0.43104  0.43104  0.00000  0.13793
       5     C     3.09079  3.09079  0.00000 -0.18157
       6     H     0.45524  0.45524  0.00000  0.08951
       7     H     0.46389  0.46389  0.00000  0.07222
       8     C     3.09588  3.09588  0.00000 -0.19177
       9     H     0.44579  0.44579  0.00000  0.10842
      10     H     0.45732  0.45732  0.00000  0.08536
      11     C     3.09308  3.09308  0.00000 -0.18616
      12     H     0.45229  0.45229  0.00000  0.09542
      13     H     0.45055  0.45055  0.00000  0.09891
      14     C     3.15035  3.15035  0.00000 -0.30071
      15     H     0.45340  0.45340  0.00000  0.09320
      16     H     0.45178  0.45178  0.00000  0.09645
      17     H     0.45509  0.45509  0.00000  0.08983
      18     H     0.44846  0.44846  0.00000  0.10307
      19     H     0.45505  0.45505  0.00000  0.08989

   Total alpha = 25.00000, Total beta = 25.00000, Total charge = -0.00000
