                              Psi4 1.0.54 Driver

  ==> Input File <==

--------------------------------------------------------------------------
set {
	reference rhf
	basis cc-pvtz
}

set_num_threads( 4 )
memory 2 gb

molecule MOL {
0 1

H	 -2.644180	 -0.653737	 1.272255
C	 -2.092774	 -0.380414	 0.391915
O	 -0.808934	 -0.154049	 0.752536
F	 -2.163230	 -1.351640	 -0.507133
F	 -2.627232	 0.691260	 -0.169301
C	 0.085006	 0.250800	 -0.215074
C	 1.370439	 -0.548013	 -0.012993
Cl	 0.421658	 1.987697	 -0.091007
H	 -0.272219	 0.063284	 -1.212508
F	 1.233809	 -1.393157	 0.977001
F	 2.343019	 0.278020	 0.292084
F	 1.715708	 -1.209168	 -1.083467

	symmetry c1
}
set optking {
	frozen_dihedral = ("
		10 7 6 9
	")
}

ee,wfn = optimize('scf', return_wfn=True)
oeprop( wfn, 'DIPOLE', 'QUADRUPOLE', 'MULLIKEN_CHARGES')
f=open( 'psi4out.xyz', 'w' )
f.write( "12  " )
f.write( str(ee) + "\n" )
f.write( MOL.save_string_xyz() )
f.close()
--------------------------------------------------------------------------

    Molecular point group: c1
  Charge       = 0
  Multiplicity = 1
  Basis Set: CC-PVTZ
  Basis Set:
  @DF-RHF Final Energy: -1146.60663856164865
    Total Energy =                      -1146.6066385616486514
    Molecular point group: c1
  Basis Set: CC-PVTZ
  Basis Set:
  Basis Set: CC-PVTZ
  Basis Set:
  @DF-RHF Final Energy: -1146.60659421868422
    Total Energy =                      -1146.6065942186858138
  Basis Set: CC-PVTZ
  Basis Set:
  Basis Set: CC-PVTZ
  Basis Set:
  @DF-RHF Final Energy: -1146.61051291001240
    Total Energy =                      -1146.6105129100126305
  Basis Set: CC-PVTZ
  Basis Set:
  Basis Set: CC-PVTZ
  Basis Set:
  @DF-RHF Final Energy: -1146.61091259453315
    Total Energy =                      -1146.6109125945347387
  Basis Set: CC-PVTZ
  Basis Set:
  @DF-RHF Final Energy: -1146.61093981910312
    Total Energy =                      -1146.6109398191038053
  @DF-RHF Final Energy: -1146.61094809820543
    Total Energy =                      -1146.6109480982063360
  Basis Set: CC-PVTZ
  Basis Set:
  @DF-RHF Final Energy: -1146.61095148378627
    Total Energy =                      -1146.6109514837858114
  Basis Set: CC-PVTZ
  Basis Set:
  Basis Set: CC-PVTZ
  Basis Set:
  @DF-RHF Final Energy: -1146.61095522635696
    Total Energy =                      -1146.6109552263569640
  Basis Set: CC-PVTZ
  Basis Set:
  Basis Set: CC-PVTZ
  Basis Set:
  @DF-RHF Final Energy: -1146.61095675586193
    Total Energy =                      -1146.6109567558621620
  Basis Set: CC-PVTZ
  Basis Set:
  Charge       = 0
  Multiplicity = 1
  Basis Set: CC-PVTZ
  Basis Set:

    Orbital Energies (a.u.)
    -----------------------

    Doubly Occupied:

       1A   -104.855428     2A    -26.353271     3A    -26.353237
       4A    -26.353033     5A    -26.343365     6A    -26.343096
       7A    -20.639259     8A    -11.522755     9A    -11.483687
      10A    -11.402379    11A    -10.581039    12A     -8.047818
      13A     -8.045844    14A     -8.045759    15A     -1.768532
      16A     -1.724523    17A     -1.662128    18A     -1.660615
      19A     -1.644681    20A     -1.486467    21A     -1.174951
      22A     -1.048408    23A     -0.991055    24A     -0.924051
      25A     -0.862106    26A     -0.858278    27A     -0.851918
      28A     -0.831382    29A     -0.819520    30A     -0.795935
      31A     -0.732892    32A     -0.731729    33A     -0.710731
      34A     -0.708512    35A     -0.684592    36A     -0.680169
      37A     -0.665392    38A     -0.662527    39A     -0.650457
      40A     -0.634432    41A     -0.598214    42A     -0.579373
      43A     -0.523592    44A     -0.476666    45A     -0.468683

  @DF-RHF Final Energy: -1146.61095741883037

   => Energetics <=

    Nuclear Repulsion Energy =            735.4534997581640710
    One-Electron Energy =               -3054.1639552900874151
    Two-Electron Energy =                1172.0994981130929773
    DFT Exchange-Correlation Energy =       0.0000000000000000
    Empirical Dispersion Energy =           0.0000000000000000
    PCM Polarization Energy =               0.0000000000000000
    EFP Energy =                            0.0000000000000000
    Total Energy =                      -1146.6109574188303668
    Molecular point group: c1
  Basis Set: CC-PVTZ
  Basis Set:

  -Total Gradient:
     Atom            X                  Y                   Z
    ------   -----------------  -----------------  -----------------
       1        0.000002839275     0.000012788409     0.000002271379
       2        0.000028649491    -0.000019177121     0.000015822404
       3       -0.000029044773     0.000009223612     0.000051670905
       4       -0.000019326557    -0.000035129337    -0.000034560168
       5       -0.000005060024     0.000022383563    -0.000002426184
       6       -0.000173237806    -0.000187300135     0.000113327203
       7       -0.000121635277    -0.000126227205    -0.000146703136
       8       -0.000004258079    -0.000016713056     0.000000040745
       9        0.000195262140     0.000214110374    -0.000093295550
      10        0.000117725611     0.000170853688     0.000134528402
      11        0.000010101781    -0.000003544164     0.000007014702
      12       -0.000002015763    -0.000041268647    -0.000047690700

  **** Optimization is complete! (in 10 steps) ****
    Final optimized geometry and variables:
    Molecular point group: c1

    Geometry (in Angstrom), charge = 0, multiplicity = 1:

    H           -2.797789760201    -0.417000211278     1.057214923672
    C           -2.139764672132    -0.223405406026     0.230624393670
    O           -0.897320596098    -0.016371524301     0.719691007872
    F           -2.147825084714    -1.252621328571    -0.606211773645
    F           -2.565368820560     0.823359834102    -0.457666306503
    C            0.110628473117     0.292458115009    -0.168465107690
    C            1.324911831963    -0.651275634428     0.082257533928
    CL           0.555402932590     2.001848676271    -0.015359768001
    H           -0.195139529827     0.148825989964    -1.187988735724
    F            1.075453366695    -1.505810511470     1.036655194866
    F            2.424343674201    -0.020157750774     0.386109048988
    F            1.550151715771    -1.333654144926    -1.020809554225

  Mulliken Charges: (a.u.)
   Center  Symbol    Alpha    Beta     Spin     Total
       1     H     0.45158  0.45158  0.00000  0.09683
       2     C     2.73856  2.73856  0.00000  0.52289
       3     O     4.14974  4.14974  0.00000 -0.29948
       4     F     4.61883  4.61883  0.00000 -0.23766
       5     F     4.61569  4.61569  0.00000 -0.23138
       6     C     2.96426  2.96426  0.00000  0.07148
       7     C     2.66099  2.66099  0.00000  0.67801
       8    CL     8.56843  8.56843  0.00000 -0.13686
       9     H     0.43162  0.43162  0.00000  0.13677
      10     F     4.59771  4.59771  0.00000 -0.19541
      11     F     4.59537  4.59537  0.00000 -0.19075
      12     F     4.60722  4.60722  0.00000 -0.21444

   Total alpha = 45.00000, Total beta = 45.00000, Total charge = -0.00000

*** Psi4 exiting successfully. Buy a developer a beer!
