  ==> Input File <==

--------------------------------------------------------------------------
set {
	reference rhf
	basis cc-pvtz
}

set_num_threads( 4 )
memory 2 gb

molecule MOL {
0 1

O	 3.219313	 0.959291	 -0.614106
C	 2.698710	 0.058177	 -0.050237
C	 1.246364	 -0.005813	 0.348416
O	 3.344101	 -1.038700	 0.312317
C	 0.453207	 1.232821	 -0.049003
H	 0.839270	 -0.907818	 -0.092281
H	 1.216683	 -0.160521	 1.422434
C	 -0.998367	 1.217982	 0.432195
H	 0.481498	 1.345443	 -1.127236
H	 0.951413	 2.105557	 0.354893
C	 -1.882951	 0.151251	 -0.211235
H	 -1.429490	 2.193659	 0.228843
H	 -1.019755	 1.099323	 1.513279
C	 -3.342450	 0.243269	 0.226009
H	 -1.826223	 0.246578	 -1.293162
H	 -1.508033	 -0.839650	 0.027695
C	 -4.234517	 -0.821434	 -0.405970
H	 -3.730149	 1.228245	 -0.022691
H	 -3.398860	 0.159952	 1.308941
C	 -5.226855	 -1.433250	 0.577251
H	 -4.777205	 -0.385448	 -1.240312
H	 -3.612890	 -1.607830	 -0.825516
H	 -5.843618	 -2.184334	 0.097188
H	 -5.887127	 -0.676878	 0.988410
H	 -4.713592	 -1.907998	 1.406940
C	 4.720529	 -1.114346	 0.001449
H	 4.874321	 -1.055557	 -1.065852
H	 5.057824	 -2.067950	 0.373977
H	 5.264321	 -0.313596	 0.480350

	symmetry c1
}
set optking {
	frozen_dihedral = ("
		21 17 14 11
	")
}

ee = optimize('scf')
oeprop('DIPOLE', 'QUADRUPOLE', 'MULLIKEN_CHARGES')
f=open( 'psi4out.xyz', 'w' )
f.write( "29  " )
f.write( str(ee) + "\n" )
f.write( MOL.save_string_xyz() )
f.close()
--------------------------------------------------------------------------

    Molecular point group: c1
  Charge       = 0
  Multiplicity = 1
  Basis Set: CC-PVTZ
  Basis Set:
  @DF-RHF Final Energy:  -501.22031666276621
    Total Energy =                       -501.2203166627659812
    Molecular point group: c1
  Basis Set: CC-PVTZ
  Basis Set:
  Basis Set: CC-PVTZ
  Basis Set:
  @DF-RHF Final Energy:  -501.22057910177227
    Total Energy =                       -501.2205791017726142
  Basis Set: CC-PVTZ
  Basis Set:
  Basis Set: CC-PVTZ
  Basis Set:
  @DF-RHF Final Energy:  -501.22063171834077
    Total Energy =                       -501.2206317183411102
  Basis Set: CC-PVTZ
  Basis Set:
  Basis Set: CC-PVTZ
  Basis Set:
  @DF-RHF Final Energy:  -501.22040341913078
    Total Energy =                       -501.2204034191306619
  Basis Set: CC-PVTZ
  Basis Set:
  Basis Set: CC-PVTZ
  Basis Set:
  @DF-RHF Final Energy:  -501.22064212124940
    Total Energy =                       -501.2206421212495115
  Basis Set: CC-PVTZ
  Basis Set:
  Charge       = 0
  Multiplicity = 1
  Basis Set: CC-PVTZ
  Basis Set:

    Orbital Energies (a.u.)
    -----------------------

    Doubly Occupied:

       1A    -20.596034     2A    -20.533880     3A    -11.364298
       4A    -11.278282     5A    -11.233014     6A    -11.217096
       7A    -11.215418     8A    -11.214105     9A    -11.213795
      10A    -11.212166    11A    -11.207416    12A     -1.471927
      13A     -1.365516    14A     -1.098856    15A     -1.066694
      16A     -1.020335    17A     -0.978146    18A     -0.928879
      19A     -0.862277    20A     -0.800607    21A     -0.790815
      22A     -0.765755    23A     -0.703044    24A     -0.685533
      25A     -0.676007    26A     -0.649288    27A     -0.626395
      28A     -0.609054    29A     -0.596710    30A     -0.584472
      31A     -0.565289    32A     -0.551715    33A     -0.533556
      34A     -0.531668    35A     -0.518025    36A     -0.507023
      37A     -0.501916    38A     -0.476925    39A     -0.471517
      40A     -0.461826    41A     -0.458578    42A     -0.457478
      43A     -0.443275    44A     -0.436692

  @DF-RHF Final Energy:  -501.22064226863506

   => Energetics <=

    Nuclear Repulsion Energy =            612.0884203250501514
    One-Electron Energy =               -1895.6555279264109686
    Two-Electron Energy =                 782.3464653327248470
    DFT Exchange-Correlation Energy =       0.0000000000000000
    Empirical Dispersion Energy =           0.0000000000000000
    PCM Polarization Energy =               0.0000000000000000
    EFP Energy =                            0.0000000000000000
    Total Energy =                       -501.2206422686360838
    Molecular point group: c1
  Basis Set: CC-PVTZ
  Basis Set:

  -Total Gradient:
     Atom            X                  Y                   Z
    ------   -----------------  -----------------  -----------------
       1       -0.000005567072    -0.000006765025    -0.000012454775
       2        0.000015733151     0.000013730295     0.000029624273
       3       -0.000016324671    -0.000009513723    -0.000018752054
       4       -0.000005631786    -0.000006640149    -0.000010130945
       5        0.000014704895     0.000026668236     0.000019702671
       6       -0.000015186141    -0.000018561608     0.000002920696
       7        0.000005483948     0.000008409921    -0.000008845686
       8       -0.000027455294     0.000025508454    -0.000035731939
       9        0.000006055502     0.000011117800    -0.000002136247
      10        0.000009922679    -0.000014423122     0.000001990776
      11        0.000545713769    -0.001730599543     0.002066566564
      12       -0.000014847820    -0.000001823858     0.000000871651
      13       -0.000003058468     0.000001779002    -0.000005880990
      14       -0.001373495940     0.002596465345    -0.002300389150
      15        0.000015318898     0.000002344283     0.000017698838
      16        0.000006694801    -0.000014671625    -0.000002212356
      17        0.003574082790    -0.001801371871    -0.002081097810
      18       -0.000003517731    -0.000009615766    -0.000008907273
      19       -0.000003747505    -0.000006571991     0.000006651181
      20        0.000019597916     0.000014321290    -0.000013559361
      21       -0.002743924610     0.000915035860     0.002336328854
      22        0.000009726761     0.000013543132     0.000010627934
      23       -0.000006144375    -0.000002619677    -0.000001843605
      24        0.000000207710    -0.000003264952     0.000005540193
      25       -0.000003184430    -0.000002816243     0.000004062168
      26       -0.000000547308     0.000000205932    -0.000001065642
      27        0.000000469967     0.000000043297     0.000000038194
      28       -0.000000409965    -0.000000066572     0.000000161883
      29       -0.000000669674     0.000000152879     0.000000221960

  **** Optimization is complete! (in 6 steps) ****
    Final optimized geometry and variables:
    Molecular point group: c1

    Geometry (in Angstrom), charge = 0, multiplicity = 1:

    O            3.177181054522     1.024307827241    -0.678281674853
    C            2.659011023936     0.129001188681    -0.103045799439
    C            1.207521682539     0.067432205132     0.299263764488
    O            3.306688159200    -0.962957917577     0.270140496468
    C            0.411849948260     1.300660631084    -0.109871718796
    H            0.800831716813    -0.839878121767    -0.130861879351
    H            1.180184506742    -0.075738370897     1.374931822702
    C           -1.039360943645     1.288116044738     0.372795908745
    H            0.438946813656     1.402467715960    -1.189201551368
    H            0.908983649067     2.178238880623     0.284742131339
    C           -1.922145713585     0.212817081480    -0.257614358217
    H           -1.472809567976     2.260567702730     0.159259226871
    H           -1.059640294914     1.181326481972     1.455255241688
    C           -3.379291960048     0.295639291320     0.192263617693
    H           -1.871470259614     0.300171354739    -1.340993877640
    H           -1.543737012434    -0.775386360631    -0.014018207906
    C           -4.288197503476    -0.761367017173    -0.458783512040
    H           -3.768200021131     1.289369005062    -0.006621942900
    H           -3.407066825700     0.175211861120     1.272132567746
    C           -5.301332141471    -1.361369130449     0.513481668419
    H           -4.838834713223    -0.311099546828    -1.278343079228
    H           -3.686683570511    -1.558745010800    -0.882325275721
    H           -5.949352894661    -2.074731720322     0.016748907006
    H           -5.929636598949    -0.590119122230     0.947108313018
    H           -4.803475786381    -1.875989725631     1.328712092259
    C            4.682512365349    -1.040219335255    -0.043058586592
    H            4.833764191294    -0.992954296479    -1.111297005492
    H            5.022012621305    -1.989212528412     0.339134528645
    H            5.226322033486    -0.233518787658     0.425737397394

  Mulliken Charges: (a.u.)
   Center  Symbol    Alpha    Beta     Spin     Total
       1     O     4.19696  4.19696  0.00000 -0.39392
       2     C     2.80482  2.80482  0.00000  0.39036
       3     C     3.10170  3.10170  0.00000 -0.20341
       4     O     4.14723  4.14723  0.00000 -0.29445
       5     C     3.09244  3.09244  0.00000 -0.18487
       6     H     0.43916  0.43916  0.00000  0.12169
       7     H     0.43993  0.43993  0.00000  0.12013
       8     C     3.10448  3.10448  0.00000 -0.20896
       9     H     0.44621  0.44621  0.00000  0.10759
      10     H     0.43963  0.43963  0.00000  0.12073
      11     C     3.09363  3.09363  0.00000 -0.18725
      12     H     0.44525  0.44525  0.00000  0.10949
      13     H     0.45339  0.45339  0.00000  0.09322
      14     C     3.09075  3.09075  0.00000 -0.18151
      15     H     0.45187  0.45187  0.00000  0.09625
      16     H     0.45366  0.45366  0.00000  0.09268
      17     C     3.08639  3.08639  0.00000 -0.17279
      18     H     0.45065  0.45065  0.00000  0.09869
      19     H     0.45543  0.45543  0.00000  0.08914
      20     C     3.14798  3.14798  0.00000 -0.29596
      21     H     0.45183  0.45183  0.00000  0.09635
      22     H     0.45448  0.45448  0.00000  0.09104
      23     H     0.44953  0.44953  0.00000  0.10095
      24     H     0.45433  0.45433  0.00000  0.09134
      25     H     0.45629  0.45629  0.00000  0.08742
      26     C     3.03813  3.03813  0.00000 -0.07626
      27     H     0.45434  0.45434  0.00000  0.09131
      28     H     0.44528  0.44528  0.00000  0.10944
      29     H     0.45423  0.45423  0.00000  0.09155

   Total alpha = 44.00000, Total beta = 44.00000, Total charge = -0.00000
