                              Psi4 1.0.54 Driver

  ==> Input File <==

--------------------------------------------------------------------------
set {
	reference rhf
	basis cc-pvtz
}

set_num_threads( 4 )
memory 2 gb

molecule MOL {
0 1

O	 3.616470	 0.108936	 0.897414
C	 2.841259	 0.166180	 -0.000295
C	 1.542794	 -0.614730	 -0.000853
C	 3.102380	 1.030800	 -1.212925
C	 0.288398	 0.247429	 0.000314
H	 1.557171	 -1.273139	 -0.866508
H	 1.557484	 -1.274998	 0.863344
C	 -0.993089	 -0.581367	 -0.000217
H	 0.305153	 0.900562	 -0.864701
H	 0.305567	 0.898805	 0.866656
C	 -2.258482	 0.271340	 0.000669
H	 -1.002280	 -1.233920	 -0.870484
H	 -1.002061	 -1.235367	 0.868958
C	 -3.544441	 -0.550271	 -0.000253
H	 -2.250545	 0.925250	 -0.867923
H	 -2.250598	 0.923423	 0.870642
C	 -4.804551	 0.308747	 0.000556
H	 -3.553737	 -1.201524	 -0.870151
H	 -3.553831	 -1.203282	 0.868313
H	 -4.842050	 0.949078	 -0.874436
H	 -5.698404	 -0.304480	 -0.000254
H	 -4.842277	 0.947103	 0.876982
H	 2.308400	 1.760083	 -1.330358
H	 4.048544	 1.538058	 -1.104051
H	 3.115717	 0.421973	 -2.110251

	symmetry c1
}
set optking {
	frozen_dihedral = ("
		1 2 3 6
	")
}

ee,wfn = optimize('scf', return_wfn=True)
oeprop( wfn, 'DIPOLE', 'QUADRUPOLE', 'MULLIKEN_CHARGES')
f=open( 'psi4out.xyz', 'w' )
f.write( "25  " )
f.write( str(ee) + "\n" )
f.write( MOL.save_string_xyz() )
f.close()
--------------------------------------------------------------------------

    Molecular point group: c1
  Charge       = 0
  Multiplicity = 1
  Basis Set: CC-PVTZ
  Basis Set:
  @DF-RHF Final Energy:  -387.27169102570701
    Total Energy =                       -387.2716910257069003
    Molecular point group: c1
  Basis Set: CC-PVTZ
  Basis Set:
  Basis Set: CC-PVTZ
  Basis Set:
  @DF-RHF Final Energy:  -387.27092172906305
    Total Energy =                       -387.2709217290628203
  Basis Set: CC-PVTZ
  Basis Set:
  Basis Set: CC-PVTZ
  Basis Set:
  @DF-RHF Final Energy:  -387.27171541358871
    Total Energy =                       -387.2717154135885949
  Basis Set: CC-PVTZ
  Basis Set:
  Basis Set: CC-PVTZ
  Basis Set:
  @DF-RHF Final Energy:  -387.27238207328003
    Total Energy =                       -387.2723820732798004
  Basis Set: CC-PVTZ
  Basis Set:
  @DF-RHF Final Energy:  -387.27241700630407
    Total Energy =                       -387.2724170063038400
  @DF-RHF Final Energy:  -387.27243972633914
    Total Energy =                       -387.2724397263392575
  Basis Set: CC-PVTZ
  Basis Set:
  @DF-RHF Final Energy:  -387.27245772974032
    Total Energy =                       -387.2724577297402675
  Basis Set: CC-PVTZ
  Basis Set:
  Basis Set: CC-PVTZ
  Basis Set:
  @DF-RHF Final Energy:  -387.27246559229792
    Total Energy =                       -387.2724655922979764
  Basis Set: CC-PVTZ
  Basis Set:
  Basis Set: CC-PVTZ
  Basis Set:
  @DF-RHF Final Energy:  -387.27247378149769
    Total Energy =                       -387.2724737814975242
  Basis Set: CC-PVTZ
  Basis Set:
  Charge       = 0
  Multiplicity = 1
  Basis Set: CC-PVTZ
  Basis Set:

    Orbital Energies (a.u.)
    -----------------------

    Doubly Occupied:

       1A    -20.537043     2A    -11.318987     3A    -11.230329
       4A    -11.227856     5A    -11.225864     6A    -11.221706
       7A    -11.218241     8A    -11.217620     9A    -11.210319
      10A     -1.396653    11A     -1.102567    12A     -1.062076
      13A     -1.012194    14A     -0.971827    15A     -0.897733
      16A     -0.821139    17A     -0.797638    18A     -0.733396
      19A     -0.670059    20A     -0.649619    21A     -0.640164
      22A     -0.617017    23A     -0.605324    24A     -0.589455
      25A     -0.565959    26A     -0.560568    27A     -0.545914
      28A     -0.536759    29A     -0.511897    30A     -0.502216
      31A     -0.489604    32A     -0.481402    33A     -0.469455
      34A     -0.469108    35A     -0.458190    36A     -0.398271

  @DF-RHF Final Energy:  -387.27247418392244

   => Energetics <=

    Nuclear Repulsion Energy =            439.7721859839755325
    One-Electron Energy =               -1396.1609801759154834
    Two-Electron Energy =                 569.1163200080170554
    DFT Exchange-Correlation Energy =       0.0000000000000000
    Empirical Dispersion Energy =           0.0000000000000000
    PCM Polarization Energy =               0.0000000000000000
    EFP Energy =                            0.0000000000000000
    Total Energy =                       -387.2724741839228955
    Molecular point group: c1
  Basis Set: CC-PVTZ
  Basis Set:

  -Total Gradient:
     Atom            X                  Y                   Z
    ------   -----------------  -----------------  -----------------
       1        0.000035780989    -0.000086847256    -0.000034954778
       2       -0.000066795009     0.000118569892     0.000046840142
       3       -0.000024781374     0.000038181522    -0.000060380474
       4        0.000008186825    -0.000007640960    -0.000001444470
       5       -0.000012369811     0.000011855389     0.000014454074
       6        0.000039234698    -0.000059146082     0.000045584928
       7        0.000003538294    -0.000000462586     0.000003994141
       8        0.000007839789    -0.000004598073     0.000001692460
       9       -0.000009102718    -0.000007576172     0.000003735268
      10        0.000008833817     0.000001789241     0.000000838167
      11        0.000003073321     0.000001400379    -0.000025963713
      12       -0.000007881135     0.000006288829    -0.000001855632
      13        0.000007471155    -0.000005479048     0.000001055739
      14        0.000004802419    -0.000002716968    -0.000003529050
      15       -0.000003519061    -0.000001918947    -0.000006610044
      16        0.000000106073    -0.000000652798    -0.000005789734
      17        0.000003772724     0.000003894327     0.000015448642
      18        0.000002732680     0.000007892793    -0.000002648894
      19        0.000000571199    -0.000005743341    -0.000001489719
      20        0.000002574520    -0.000005109931     0.000000295339
      21        0.000001991519     0.000000085918     0.000004531114
      22       -0.000003039504     0.000004176822    -0.000000365782
      23        0.000026186572    -0.000025025652    -0.000008193027
      24       -0.000041484834    -0.000003438762    -0.000007575679
      25        0.000012276848     0.000022221464     0.000022330984

  **** Optimization is complete! (in 10 steps) ****
    Final optimized geometry and variables:
    Molecular point group: c1

    Geometry (in Angstrom), charge = 0, multiplicity = 1:

    O            3.655358072802    -0.001472270511     0.816511816548
    C            2.869064414685     0.089016928436    -0.069646041055
    C            1.570156538182    -0.691076530314    -0.049481503732
    C            3.132903006735     0.990682934007    -1.255434982668
    C            0.318342440986     0.192107230519    -0.038161370832
    H            1.548168347622    -1.336602591809    -0.923944133118
    H            1.592671668664    -1.322365479477     0.828319227098
    C           -0.967096522507    -0.622880703984     0.075113417611
    H            0.279368758770     0.793943863337    -0.940528429685
    H            0.379103465037     0.885891089266     0.795728154358
    C           -2.226362539153     0.238596125180     0.091047494434
    H           -1.020704864660    -1.323828072914    -0.754377571571
    H           -0.930218092848    -1.223646798083     0.979797475478
    C           -3.513190603173    -0.573066162612     0.210103465476
    H           -2.264238122319     0.838000902976    -0.815631110784
    H           -2.169495736964     0.942120512368     0.918168732399
    C           -4.768119262544     0.293147314319     0.228737914513
    H           -3.572485091435    -1.274975684458    -0.617244384162
    H           -3.476199442731    -1.172605611829     1.115429709830
    H           -4.852535404878     0.879721452219    -0.680088928056
    H           -5.662350921759    -0.313234827698     0.314619963447
    H           -4.754996768731     0.983136733367     1.065851549126
    H            2.511537217857     1.876415420810    -1.183924133842
    H            4.169698777942     1.289993038903    -1.256045250780
    H            2.887167104083     0.495299151146    -2.187363136602

  Mulliken Charges: (a.u.)
   Center  Symbol    Alpha    Beta     Spin     Total
       1     O     4.17308  4.17308  0.00000 -0.34616
       2     C     2.85801  2.85801  0.00000  0.28399
       3     C     3.09642  3.09642  0.00000 -0.19284
       4     C     3.16367  3.16367  0.00000 -0.32733
       5     C     3.10782  3.10782  0.00000 -0.21565
       6     H     0.44828  0.44828  0.00000  0.10343
       7     H     0.43860  0.43860  0.00000  0.12280
       8     C     3.08976  3.08976  0.00000 -0.17952
       9     H     0.45050  0.45050  0.00000  0.09900
      10     H     0.44513  0.44513  0.00000  0.10973
      11     C     3.08593  3.08593  0.00000 -0.17185
      12     H     0.45371  0.45371  0.00000  0.09258
      13     H     0.44995  0.44995  0.00000  0.10009
      14     C     3.08516  3.08516  0.00000 -0.17032
      15     H     0.45516  0.45516  0.00000  0.08967
      16     H     0.45360  0.45360  0.00000  0.09280
      17     C     3.15032  3.15032  0.00000 -0.30065
      18     H     0.45441  0.45441  0.00000  0.09118
      19     H     0.45358  0.45358  0.00000  0.09284
      20     H     0.45520  0.45520  0.00000  0.08960
      21     H     0.44774  0.44774  0.00000  0.10451
      22     H     0.45458  0.45458  0.00000  0.09085
      23     H     0.44762  0.44762  0.00000  0.10476
      24     H     0.43254  0.43254  0.00000  0.13492
      25     H     0.44922  0.44922  0.00000  0.10156

   Total alpha = 36.00000, Total beta = 36.00000, Total charge = -0.00000

*** Psi4 exiting successfully. Buy a developer a beer!
