  ==> Input File <==

--------------------------------------------------------------------------
set {
	reference rhf
	basis cc-pvtz
}

set_num_threads( 4 )
memory 2 gb

molecule MOL {
0 1

H	 -2.698799	 -0.000846	 0.036018
C	 -1.694291	 -0.000483	 0.434279
O	 -0.828718	 -0.000608	 -0.655022
H	 -1.576855	 0.881100	 1.056504
H	 -1.576401	 -0.881658	 1.057001
C	 0.557892	 0.000078	 -0.420099
C	 0.966056	 0.980399	 0.673813
C	 1.111753	 -1.399713	 -0.179118
H	 0.967191	 0.360397	 -1.355654
H	 0.525428	 1.952950	 0.492014
H	 2.044129	 1.091771	 0.683860
H	 0.663576	 0.644636	 1.658877
H	 0.772238	 -2.077745	 -0.952453
H	 2.195137	 -1.374868	 -0.199961
H	 0.813048	 -1.798660	 0.783254

	symmetry c1
}
set optking {
	frozen_dihedral = ("
		9 6 3 2
	")
}

ee = optimize('scf')
oeprop('DIPOLE', 'QUADRUPOLE', 'MULLIKEN_CHARGES')
f=open( 'psi4out.xyz', 'w' )
f.write( "15  " )
f.write( str(ee) + "\n" )
f.write( MOL.save_string_xyz() )
f.close()
--------------------------------------------------------------------------

    Molecular point group: c1
  Charge       = 0
  Multiplicity = 1
  Basis Set: CC-PVTZ
  Basis Set:
  @DF-RHF Final Energy:  -232.22496659680195
    Total Energy =                       -232.2249665968021759
    Molecular point group: c1
  Basis Set: CC-PVTZ
  Basis Set:
  Basis Set: CC-PVTZ
  Basis Set:
  @DF-RHF Final Energy:  -232.22535293887449
    Total Energy =                       -232.2253529388743800
  Basis Set: CC-PVTZ
  Basis Set:
  Basis Set: CC-PVTZ
  Basis Set:
  @DF-RHF Final Energy:  -232.22547139132911
    Total Energy =                       -232.2254713913291084
  Basis Set: CC-PVTZ
  Basis Set:
  Basis Set: CC-PVTZ
  Basis Set:
  @DF-RHF Final Energy:  -232.22548560409126
    Total Energy =                       -232.2254856040911477
  Basis Set: CC-PVTZ
  Basis Set:
  Basis Set: CC-PVTZ
  Basis Set:
  @DF-RHF Final Energy:  -232.22548935760361
    Total Energy =                       -232.2254893576036352
  Basis Set: CC-PVTZ
  Basis Set:
  Charge       = 0
  Multiplicity = 1
  Basis Set: CC-PVTZ
  Basis Set:

    Orbital Energies (a.u.)
    -----------------------

    Doubly Occupied:

       1A    -20.541228     2A    -11.272697     3A    -11.259074
       4A    -11.210950     5A    -11.206623     6A     -1.372885
       7A     -1.051827     8A     -0.943444     9A     -0.927931
      10A     -0.781430    11A     -0.676251    12A     -0.643338
      13A     -0.634522    14A     -0.575726    15A     -0.560174
      16A     -0.552656    17A     -0.534611    18A     -0.502478
      19A     -0.495736    20A     -0.445493    21A     -0.407535

  @DF-RHF Final Energy:  -232.22548966713651

   => Energetics <=

    Nuclear Repulsion Energy =            199.0207826720125581
    One-Electron Energy =                -709.2993278969308903
    Two-Electron Energy =                 278.0530555577818177
    DFT Exchange-Correlation Energy =       0.0000000000000000
    Empirical Dispersion Energy =           0.0000000000000000
    PCM Polarization Energy =               0.0000000000000000
    EFP Energy =                            0.0000000000000000
    Total Energy =                       -232.2254896671365145
    Molecular point group: c1
  Basis Set: CC-PVTZ
  Basis Set:

  -Total Gradient:
     Atom            X                  Y                   Z
    ------   -----------------  -----------------  -----------------
       1        0.000001834922    -0.000003211042     0.000004348241
       2       -0.000019171308     0.002093629904     0.000029383192
       3        0.000032105832    -0.002707722053     0.000139567991
       4       -0.000007800431     0.000008477389     0.000013102314
       5       -0.000005011250     0.000004045365    -0.000010707471
       6        0.000177644605    -0.001626977213    -0.001061767248
       7       -0.000001779564    -0.000023915464     0.000002922162
       8       -0.000014103091    -0.000004655424     0.000037693904
       9       -0.000129768370     0.002274352607     0.000842407220
      10       -0.000015905099    -0.000007942067     0.000002568189
      11        0.000000694493     0.000002149888    -0.000001317295
      12        0.000006509502    -0.000000531593    -0.000006191740
      13       -0.000003261088     0.000001261865    -0.000004171178
      14       -0.000030324111     0.000016034046    -0.000005962266
      15        0.000008334957    -0.000024996208     0.000018123985

  **** Optimization is complete! (in 6 steps) ****
    Final optimized geometry and variables:
    Molecular point group: c1

    Geometry (in Angstrom), charge = 0, multiplicity = 1:

    H           -2.692992871514    -0.074104160944     0.058732163061
    C           -1.696479226678     0.067838619902     0.452057430974
    O           -0.831229311167     0.089032886232    -0.636969450894
    H           -1.679108533050     0.998879359744     1.008772576723
    H           -1.484343853767    -0.748040915651     1.137672017790
    C            0.557658799259     0.097992932821    -0.406466166327
    C            0.990288136707     1.064489300925     0.690878734926
    C            1.080589699319    -1.313349080706    -0.173383460876
    H            0.969968514078     0.473221108035    -1.335203595612
    H            0.580842340575     2.052305569103     0.516967941098
    H            2.070824132140     1.144634419798     0.692392856759
    H            0.684584379276     0.733805927825     1.676564486576
    H            0.772200352252    -1.963204387218    -0.982351762033
    H            2.163803081350    -1.313881823194    -0.126008862529
    H            0.708586947482    -1.728028736084     0.757054650833

  Mulliken Charges: (a.u.)
   Center  Symbol    Alpha    Beta     Spin     Total
       1     H     0.44174  0.44174  0.00000  0.11651
       2     C     3.03943  3.03943  0.00000 -0.07885
       3     O     4.18504  4.18504  0.00000 -0.37008
       4     H     0.46769  0.46769  0.00000  0.06461
       5     H     0.47098  0.47098  0.00000  0.05803
       6     C     2.93388  2.93388  0.00000  0.13224
       7     C     3.16618  3.16618  0.00000 -0.33236
       8     C     3.14779  3.14779  0.00000 -0.29559
       9     H     0.44755  0.44755  0.00000  0.10490
      10     H     0.44403  0.44403  0.00000  0.11195
      11     H     0.44640  0.44640  0.00000  0.10720
      12     H     0.45316  0.45316  0.00000  0.09367
      13     H     0.44551  0.44551  0.00000  0.10898
      14     H     0.45386  0.45386  0.00000  0.09228
      15     H     0.45674  0.45674  0.00000  0.08651

   Total alpha = 21.00000, Total beta = 21.00000, Total charge = -0.00000
