  ==> Input File <==

--------------------------------------------------------------------------
set {
	reference rhf
	basis 6-31G*
}

set_num_threads( 4 )
memory 2 gb

molecule MOL {
0 1

H	 -2.798360	 -0.862255	 -0.071053
N	 -1.863561	 -0.715187	 0.256814
C	 -1.344686	 0.554728	 -0.219830
H	 -1.300452	 -1.461917	 -0.101532
C	 -1.334835	 0.573636	 -1.733990
H	 -1.909754	 1.419320	 0.131141
H	 -0.324305	 0.667248	 0.133642
O	 -2.658447	 0.507360	 -2.182038
H	 -0.862290	 1.486419	 -2.096158
H	 -0.767362	 -0.276267	 -2.106648
C	 -2.793304	 0.430723	 -3.565335
H	 -3.850309	 0.386021	 -3.789923
H	 -2.366596	 1.303848	 -4.055800
H	 -2.310021	 -0.459189	 -3.963207

	symmetry c1
}
set optking {
	frozen_dihedral = ("
		6 3 2 4
	")
}

ee = optimize('scf')
oeprop('DIPOLE', 'QUADRUPOLE', 'MULLIKEN_CHARGES')
f=open( 'psi4out.xyz', 'w' )
f.write( "14  " )
f.write( str(ee) + "\n" )
f.write( MOL.save_string_xyz() )
f.close()
--------------------------------------------------------------------------

    Molecular point group: c1
  Charge       = 0
  Multiplicity = 1
  Basis Set: 6-31G*
  Basis Set:
  @DF-RHF Final Energy:  -248.12223744120638
    Total Energy =                       -248.1222374412063800
    Molecular point group: c1
  Basis Set: 6-31G*
  Basis Set:
  Basis Set: 6-31G*
  Basis Set:
  @DF-RHF Final Energy:  -248.12454177258670
    Total Energy =                       -248.1245417725867810
  Basis Set: 6-31G*
  Basis Set:
  Basis Set: 6-31G*
  Basis Set:
  @DF-RHF Final Energy:  -248.12485101129246
    Total Energy =                       -248.1248510112922077
  Basis Set: 6-31G*
  Basis Set:
  Basis Set: 6-31G*
  Basis Set:
  @DF-RHF Final Energy:  -248.12485604978090
    Total Energy =                       -248.1248560497808739
  Basis Set: 6-31G*
  Basis Set:
  Charge       = 0
  Multiplicity = 1
  Basis Set: 6-31G*
  Basis Set:

    Orbital Energies (a.u.)
    -----------------------

    Doubly Occupied:

       1A    -20.561638     2A    -15.529744     3A    -11.270286
       4A    -11.269578     5A    -11.241472     6A     -1.385880
       7A     -1.175183     8A     -1.000390     9A     -0.910225
      10A     -0.823603    11A     -0.685835    12A     -0.671675
      13A     -0.645244    14A     -0.636581    15A     -0.583806
      16A     -0.550047    17A     -0.522817    18A     -0.507253
      19A     -0.479509    20A     -0.421961    21A     -0.380493

  @DF-RHF Final Energy:  -248.12485673497835

   => Energetics <=

    Nuclear Repulsion Energy =            194.2834657518720007
    One-Electron Energy =                -722.3102056364091368
    Two-Electron Energy =                 279.9018831495591257
    DFT Exchange-Correlation Energy =       0.0000000000000000
    Empirical Dispersion Energy =           0.0000000000000000
    PCM Polarization Energy =               0.0000000000000000
    EFP Energy =                            0.0000000000000000
    Total Energy =                       -248.1248567349780387
    Molecular point group: c1
  Basis Set: 6-31G*
  Basis Set:

  -Total Gradient:
     Atom            X                  Y                   Z
    ------   -----------------  -----------------  -----------------
       1       -0.000031267625    -0.000027864901     0.000010353572
       2        0.000369866878     0.000052938478     0.000463430668
       3        0.000360430826    -0.000011667073     0.000405786004
       4       -0.000365257190    -0.000028060229    -0.000473527050
       5        0.000051047485     0.000046573128     0.000067101276
       6       -0.000338863726    -0.000020308294    -0.000458583121
       7        0.000003896417     0.000000641542    -0.000014935399
       8        0.000000028950    -0.000027090159    -0.000002539392
       9        0.000000847125     0.000013844934    -0.000014614235
      10       -0.000054411178     0.000011886582     0.000014195772
      11        0.000006713670    -0.000010093329    -0.000000353511
      12       -0.000001617239    -0.000001836391    -0.000000051687
      13        0.000000774266     0.000000891346     0.000007144265
      14       -0.000002188661     0.000000144366    -0.000003407160

  **** Optimization is complete! (in 5 steps) ****
    Final optimized geometry and variables:
    Molecular point group: c1

    Geometry (in Angstrom), charge = 0, multiplicity = 1:

    H           -0.806062956386    -1.061334589826     1.547483062681
    N            0.138456604384    -0.934107903169     1.856489628167
    C            0.677944595478     0.279281016554     1.271893534787
    H            0.653103886705    -1.735477837483     1.542552666692
    C            0.677110244243     0.321140358151    -0.248702348271
    H            0.094008817608     1.116944613629     1.636998919664
    H            1.694864420365     0.417088036101     1.626755018515
    O           -0.642297846140     0.206484481704    -0.692959164835
    H            1.115887180066     1.255353732992    -0.600631610535
    H            1.279367347235    -0.495717961758    -0.650514764293
    C           -0.787616382961     0.205265645846    -2.077493086831
    H           -1.842555862768     0.112371612381    -2.296365926616
    H           -0.416872366427     1.129119096794    -2.517186260040
    H           -0.258164595555    -0.629760200885    -2.532651347405

  Mulliken Charges: (a.u.)
   Center  Symbol    Alpha    Beta     Spin     Total
       1     H     0.32499  0.32499  0.00000  0.35002
       2     N     3.91705  3.91705  0.00000 -0.83410
       3     C     3.07221  3.07221  0.00000 -0.14442
       4     H     0.33728  0.33728  0.00000  0.32543
       5     C     2.99551  2.99551  0.00000  0.00899
       6     H     0.41156  0.41156  0.00000  0.17687
       7     H     0.41904  0.41904  0.00000  0.16193
       8     O     4.30674  4.30674  0.00000 -0.61347
       9     H     0.43111  0.43111  0.00000  0.13778
      10     H     0.43586  0.43586  0.00000  0.12827
      11     C     3.07914  3.07914  0.00000 -0.15828
      12     H     0.41139  0.41139  0.00000  0.17721
      13     H     0.42860  0.42860  0.00000  0.14280
      14     H     0.42952  0.42952  0.00000  0.14095

   Total alpha = 21.00000, Total beta = 21.00000, Total charge = -0.00000
