  ==> Input File <==

--------------------------------------------------------------------------
set {
	reference rhf
	basis 6-31G*
}

set_num_threads( 1 )
memory 2 gb

molecule MOL {
0 1

H	 3.463771	 0.168298	 -0.756243
C	 2.752674	 -0.045734	 0.033351
C	 1.322923	 0.120767	 -0.479465
H	 2.934561	 -1.059086	 0.377456
H	 2.958358	 0.631174	 0.856809
C	 0.306652	 -0.176050	 0.621399
H	 1.144658	 -0.551717	 -1.312180
H	 1.166477	 1.131798	 -0.836680
N	 -1.068537	 -0.011044	 0.085269
H	 0.372515	 -1.192590	 0.973735
H	 0.391664	 0.520566	 1.441230
O	 -1.725613	 -0.995420	 -0.058353
O	 -1.410221	 1.097220	 -0.195851

	symmetry c1
}
set optking {
	frozen_dihedral = ("
		7 3 6 9
	")
}

ee = energy('scf')
oeprop('DIPOLE', 'QUADRUPOLE', 'MULLIKEN_CHARGES')
f=open( 'psi4out.xyz', 'w' )
f.write( "13  " )
f.write( str(ee) + "\n" )
f.write( MOL.save_string_xyz() )
f.close()
--------------------------------------------------------------------------

    Molecular point group: c1

    Geometry (in Angstrom), charge = 0, multiplicity = 1:

       Center              X                  Y                   Z               Mass
    ------------   -----------------  -----------------  -----------------  -----------------
           H          3.463815099397     0.169341032086    -0.756034422513     1.007825032070
           C          2.752718099397    -0.044690967914     0.033559577487    12.000000000000
           C          1.322967099397     0.121810032086    -0.479256422513    12.000000000000
           H          2.934605099397    -1.058042967914     0.377664577487     1.007825032070
           H          2.958402099397     0.632217032086     0.857017577487     1.007825032070
           C          0.306696099397    -0.175006967914     0.621607577487    12.000000000000
           H          1.144702099397    -0.550673967914    -1.311971422513     1.007825032070
           H          1.166521099397     1.132841032086    -0.836471422513     1.007825032070
           N         -1.068492900603    -0.010000967914     0.085477577487    14.003074004780
           H          0.372559099397    -1.191546967914     0.973943577487     1.007825032070
           H          0.391708099397     0.521609032086     1.441438577487     1.007825032070
           O         -1.725568900603    -0.994376967914    -0.058144422513    15.994914619560
           O         -1.410176900603     1.098263032086    -0.195642422513    15.994914619560

  Charge       = 0
  Multiplicity = 1
  Basis Set: 6-31G*
  Basis Set:

    Orbital Energies (a.u.)
    -----------------------

    Doubly Occupied:

       1A    -20.602496     2A    -20.599217     3A    -15.847157
       4A    -11.299248     5A    -11.255927     6A    -11.239466
       7A     -1.630754     8A     -1.416332     9A     -1.135192
      10A     -1.028192    11A     -0.883953    12A     -0.832356
      13A     -0.758945    14A     -0.735909    15A     -0.723355
      16A     -0.670990    17A     -0.604612    18A     -0.587885
      19A     -0.550387    20A     -0.521632    21A     -0.513752
      22A     -0.484196    23A     -0.473521    24A     -0.448181

  @DF-RHF Final Energy:  -321.73553042967706

   => Energetics <=

    Nuclear Repulsion Energy =            247.5136000689483637
    One-Electron Energy =                -928.8110040209664930
    Two-Electron Energy =                 359.5618735223407612
    DFT Exchange-Correlation Energy =       0.0000000000000000
    Empirical Dispersion Energy =           0.0000000000000000
    PCM Polarization Energy =               0.0000000000000000
    EFP Energy =                            0.0000000000000000
    Total Energy =                       -321.7355304296773966

  Mulliken Charges: (a.u.)
   Center  Symbol    Alpha    Beta     Spin     Total
       1     H     0.40739  0.40739  0.00000  0.18523
       2     C     3.24820  3.24820  0.00000 -0.49641
       3     C     3.17311  3.17311  0.00000 -0.34622
       4     H     0.41502  0.41502  0.00000  0.16996
       5     H     0.41488  0.41488  0.00000  0.17023
       6     C     3.08444  3.08444  0.00000 -0.16888
       7     H     0.40302  0.40302  0.00000  0.19397
       8     H     0.39490  0.39490  0.00000  0.21020
       9     N     3.22313  3.22313  0.00000  0.55374
      10     H     0.38680  0.38680  0.00000  0.22639
      11     H     0.38894  0.38894  0.00000  0.22211
      12     O     4.22873  4.22873  0.00000 -0.45747
      13     O     4.23143  4.23143  0.00000 -0.46286

   Total alpha = 24.00000, Total beta = 24.00000, Total charge =  0.00000
