  ==> Input File <==

--------------------------------------------------------------------------
set {
	reference rhf
	basis cc-pvtz
}

set_num_threads( 4 )
memory 2 gb

molecule MOL {
0 1

H	 -3.162190	 0.493205	 -0.000107
C	 -2.363908	 -0.234727	 0.000005
O	 -1.158738	 0.454634	 -0.000087
H	 -2.464314	 -0.863616	 -0.882153
H	 -2.464327	 -0.863359	 0.882345
C	 -0.028611	 -0.359694	 0.000037
C	 -0.274202	 -1.554280	 0.899505
H	 0.837324	 0.202581	 0.350237
H	 0.192621	 -0.692349	 -1.014379
C	 0.921808	 -2.498208	 0.953477
H	 -0.511305	 -1.194449	 1.894607
H	 -1.150843	 -2.082283	 0.540806
H	 1.805234	 -1.995744	 1.333179
H	 0.719389	 -3.341459	 1.602302
H	 1.161234	 -2.889740	 -0.029603

	symmetry c1
}
set optking {
	frozen_dihedral = ("
		8 6 3 2
	")
}

ee = optimize('scf')
oeprop('DIPOLE', 'QUADRUPOLE', 'MULLIKEN_CHARGES')
f=open( 'psi4out.xyz', 'w' )
f.write( "15  " )
f.write( str(ee) + "\n" )
f.write( MOL.save_string_xyz() )
f.close()
--------------------------------------------------------------------------

    Molecular point group: c1
  Charge       = 0
  Multiplicity = 1
  Basis Set: CC-PVTZ
  Basis Set:
  @DF-RHF Final Energy:  -232.21225602089353
    Total Energy =                       -232.2122560208936193
    Molecular point group: c1
  Basis Set: CC-PVTZ
  Basis Set:
  Basis Set: CC-PVTZ
  Basis Set:
  @DF-RHF Final Energy:  -232.21210033428278
    Total Energy =                       -232.2121003342826953
  Basis Set: CC-PVTZ
  Basis Set:
  Basis Set: CC-PVTZ
  Basis Set:
  @DF-RHF Final Energy:  -232.21999313207209
    Total Energy =                       -232.2199931320716928
  Basis Set: CC-PVTZ
  Basis Set:
  Basis Set: CC-PVTZ
  Basis Set:
  @DF-RHF Final Energy:  -232.22148131741892
    Total Energy =                       -232.2214813174189203
  Basis Set: CC-PVTZ
  Basis Set:
  Basis Set: CC-PVTZ
  Basis Set:
  @DF-RHF Final Energy:  -232.22177757440872
    Total Energy =                       -232.2217775744088613
  Basis Set: CC-PVTZ
  Basis Set:
  Basis Set: CC-PVTZ
  Basis Set:
  @DF-RHF Final Energy:  -232.22186181568705
    Total Energy =                       -232.2218618156871344
  Basis Set: CC-PVTZ
  Basis Set:
  Basis Set: CC-PVTZ
  Basis Set:
  @DF-RHF Final Energy:  -232.22186785513708
    Total Energy =                       -232.2218678551369635
  Basis Set: CC-PVTZ
  Basis Set:
  Charge       = 0
  Multiplicity = 1
  Basis Set: CC-PVTZ
  Basis Set:

    Orbital Energies (a.u.)
    -----------------------

    Doubly Occupied:

       1A    -20.543720     2A    -11.264384     3A    -11.260217
       4A    -11.218356     5A    -11.214390     6A     -1.374642
       7A     -1.059124     8A     -0.962003     9A     -0.885914
      10A     -0.799122    11A     -0.673713    12A     -0.660885
      13A     -0.630595    14A     -0.606458    15A     -0.562365
      16A     -0.535587    17A     -0.525098    18A     -0.499309
      19A     -0.489772    20A     -0.447767    21A     -0.408992

  @DF-RHF Final Energy:  -232.22186841277409

   => Energetics <=

    Nuclear Repulsion Energy =            192.4624335632166208
    One-Electron Energy =                -696.1237768121634417
    Two-Electron Energy =                 271.4394748361727352
    DFT Exchange-Correlation Energy =       0.0000000000000000
    Empirical Dispersion Energy =           0.0000000000000000
    PCM Polarization Energy =               0.0000000000000000
    EFP Energy =                            0.0000000000000000
    Total Energy =                       -232.2218684127740858
    Molecular point group: c1
  Basis Set: CC-PVTZ
  Basis Set:

  -Total Gradient:
     Atom            X                  Y                   Z
    ------   -----------------  -----------------  -----------------
       1       -0.000018717420    -0.000007408437     0.000008465793
       2       -0.000096279703     0.000008454163     0.004229313252
       3       -0.000146391013    -0.000261019210    -0.005249618295
       4        0.000008677129    -0.000012114015    -0.000004476066
       5        0.000009789519     0.000004792799    -0.000013349581
       6        0.001376847494     0.001614542882    -0.003584218936
       7       -0.000006102529    -0.000013874583    -0.000007728263
       8       -0.001137343263    -0.001351908589     0.004622525858
       9        0.000014436665    -0.000018145938     0.000008279086
      10        0.000002589337     0.000014255304    -0.000005383168
      11       -0.000000500848     0.000005011021     0.000001008042
      12       -0.000002221506     0.000010384331    -0.000006870468
      13        0.000006069911    -0.000000008032     0.000000852818
      14       -0.000005784099     0.000004901191     0.000000265930
      15       -0.000005069672     0.000002137115     0.000000933998

  **** Optimization is complete! (in 8 steps) ****
    Final optimized geometry and variables:
    Molecular point group: c1

    Geometry (in Angstrom), charge = 0, multiplicity = 1:

    H           -2.531725637170     1.585130883811    -0.532029447918
    C           -1.853540218572     0.755334558884    -0.393069402987
    O           -0.567030039121     1.281002644654    -0.367274744415
    H           -1.992830703394     0.058218590599    -1.217397212053
    H           -2.112779803778     0.252000683818     0.531914343204
    C            0.511997473459     0.390261828623    -0.353255228395
    C            0.357955959287    -0.830642579165     0.547203576741
    H            1.350505182538     0.963052789459     0.022082562831
    H            0.737822751813     0.068759395921    -1.369019880354
    C            1.651728064165    -1.637531305591     0.602462465987
    H            0.086923251629    -0.503583935172     1.546211882411
    H           -0.443624193466    -1.469494377224     0.194350385035
    H            2.469100879063    -1.044949818999     0.998717842732
    H            1.538339649397    -2.508908834182     1.235714454852
    H            1.942003090084    -1.982963268766    -0.384145298099

  Mulliken Charges: (a.u.)
   Center  Symbol    Alpha    Beta     Spin     Total
       1     H     0.44340  0.44340  0.00000  0.11320
       2     C     3.03639  3.03639  0.00000 -0.07278
       3     O     4.17736  4.17736  0.00000 -0.35472
       4     H     0.47303  0.47303  0.00000  0.05395
       5     H     0.46826  0.46826  0.00000  0.06347
       6     C     2.96766  2.96766  0.00000  0.06469
       7     C     3.09965  3.09965  0.00000 -0.19930
       8     H     0.45589  0.45589  0.00000  0.08822
       9     H     0.46892  0.46892  0.00000  0.06216
      10     C     3.15257  3.15257  0.00000 -0.30514
      11     H     0.44934  0.44934  0.00000  0.10132
      12     H     0.45283  0.45283  0.00000  0.09434
      13     H     0.45343  0.45343  0.00000  0.09314
      14     H     0.44652  0.44652  0.00000  0.10696
      15     H     0.45476  0.45476  0.00000  0.09048

   Total alpha = 21.00000, Total beta = 21.00000, Total charge = -0.00000
