  ==> Input File <==

--------------------------------------------------------------------------
set {
	reference rhf
	basis 6-31G*
}

set_num_threads( 4 )
memory 2 gb

molecule MOL {
0 1

H	 2.366820	 -0.624721	 -0.615180
C	 1.951159	 -0.223429	 0.317018
C	 0.692068	 0.589600	 0.160137
O	 2.490576	 -0.441001	 1.353272
C	 -0.558097	 -0.297372	 0.091132
H	 0.791645	 1.202255	 -0.728243
H	 0.616171	 1.253469	 1.020572
C	 -1.850991	 0.512573	 -0.019058
H	 -0.476753	 -0.965681	 -0.762987
H	 -0.604799	 -0.930658	 0.975228
C	 -3.096943	 -0.368295	 -0.099594
H	 -1.800724	 1.150330	 -0.898172
H	 -1.931651	 1.177355	 0.838044
H	 -3.060452	 -1.020287	 -0.967456
H	 -3.996858	 0.233488	 -0.175704
H	 -3.191959	 -0.995686	 0.782074

	symmetry c1
}
set optking {
	frozen_dihedral = ("
		4 2 3 6
	")
}

ee = optimize('scf')
oeprop('DIPOLE', 'QUADRUPOLE', 'MULLIKEN_CHARGES')
f=open( 'psi4out.xyz', 'w' )
f.write( "16  " )
f.write( str(ee) + "\n" )
f.write( MOL.save_string_xyz() )
f.close()
--------------------------------------------------------------------------

    Molecular point group: c1
  Charge       = 0
  Multiplicity = 1
  Basis Set: 6-31G*
  Basis Set:
  @DF-RHF Final Energy:  -270.01905358104125
    Total Energy =                       -270.0190535810413621
    Molecular point group: c1
  Basis Set: 6-31G*
  Basis Set:
  Basis Set: 6-31G*
  Basis Set:
  @DF-RHF Final Energy:  -270.01853315679972
    Total Energy =                       -270.0185331567996627
  Basis Set: 6-31G*
  Basis Set:
  Basis Set: 6-31G*
  Basis Set:
  @DF-RHF Final Energy:  -270.01910270746464
    Total Energy =                       -270.0191027074644694
  Basis Set: 6-31G*
  Basis Set:
  Basis Set: 6-31G*
  Basis Set:
  @DF-RHF Final Energy:  -270.01947689733316
    Total Energy =                       -270.0194768973329360
  Basis Set: 6-31G*
  Basis Set:
  Basis Set: 6-31G*
  Basis Set:
  @DF-RHF Final Energy:  -270.01948567662669
    Total Energy =                       -270.0194856766269140
  Basis Set: 6-31G*
  Basis Set:
  Basis Set: 6-31G*
  Basis Set:
  @DF-RHF Final Energy:  -270.01948893377164
    Total Energy =                       -270.0194889337718109
  Basis Set: 6-31G*
  Basis Set:
  Charge       = 0
  Multiplicity = 1
  Basis Set: 6-31G*
  Basis Set:

    Orbital Energies (a.u.)
    -----------------------

    Doubly Occupied:

       1A    -20.562307     2A    -11.326412     3A    -11.236296
       4A    -11.234799     5A    -11.228640     6A    -11.217745
       7A     -1.402182     8A     -1.095415     9A     -1.018031
      10A     -0.905778    11A     -0.812268    12A     -0.790630
      13A     -0.681173    14A     -0.645866    15A     -0.629002
      16A     -0.602445    17A     -0.578621    18A     -0.551935
      19A     -0.525158    20A     -0.512903    21A     -0.487027
      22A     -0.480016    23A     -0.476750    24A     -0.408536

  @DF-RHF Final Energy:  -270.01948933204460

   => Energetics <=

    Nuclear Repulsion Energy =            229.7135216254741010
    One-Electron Energy =                -820.6461515470807626
    Two-Electron Energy =                 320.9131405895619764
    DFT Exchange-Correlation Energy =       0.0000000000000000
    Empirical Dispersion Energy =           0.0000000000000000
    PCM Polarization Energy =               0.0000000000000000
    EFP Energy =                            0.0000000000000000
    Total Energy =                       -270.0194893320447136
    Molecular point group: c1
  Basis Set: 6-31G*
  Basis Set:

  -Total Gradient:
     Atom            X                  Y                   Z
    ------   -----------------  -----------------  -----------------
       1       -0.000007784251     0.000006995425     0.000005743949
       2        0.000744682678     0.001088134099    -0.000348060349
       3        0.000301097217     0.000524597021     0.000715925860
       4       -0.000588617885    -0.000873416742     0.000158702278
       5        0.000008119675    -0.000000992569    -0.000003935935
       6       -0.000452730463    -0.000740119365    -0.000536566875
       7        0.000006284308    -0.000003281407     0.000004076607
       8       -0.000003405715    -0.000003153061    -0.000001888014
       9        0.000007849390     0.000001185553    -0.000001181511
      10       -0.000010530749    -0.000002903939    -0.000000737112
      11       -0.000003381672     0.000004221820     0.000012029484
      12        0.000005325544    -0.000003157040    -0.000000899230
      13       -0.000006013930     0.000002514882    -0.000003190105
      14        0.000000952333     0.000004220896    -0.000001371974
      15       -0.000001712478    -0.000000990163     0.000002347156
      16       -0.000000134007    -0.000003855409    -0.000000994227

  **** Optimization is complete! (in 7 steps) ****
    Final optimized geometry and variables:
    Molecular point group: c1

    Geometry (in Angstrom), charge = 0, multiplicity = 1:

    H            2.351283600896    -0.621753617980    -0.948412472706
    C            2.004272699433    -0.180543138149    -0.006777437034
    C            0.754833413125     0.656586508286    -0.102658946568
    O            2.580908150107    -0.408211988394     1.007349545588
    C           -0.490082231647    -0.241436743321    -0.193077213167
    H            0.812344459790     1.279116565208    -0.992588740264
    H            0.700577962118     1.296422879630     0.770313971171
    C           -1.784960538760     0.560448820486    -0.333001968317
    H           -0.391776213393    -0.917035656731    -1.041015048527
    H           -0.540002947475    -0.864610235978     0.695824480924
    C           -3.025206176884    -0.328630687366    -0.411387256022
    H           -1.728161379432     1.183113191813    -1.223036096041
    H           -1.878490720865     1.239338095181     0.511146988892
    H           -2.976113246986    -0.996768929929    -1.266435601436
    H           -3.927243461439     0.266955095975    -0.508506554294
    H           -3.126350920346    -0.939796609622     0.480633307644

  Mulliken Charges: (a.u.)
   Center  Symbol    Alpha    Beta     Spin     Total
       1     H     0.43091  0.43091  0.00000  0.13817
       2     C     2.83504  2.83504  0.00000  0.32992
       3     C     3.20311  3.20311  0.00000 -0.40622
       4     O     4.23637  4.23637  0.00000 -0.47274
       5     C     3.16398  3.16398  0.00000 -0.32795
       6     H     0.41415  0.41415  0.00000  0.17170
       7     H     0.39998  0.39998  0.00000  0.20003
       8     C     3.15162  3.15162  0.00000 -0.30324
       9     H     0.41910  0.41910  0.00000  0.16181
      10     H     0.40950  0.40950  0.00000  0.18100
      11     C     3.24058  3.24058  0.00000 -0.48116
      12     H     0.42118  0.42118  0.00000  0.15764
      13     H     0.41845  0.41845  0.00000  0.16311
      14     H     0.42056  0.42056  0.00000  0.15887
      15     H     0.41662  0.41662  0.00000  0.16677
      16     H     0.41885  0.41885  0.00000  0.16229

   Total alpha = 24.00000, Total beta = 24.00000, Total charge = -0.00000
