  ==> Input File <==

--------------------------------------------------------------------------
set {
	reference rhf
	basis 6-31G*
}

set_num_threads( 4 )
memory 2 gb

molecule MOL {
0 1

O	 0.749854	 1.307668	 -0.000040
C	 0.576249	 0.131685	 -0.000108
C	 -0.766779	 -0.556801	 -0.000461
O	 1.568443	 -0.749345	 -0.000005
C	 -1.945214	 0.412366	 0.000161
H	 -0.796911	 -1.211249	 -0.867467
H	 -0.796854	 -1.212390	 0.865687
C	 -3.287791	 -0.317055	 0.000105
H	 -1.876087	 1.060580	 -0.866812
H	 -1.875822	 1.059691	 0.867761
H	 -3.394745	 -0.949193	 -0.877058
H	 -4.111778	 0.388953	 0.000015
H	 -3.394954	 -0.949187	 0.877259
C	 2.874122	 -0.246864	 -0.218919
H	 2.939132	 0.234424	 -1.184153
H	 3.529548	 -1.103015	 -0.183028
H	 3.142262	 0.462664	 0.550614

	symmetry c1
}
set optking {
	frozen_dihedral = ("
		14 4 2 1
	")
}

ee = optimize('scf')
oeprop('DIPOLE', 'QUADRUPOLE', 'MULLIKEN_CHARGES')
f=open( 'psi4out.xyz', 'w' )
f.write( "17  " )
f.write( str(ee) + "\n" )
f.write( MOL.save_string_xyz() )
f.close()
--------------------------------------------------------------------------

    Molecular point group: c1
  Charge       = 0
  Multiplicity = 1
  Basis Set: 6-31G*
  Basis Set:
  @DF-RHF Final Energy:  -344.90620751258217
    Total Energy =                       -344.9062075125822844
    Molecular point group: c1
  Basis Set: 6-31G*
  Basis Set:
  Basis Set: 6-31G*
  Basis Set:
  @DF-RHF Final Energy:  -344.90477641561415
    Total Energy =                       -344.9047764156136964
  Basis Set: 6-31G*
  Basis Set:
  Basis Set: 6-31G*
  Basis Set:
  @DF-RHF Final Energy:  -344.90628308391041
    Total Energy =                       -344.9062830839105800
  Basis Set: 6-31G*
  Basis Set:
  Basis Set: 6-31G*
  Basis Set:
  @DF-RHF Final Energy:  -344.90629090748610
    Total Energy =                       -344.9062909074860954
  Basis Set: 6-31G*
  Basis Set:
  Basis Set: 6-31G*
  Basis Set:
  @DF-RHF Final Energy:  -344.90629300246837
    Total Energy =                       -344.9062930024682032
  Basis Set: 6-31G*
  Basis Set:
  Basis Set: 6-31G*
  Basis Set:
  @DF-RHF Final Energy:  -344.90619319812737
    Total Energy =                       -344.9061931981272551
  Basis Set: 6-31G*
  Basis Set:
  Basis Set: 6-31G*
  Basis Set:
  @DF-RHF Final Energy:  -344.90629188258293
    Total Energy =                       -344.9062918825828774
  Basis Set: 6-31G*
  Basis Set:
  Charge       = 0
  Multiplicity = 1
  Basis Set: 6-31G*
  Basis Set:

    Orbital Energies (a.u.)
    -----------------------

    Doubly Occupied:

       1A    -20.603535     2A    -20.546150     3A    -11.372817
       4A    -11.281433     5A    -11.236142     6A    -11.222003
       7A    -11.214609     8A     -1.469327     9A     -1.363277
      10A     -1.080598    11A     -1.001320    12A     -0.940000
      13A     -0.827405    14A     -0.767309    15A     -0.700298
      16A     -0.683314    17A     -0.672293    18A     -0.636998
      19A     -0.595770    20A     -0.574908    21A     -0.568776
      22A     -0.527557    23A     -0.522119    24A     -0.498650
      25A     -0.487143    26A     -0.478860    27A     -0.456176
      28A     -0.438110

  @DF-RHF Final Energy:  -344.90629196641709

   => Energetics <=

    Nuclear Repulsion Energy =            312.4218642156142209
    One-Electron Energy =               -1089.1225202470657223
    Two-Electron Energy =                 431.7943640650340740
    DFT Exchange-Correlation Energy =       0.0000000000000000
    Empirical Dispersion Energy =           0.0000000000000000
    PCM Polarization Energy =               0.0000000000000000
    EFP Energy =                            0.0000000000000000
    Total Energy =                       -344.9062919664173705
    Molecular point group: c1
  Basis Set: 6-31G*
  Basis Set:

  -Total Gradient:
     Atom            X                  Y                   Z
    ------   -----------------  -----------------  -----------------
       1       -0.000096950775     0.000232582094     0.003621176098
       2       -0.000051747735    -0.000444924105    -0.006812593085
       3       -0.000115461422    -0.000008958750     0.000170050728
       4        0.000476625265     0.000666986015     0.005618332582
       5       -0.000012201070    -0.000005598942    -0.000005066434
       6       -0.000016064814    -0.000040634134    -0.000019635673
       7        0.000001654511     0.000058179030    -0.000024227596
       8        0.000005762177    -0.000000004940    -0.000010520919
       9       -0.000005057407    -0.000001093389    -0.000002152455
      10        0.000003591344     0.000005024407     0.000003285125
      11       -0.000007451366    -0.000005259862    -0.000002740068
      12        0.000005090160     0.000001129280     0.000001505335
      13        0.000006643853     0.000003874077    -0.000001907978
      14       -0.000140518372    -0.000405618652    -0.002215284835
      15       -0.000068893074    -0.000004862935    -0.000136463978
      16       -0.000008759109     0.000009521532    -0.000072623521
      17        0.000023737829    -0.000060340727    -0.000111133324

  **** Optimization is complete! (in 8 steps) ****
    Final optimized geometry and variables:
    Molecular point group: c1

    Geometry (in Angstrom), charge = 0, multiplicity = 1:

    O            0.749311233840     1.310342025331    -0.022905920082
    C            0.577127317296     0.134528145635     0.003016219985
    C           -0.765547521994    -0.554533478773     0.024553596041
    O            1.570868788641    -0.744599360351     0.050996452606
    C           -1.944479935178     0.413834605666     0.043215849208
    H           -0.809212344285    -1.208784184455    -0.842386395046
    H           -0.781104428297    -1.210501058065     0.890470762022
    C           -3.286443185692    -0.316437861917     0.061334793125
    H           -1.888094536834     1.063338856590    -0.823620014044
    H           -1.863173525166     1.059960468295     0.910795344505
    H           -3.406019797509    -0.946705804585    -0.815566609298
    H           -4.110752270683     0.389026116805     0.075012050337
    H           -3.380165290084    -0.950584619079     0.938533881390
    C            2.881290169826    -0.245810692077    -0.147685022259
    H            2.952067854828     0.260029572260    -1.100397953190
    H            3.530522945534    -1.107321149262    -0.133829053891
    H            3.153154838087     0.440866163854     0.640495447175

  Mulliken Charges: (a.u.)
   Center  Symbol    Alpha    Beta     Spin     Total
       1     O     4.28508  4.28508  0.00000 -0.57015
       2     C     2.60610  2.60610  0.00000  0.78781
       3     C     3.20624  3.20624  0.00000 -0.41247
       4     O     4.30729  4.30729  0.00000 -0.61457
       5     C     3.15194  3.15194  0.00000 -0.30389
       6     H     0.40167  0.40167  0.00000  0.19665
       7     H     0.40030  0.40030  0.00000  0.19940
       8     C     3.24277  3.24277  0.00000 -0.48554
       9     H     0.41071  0.41071  0.00000  0.17858
      10     H     0.41106  0.41106  0.00000  0.17789
      11     H     0.42144  0.42144  0.00000  0.15712
      12     H     0.41511  0.41511  0.00000  0.16978
      13     H     0.42126  0.42126  0.00000  0.15748
      14     C     3.09249  3.09249  0.00000 -0.18499
      15     H     0.41069  0.41069  0.00000  0.17862
      16     H     0.40826  0.40826  0.00000  0.18348
      17     H     0.40760  0.40760  0.00000  0.18480

   Total alpha = 28.00000, Total beta = 28.00000, Total charge = -0.00000
