  ==> Input File <==

--------------------------------------------------------------------------
set {
	reference rhf
	basis cc-pvtz
}

set_num_threads( 4 )
memory 2 gb

molecule MOL {
0 1

O	 -2.440701	 -0.934798	 -0.415053
C	 -1.922978	 0.063265	 -0.045005
C	 -2.632749	 1.372204	 0.158357
O	 -0.637375	 0.157174	 0.243149
H	 -2.187724	 2.129143	 -0.474664
H	 -3.677681	 1.257276	 -0.079438
H	 -2.516788	 1.693160	 1.185542
C	 0.162530	 -1.009518	 0.097799
C	 1.587210	 -0.664190	 0.477086
H	 0.096803	 -1.356267	 -0.924704
H	 -0.233803	 -1.785900	 0.736810
C	 2.256770	 0.342732	 -0.454344
H	 2.154716	 -1.590834	 0.479041
H	 1.598751	 -0.289614	 1.496104
C	 1.598384	 0.400747	 -1.828673
H	 2.224278	 1.327849	 0.003463
H	 3.304669	 0.088722	 -0.564928
H	 2.089961	 1.125161	 -2.467390
H	 0.553243	 0.682380	 -1.752800
H	 1.644713	 -0.562675	 -2.325351

	symmetry c1
}
set optking {
	frozen_dihedral = ("
		16 12 9 8
	")
}

ee = optimize('scf')
oeprop('DIPOLE', 'QUADRUPOLE', 'MULLIKEN_CHARGES')
f=open( 'psi4out.xyz', 'w' )
f.write( "20  " )
f.write( str(ee) + "\n" )
f.write( MOL.save_string_xyz() )
f.close()
--------------------------------------------------------------------------

    Molecular point group: c1
  Charge       = 0
  Multiplicity = 1
  Basis Set: CC-PVTZ
  Basis Set:
  @DF-RHF Final Energy:  -384.07754122455879
    Total Energy =                       -384.0775412245586722
    Molecular point group: c1
  Basis Set: CC-PVTZ
  Basis Set:
  Basis Set: CC-PVTZ
  Basis Set:
  @DF-RHF Final Energy:  -384.08007706593645
    Total Energy =                       -384.0800770659371892
  Basis Set: CC-PVTZ
  Basis Set:
  Basis Set: CC-PVTZ
  Basis Set:
  @DF-RHF Final Energy:  -384.08085608701197
    Total Energy =                       -384.0808560870119663
  Basis Set: CC-PVTZ
  Basis Set:
  Basis Set: CC-PVTZ
  Basis Set:
  @DF-RHF Final Energy:  -384.08095374760200
    Total Energy =                       -384.0809537476026208
  Basis Set: CC-PVTZ
  Basis Set:
  @DF-RHF Final Energy:  -384.08103029533436
    Total Energy =                       -384.0810302953343580
  Basis Set: CC-PVTZ
  Basis Set:
  @DF-RHF Final Energy:  -384.08106135099774
    Total Energy =                       -384.0810613509975155
  Basis Set: CC-PVTZ
  Basis Set:
  Basis Set: CC-PVTZ
  Basis Set:
  @DF-RHF Final Energy:  -384.08109346013430
    Total Energy =                       -384.0810934601344115
  Basis Set: CC-PVTZ
  Basis Set:
  Basis Set: CC-PVTZ
  Basis Set:
  @DF-RHF Final Energy:  -384.08109716194701
    Total Energy =                       -384.0810971619471275
  Basis Set: CC-PVTZ
  Basis Set:
  Charge       = 0
  Multiplicity = 1
  Basis Set: CC-PVTZ
  Basis Set:

    Orbital Energies (a.u.)
    -----------------------

    Doubly Occupied:

       1A    -20.593705     2A    -20.532470     3A    -11.366329
       4A    -11.279372     5A    -11.231529     6A    -11.224212
       7A    -11.220341     8A    -11.211192     9A     -1.470387
      10A     -1.364599    11A     -1.084595    12A     -1.027008
      13A     -0.980463    14A     -0.894530    15A     -0.804513
      16A     -0.771313    17A     -0.692741    18A     -0.691005
      19A     -0.665880    20A     -0.627484    21A     -0.616177
      22A     -0.580423    23A     -0.571812    24A     -0.561966
      25A     -0.540155    26A     -0.530050    27A     -0.523324
      28A     -0.480542    29A     -0.471813    30A     -0.470209
      31A     -0.452279    32A     -0.440794

  @DF-RHF Final Energy:  -384.08109729810155

   => Energetics <=

    Nuclear Repulsion Energy =            394.0232081257529444
    One-Electron Energy =               -1304.2621751040171603
    Two-Electron Energy =                 526.1578696801626620
    DFT Exchange-Correlation Energy =       0.0000000000000000
    Empirical Dispersion Energy =           0.0000000000000000
    PCM Polarization Energy =               0.0000000000000000
    EFP Energy =                            0.0000000000000000
    Total Energy =                       -384.0810972981015539
    Molecular point group: c1
  Basis Set: CC-PVTZ
  Basis Set:

  -Total Gradient:
     Atom            X                  Y                   Z
    ------   -----------------  -----------------  -----------------
       1       -0.000001105072     0.000000469575    -0.000013699495
       2       -0.000001187974     0.000003159510     0.000010575927
       3        0.000001040927     0.000000793516    -0.000007534392
       4       -0.000007124702     0.000002856047    -0.000021997482
       5        0.000000936013    -0.000004978086     0.000003085366
       6       -0.000000227911    -0.000000410659     0.000001644082
       7       -0.000002446951     0.000002996293     0.000004572156
       8        0.001512872951    -0.003566987694    -0.002590606145
       9       -0.000937880969     0.004878182492     0.004516863291
      10       -0.000014290781    -0.000000064872    -0.000009487264
      11        0.000004871299     0.000001171023    -0.000010076678
      12       -0.005965819634    -0.000088330565    -0.004706345162
      13        0.000011501214     0.000024380943    -0.000010872313
      14       -0.000009403257    -0.000008713332     0.000007816626
      15        0.000046859463    -0.000021676866    -0.000003653009
      16        0.005384440689    -0.001227135602     0.002847390623
      17       -0.000000575930    -0.000006203836    -0.000006310804
      18       -0.000000515747     0.000009876436    -0.000003528931
      19       -0.000032658133    -0.000012519691     0.000012685009
      20        0.000010714503     0.000013135369    -0.000020521405

  **** Optimization is complete! (in 9 steps) ****
    Final optimized geometry and variables:
    Molecular point group: c1

    Geometry (in Angstrom), charge = 0, multiplicity = 1:

    O           -2.219268255960    -0.935306940212    -0.078137480146
    C           -1.698561688030     0.079120807100     0.239851098789
    C           -2.416130837431     1.384264085733     0.438760424007
    O           -0.402281186200     0.196234225287     0.464035285021
    H           -2.012843669617     2.127365405346    -0.237147090065
    H           -3.469627025555     1.249172344063     0.255519120685
    H           -2.255013670820     1.737394557845     1.449088304961
    C            0.404781552107    -0.967904723792     0.319591393143
    C            1.836039229456    -0.611308581768     0.661563402067
    H            0.306911574522    -1.341943695757    -0.688180308984
    H            0.036416115399    -1.731255767597     0.990049839342
    C            2.553989268572     0.387112210795    -0.269960270160
    H            2.377840245450    -1.552995353766     0.650083519107
    H            1.875647243996    -0.250444301306     1.682442449971
    C            2.069280595646     0.450464114103    -1.714127500853
    H            2.542306130477     1.373651550668     0.179589846917
    H            3.605001524453     0.113623609633    -0.279795569355
    H            2.685988659798     1.136378393142    -2.282829816516
    H            1.045208124151     0.793817421841    -1.784117882097
    H            2.131444404444    -0.518872589428    -2.197540637066

  Mulliken Charges: (a.u.)
   Center  Symbol    Alpha    Beta     Spin     Total
       1     O     4.19705  4.19705  0.00000 -0.39411
       2     C     2.81044  2.81044  0.00000  0.37912
       3     C     3.13804  3.13804  0.00000 -0.27609
       4     O     4.15795  4.15795  0.00000 -0.31591
       5     H     0.44633  0.44633  0.00000  0.10733
       6     H     0.43797  0.43797  0.00000  0.12406
       7     H     0.44562  0.44562  0.00000  0.10877
       8     C     2.99680  2.99680  0.00000  0.00641
       9     C     3.09391  3.09391  0.00000 -0.18781
      10     H     0.44671  0.44671  0.00000  0.10659
      11     H     0.43778  0.43778  0.00000  0.12445
      12     C     3.08337  3.08337  0.00000 -0.16674
      13     H     0.45145  0.45145  0.00000  0.09709
      14     H     0.44802  0.44802  0.00000  0.10396
      15     C     3.15925  3.15925  0.00000 -0.31850
      16     H     0.44989  0.44989  0.00000  0.10022
      17     H     0.45158  0.45158  0.00000  0.09684
      18     H     0.44407  0.44407  0.00000  0.11187
      19     H     0.45068  0.45068  0.00000  0.09863
      20     H     0.45308  0.45308  0.00000  0.09383

   Total alpha = 32.00000, Total beta = 32.00000, Total charge =  0.00000
