  ==> Input File <==

--------------------------------------------------------------------------
set {
	reference rhf
	basis 6-31G*
}

set_num_threads( 1 )
memory 2 gb

molecule MOL {
0 1

O	 -2.439739	 -0.935931	 -0.423848
C	 -1.921153	 0.064240	 -0.045697
C	 -2.624470	 1.379923	 0.150949
O	 -0.632575	 0.154573	 0.251549
H	 -2.168117	 2.136577	 -0.476876
H	 -3.669540	 1.273223	 -0.098610
H	 -2.519365	 1.700893	 1.180846
C	 0.160891	 -1.019931	 0.106212
C	 1.589627	 -0.672828	 0.480843
H	 0.089836	 -1.367806	 -0.916050
H	 -0.238459	 -1.792301	 0.749618
C	 1.836550	 0.825461	 0.666741
H	 2.235882	 -1.054380	 -0.307006
H	 1.854276	 -1.207730	 1.389193
C	 3.290153	 1.140971	 1.016729
H	 1.562439	 1.349832	 -0.246494
H	 1.184367	 1.202521	 1.447665
H	 3.439204	 2.208474	 1.144217
H	 3.965648	 0.803720	 0.235547
H	 3.585269	 0.653383	 1.941523

	symmetry c1
}
set optking {
	frozen_dihedral = ("
		16 12 9 8,
		2 4 8 10,
		1 2 4 8
	")
}

ee = energy('scf')
oeprop('DIPOLE', 'QUADRUPOLE', 'MULLIKEN_CHARGES')
f=open( 'psi4out.xyz', 'w' )
f.write( "20  " )
f.write( str(ee) + "\n" )
f.write( MOL.save_string_xyz() )
f.close()
--------------------------------------------------------------------------

    Molecular point group: c1

    Geometry (in Angstrom), charge = 0, multiplicity = 1:

       Center              X                  Y                   Z               Mass
    ------------   -----------------  -----------------  -----------------  -----------------
           O         -2.338365245162    -1.057127151818    -0.698169650947    15.994914619560
           C         -1.819779245162    -0.056956151818    -0.320018650947    12.000000000000
           C         -2.523096245162     1.258726848182    -0.123372650947    12.000000000000
           O         -0.531201245162     0.033376848182    -0.022772650947    15.994914619560
           H         -2.066743245162     2.015380848182    -0.751197650947     1.007825032070
           H         -3.568166245162     1.152026848182    -0.372931650947     1.007825032070
           H         -2.417991245162     1.579696848182     0.906524349053     1.007825032070
           C          0.262264754838    -1.141127151818    -0.168109650947    12.000000000000
           C          1.691000754838    -0.794024151818     0.206521349053    12.000000000000
           H          0.191209754838    -1.489002151818    -1.190371650947     1.007825032070
           H         -0.137085245162    -1.913497151818     0.475296349053     1.007825032070
           C          1.937923754838     0.704264848182     0.392419349053    12.000000000000
           H          2.337255754838    -1.175576151818    -0.581327650947     1.007825032070
           H          1.955649754838    -1.328926151818     1.114871349053     1.007825032070
           C          3.391526754838     1.019774848182     0.742407349053    12.000000000000
           H          1.663812754838     1.228635848182    -0.520815650947     1.007825032070
           H          1.285740754838     1.081324848182     1.173343349053     1.007825032070
           H          3.540577754838     2.087277848182     0.869895349053     1.007825032070
           H          4.067021754838     0.682523848182    -0.038774650947     1.007825032070
           H          3.686642754838     0.532186848182     1.667201349053     1.007825032070

  Charge       = 0
  Multiplicity = 1
  Basis Set: 6-31G*
  Basis Set:

    Orbital Energies (a.u.)
    -----------------------

    Doubly Occupied:

       1A    -20.601065     2A    -20.544045     3A    -11.374260
       4A    -11.281498     5A    -11.233708     6A    -11.223483
       7A    -11.217833     8A    -11.210595     9A     -1.468198
      10A     -1.362534    11A     -1.084587    12A     -1.026904
      13A     -0.981107    14A     -0.878893    15A     -0.820097
      16A     -0.757946    17A     -0.692297    18A     -0.689513
      19A     -0.667561    20A     -0.632900    21A     -0.594361
      22A     -0.592983    23A     -0.573783    24A     -0.547605
      25A     -0.544348    26A     -0.533427    27A     -0.506504
      28A     -0.481503    29A     -0.477529    30A     -0.468750
      31A     -0.442294    32A     -0.438378

  @DF-RHF Final Energy:  -383.93608859348814

   => Energetics <=

    Nuclear Repulsion Energy =            389.2260723061639851
    One-Electron Energy =               -1294.4234568092585960
    Two-Electron Energy =                 521.2612959096087479
    DFT Exchange-Correlation Energy =       0.0000000000000000
    Empirical Dispersion Energy =           0.0000000000000000
    PCM Polarization Energy =               0.0000000000000000
    EFP Energy =                            0.0000000000000000
    Total Energy =                       -383.9360885934858061

  Mulliken Charges: (a.u.)
   Center  Symbol    Alpha    Beta     Spin     Total
       1     O     4.28376  4.28376  0.00000 -0.56753
       2     C     2.61798  2.61798  0.00000  0.76403
       3     C     3.28162  3.28162  0.00000 -0.56323
       4     O     4.31188  4.31188  0.00000 -0.62375
       5     H     0.40068  0.40068  0.00000  0.19865
       6     H     0.39676  0.39676  0.00000  0.20648
       7     H     0.40095  0.40095  0.00000  0.19810
       8     C     2.99557  2.99557  0.00000  0.00885
       9     C     3.18007  3.18007  0.00000 -0.36014
      10     H     0.40861  0.40861  0.00000  0.18279
      11     H     0.40838  0.40838  0.00000  0.18324
      12     C     3.14446  3.14446  0.00000 -0.28892
      13     H     0.41652  0.41652  0.00000  0.16695
      14     H     0.41609  0.41609  0.00000  0.16782
      15     C     3.24063  3.24063  0.00000 -0.48125
      16     H     0.41901  0.41901  0.00000  0.16198
      17     H     0.41392  0.41392  0.00000  0.17216
      18     H     0.41837  0.41837  0.00000  0.16326
      19     H     0.42247  0.42247  0.00000  0.15506
      20     H     0.42227  0.42227  0.00000  0.15545

   Total alpha = 32.00000, Total beta = 32.00000, Total charge =  0.00000
