  ==> Input File <==

--------------------------------------------------------------------------
set {
	reference rhf
	basis 6-31G*
}

set_num_threads( 4 )
memory 2 gb

molecule MOL {
0 1

H	 -2.440123	 -1.779047	 0.386263
C	 -1.667057	 -1.054583	 0.222170
C	 -1.967101	 0.332530	 0.013809
C	 -0.378844	 -1.420145	 0.205187
H	 -2.992433	 0.657610	 0.021745
C	 -0.983084	 1.220153	 -0.189412
H	 -0.070690	 -2.437813	 0.352826
N	 0.640212	 -0.532897	 -0.000111
H	 -1.169413	 2.264327	 -0.348590
C	 0.418632	 0.822110	 -0.207799
C	 2.010177	 -1.032049	 0.000042
O	 1.331982	 1.588848	 -0.386996
H	 2.187698	 -1.635381	 -0.882279
H	 2.677579	 -0.189247	 -0.001871
H	 2.188882	 -1.632203	 0.884288

	symmetry c1
}
set optking {
	frozen_dihedral = ("
		10 8 11 13
	")
}

ee = optimize('scf')
oeprop('DIPOLE', 'QUADRUPOLE', 'MULLIKEN_CHARGES')
f=open( 'psi4out.xyz', 'w' )
f.write( "15  " )
f.write( str(ee) + "\n" )
f.write( MOL.save_string_xyz() )
f.close()
--------------------------------------------------------------------------

    Molecular point group: c1
  Charge       = 0
  Multiplicity = 1
  Basis Set: 6-31G*
  Basis Set:
  @DF-RHF Final Energy:  -360.59582974779744
    Total Energy =                       -360.5958297477972110
    Molecular point group: c1
  Basis Set: 6-31G*
  Basis Set:
  Basis Set: 6-31G*
  Basis Set:
  @DF-RHF Final Energy:  -360.59584749861085
    Total Energy =                       -360.5958474986106239
  Basis Set: 6-31G*
  Basis Set:
  Basis Set: 6-31G*
  Basis Set:
  @DF-RHF Final Energy:  -360.59584450572351
    Total Energy =                       -360.5958445057231074
  Basis Set: 6-31G*
  Basis Set:
  Charge       = 0
  Multiplicity = 1
  Basis Set: 6-31G*
  Basis Set:

    Orbital Energies (a.u.)
    -----------------------

    Doubly Occupied:

       1A    -20.508673     2A    -15.621223     3A    -11.343473
       4A    -11.296598     5A    -11.264228     6A    -11.260447
       7A    -11.233799     8A    -11.229236     9A     -1.384281
      10A     -1.281036    11A     -1.114817    12A     -1.025773
      13A     -0.969949    14A     -0.872117    15A     -0.835317
      16A     -0.715412    17A     -0.698547    18A     -0.660682
      19A     -0.647838    20A     -0.621664    21A     -0.606713
      22A     -0.572143    23A     -0.553279    24A     -0.546984
      25A     -0.526091    26A     -0.476123    27A     -0.413622
      28A     -0.405972    29A     -0.305269

  @DF-RHF Final Energy:  -360.59585081752567

   => Energetics <=

    Nuclear Repulsion Energy =            357.5823724880555687
    One-Electron Energy =               -1198.3738352319167006
    Two-Electron Energy =                 480.1956119263352321
    DFT Exchange-Correlation Energy =       0.0000000000000000
    Empirical Dispersion Energy =           0.0000000000000000
    PCM Polarization Energy =               0.0000000000000000
    EFP Energy =                            0.0000000000000000
    Total Energy =                       -360.5958508175258430
    Molecular point group: c1
  Basis Set: 6-31G*
  Basis Set:

  -Total Gradient:
     Atom            X                  Y                   Z
    ------   -----------------  -----------------  -----------------
       1        0.000007072231     0.000003260972     0.000015667760
       2        0.000007705935     0.000007301330    -0.000006535578
       3        0.000005361192    -0.000002554147    -0.000015985029
       4        0.000011202710    -0.000018973999    -0.000031837060
       5        0.000004729501     0.000004822929     0.000001513904
       6        0.000012523524     0.000017423832     0.000012765450
       7       -0.000001029257     0.000003555404     0.000004657830
       8       -0.000073486332    -0.000148780377    -0.000205720421
       9       -0.000009059628     0.000007633016    -0.000005801667
      10        0.000020200676     0.000012383856     0.000188006689
      11        0.000109451280     0.000253022495    -0.000034657668
      12       -0.000015545007     0.000064330488    -0.000017410256
      13       -0.000067651492    -0.000178948475     0.000116893962
      14       -0.000006966479    -0.000015005753    -0.000008328067
      15       -0.000004508856    -0.000009471573    -0.000013229849

  **** Optimization is complete! (in 4 steps) ****
    Final optimized geometry and variables:
    Molecular point group: c1

    Geometry (in Angstrom), charge = 0, multiplicity = 1:

    H           -2.440037856653    -1.775321392679     0.427015392994
    C           -1.666363132935    -1.050820956010     0.266317182609
    C           -1.965774295025     0.336994292016     0.061396279267
    C           -0.378152993477    -1.416620544869     0.253412223170
    H           -2.991083841708     0.662063111118     0.068662364083
    C           -0.981274224967     1.225018477285    -0.137473775695
    H           -0.070754779098    -2.434474553392     0.400494369790
    N            0.641617577311    -0.528406831447     0.056081709246
    H           -1.166915303470     2.269672008121    -0.294955614626
    C            0.419980899812     0.825356612722    -0.158573728769
    C            2.012174397213    -1.026099942425     0.047767156210
    O            1.333742500729     1.589780614237    -0.345519575588
    H            2.188736666010    -1.635998030507    -0.830694577822
    H            2.679863986609    -0.183522361657     0.035869157472
    H            2.192319065684    -1.620519975636     0.934903994820

  Mulliken Charges: (a.u.)
   Center  Symbol    Alpha    Beta     Spin     Total
       1     H     0.39284  0.39284  0.00000  0.21432
       2     C     3.16151  3.16151  0.00000 -0.32301
       3     C     3.05827  3.05827  0.00000 -0.11655
       4     C     2.92084  2.92084  0.00000  0.15832
       5     H     0.39084  0.39084  0.00000  0.21832
       6     C     3.16970  3.16970  0.00000 -0.33941
       7     H     0.38790  0.38790  0.00000  0.22420
       8     N     3.86561  3.86561  0.00000 -0.73123
       9     H     0.38633  0.38633  0.00000  0.22734
      10     C     2.59394  2.59394  0.00000  0.81213
      11     C     3.15524  3.15524  0.00000 -0.31047
      12     O     4.32201  4.32201  0.00000 -0.64403
      13     H     0.40911  0.40911  0.00000  0.18177
      14     H     0.37410  0.37410  0.00000  0.25180
      15     H     0.41175  0.41175  0.00000  0.17650

   Total alpha = 29.00000, Total beta = 29.00000, Total charge = -0.00000
