  ==> Input File <==

--------------------------------------------------------------------------
set {
	reference rhf
	basis 6-31G*
}

set_num_threads( 1 )
memory 2 gb

molecule MOL {
0 1

H	 -4.019936	 -2.483312	 0.528678
C	 -3.333794	 -1.659429	 0.561633
C	 -2.094445	 -1.823660	 0.160331
H	 -3.685428	 -0.712757	 0.926431
O	 -1.180634	 -0.819263	 0.215062
H	 -1.724571	 -2.761476	 -0.215022
C	 0.051604	 -1.018856	 -0.387932
C	 1.043764	 0.054862	 -0.001873
H	 -0.017620	 -1.041351	 -1.469781
H	 0.437898	 -1.966374	 -0.042284
F	 2.212596	 -0.199467	 -0.571921
F	 0.652529	 1.252447	 -0.405055
F	 1.230877	 0.110694	 1.300533

	symmetry c1
}
set optking {
	frozen_dihedral = ("
		11 8 7 9,
		6 3 2 1,
		6 3 5 7
	")
}

ee = energy('scf')
oeprop('DIPOLE', 'QUADRUPOLE', 'MULLIKEN_CHARGES')
f=open( 'psi4out.xyz', 'w' )
f.write( "13  " )
f.write( str(ee) + "\n" )
f.write( MOL.save_string_xyz() )
f.close()
--------------------------------------------------------------------------

    Molecular point group: c1

    Geometry (in Angstrom), charge = 0, multiplicity = 1:

       Center              X                  Y                   Z               Mass
    ------------   -----------------  -----------------  -----------------  -----------------
           H         -4.002945878350    -2.059628500970     0.423156730127     1.007825032070
           C         -3.316803878350    -1.235745500970     0.456111730127    12.000000000000
           C         -2.077454878350    -1.399976500970     0.054809730127    12.000000000000
           H         -3.668437878350    -0.289073500970     0.820909730127     1.007825032070
           O         -1.163643878350    -0.395579500970     0.109540730127    15.994914619560
           H         -1.707580878350    -2.337792500970    -0.320543269873     1.007825032070
           C          0.068594121650    -0.595172500970    -0.493453269873    12.000000000000
           C          1.060754121650     0.478545499030    -0.107394269873    12.000000000000
           H         -0.000629878350    -0.617667500970    -1.575302269873     1.007825032070
           H          0.454888121650    -1.542690500970    -0.147805269873     1.007825032070
           F          2.229586121650     0.224216499030    -0.677442269873    18.998403224000
           F          0.669519121650     1.676130499030    -0.510576269873    18.998403224000
           F          1.247867121650     0.534377499030     1.195011730127    18.998403224000

  Charge       = 0
  Multiplicity = 1
  Basis Set: 6-31G*
  Basis Set:

    Orbital Energies (a.u.)
    -----------------------

    Doubly Occupied:

       1A    -26.345820     2A    -26.340339     3A    -26.338004
       4A    -20.605249     5A    -11.507166     6A    -11.318846
       7A    -11.303408     8A    -11.219995     9A     -1.740334
      10A     -1.639561    11A     -1.635070    12A     -1.436556
      13A     -1.087105    14A     -1.016629    15A     -0.923295
      16A     -0.836902    17A     -0.829849    18A     -0.807453
      19A     -0.799295    20A     -0.720615    21A     -0.713844
      22A     -0.697993    23A     -0.680461    24A     -0.658447
      25A     -0.651581    26A     -0.644196    27A     -0.641033
      28A     -0.577241    29A     -0.559220    30A     -0.526801
      31A     -0.511818    32A     -0.354081

  @DF-RHF Final Energy:  -527.53314104332173

   => Energetics <=

    Nuclear Repulsion Energy =            404.7789132280728381
    One-Electron Energy =               -1533.2876617990527848
    Two-Electron Energy =                 600.9756075276582123
    DFT Exchange-Correlation Energy =       0.0000000000000000
    Empirical Dispersion Energy =           0.0000000000000000
    PCM Polarization Energy =               0.0000000000000000
    EFP Energy =                            0.0000000000000000
    Total Energy =                       -527.5331410433218480

  Mulliken Charges: (a.u.)
   Center  Symbol    Alpha    Beta     Spin     Total
       1     H     0.40682  0.40682  0.00000  0.18636
       2     C     3.23369  3.23369  0.00000 -0.46739
       3     C     2.89471  2.89471  0.00000  0.21057
       4     H     0.40003  0.40003  0.00000  0.19994
       5     O     4.30647  4.30647  0.00000 -0.61294
       6     H     0.40891  0.40891  0.00000  0.18217
       7     C     3.04922  3.04922  0.00000 -0.09844
       8     C     2.45077  2.45077  0.00000  1.09847
       9     H     0.40507  0.40507  0.00000  0.18986
      10     H     0.40843  0.40843  0.00000  0.18314
      11     F     4.68352  4.68352  0.00000 -0.36703
      12     F     4.67781  4.67781  0.00000 -0.35562
      13     F     4.67454  4.67454  0.00000 -0.34909

   Total alpha = 32.00000, Total beta = 32.00000, Total charge =  0.00000
