                              Psi4 1.0.54 Driver

  ==> Input File <==

--------------------------------------------------------------------------
set {
	reference rhf
	basis cc-pvtz
}

set_num_threads( 4 )
memory 2 gb

molecule MOL {
0 1

H	 2.614283	 2.028610	 0.296620
O	 3.358864	 1.662087	 -0.142800
C	 3.565468	 0.338079	 0.273842
C	 2.533667	 -0.637565	 -0.272227
H	 4.548038	 0.064914	 -0.086598
H	 3.593945	 0.282242	 1.360360
C	 1.114816	 -0.402372	 0.240993
H	 2.544552	 -0.580764	 -1.356576
H	 2.850574	 -1.642962	 -0.005497
C	 0.309118	 -1.694814	 0.364611
H	 0.600834	 0.281376	 -0.426325
H	 1.159772	 0.084245	 1.213860
C	 -1.096499	 -1.527195	 0.944611
H	 0.240175	 -2.167227	 -0.612272
H	 0.860623	 -2.386105	 0.995822
C	 -2.071603	 -0.749823	 0.062223
H	 -1.509475	 -2.515239	 1.128318
H	 -1.027890	 -1.044197	 1.916805
C	 -3.484548	 -0.695274	 0.637568
H	 -2.104828	 -1.207769	 -0.924007
H	 -1.714492	 0.264909	 -0.085404
C	 -4.459807	 0.083330	 -0.239095
H	 -3.854683	 -1.707370	 0.776274
H	 -3.451956	 -0.245705	 1.626450
H	 -4.539298	 -0.360734	 -1.225870
H	 -5.452394	 0.100261	 0.196327
H	 -4.137354	 1.111542	 -0.366204

	symmetry c1
}
set optking {
	frozen_dihedral = ("
		10 7 4 8
	")
}

ee,wfn = optimize('scf', return_wfn=True)
oeprop( wfn, 'DIPOLE', 'QUADRUPOLE', 'MULLIKEN_CHARGES')
f=open( 'psi4out.xyz', 'w' )
f.write( "27  " )
f.write( str(ee) + "\n" )
f.write( MOL.save_string_xyz() )
f.close()
--------------------------------------------------------------------------

    Molecular point group: c1
  Charge       = 0
  Multiplicity = 1
  Basis Set: CC-PVTZ
  Basis Set:
  @DF-RHF Final Energy:  -388.42497339360045
    Total Energy =                       -388.4249733936003395
    Molecular point group: c1
  Basis Set: CC-PVTZ
  Basis Set:
  Basis Set: CC-PVTZ
  Basis Set:
  @DF-RHF Final Energy:  -388.42519034049531
    Total Energy =                       -388.4251903404948507
  Basis Set: CC-PVTZ
  Basis Set:
  Basis Set: CC-PVTZ
  Basis Set:
  @DF-RHF Final Energy:  -388.42534293528411
    Total Energy =                       -388.4253429352837657
  Basis Set: CC-PVTZ
  Basis Set:
  Basis Set: CC-PVTZ
  Basis Set:
  @DF-RHF Final Energy:  -388.42533754171404
    Total Energy =                       -388.4253375417140433
  Basis Set: CC-PVTZ
  Basis Set:
  Basis Set: CC-PVTZ
  Basis Set:
  @DF-RHF Final Energy:  -388.42535260355845
    Total Energy =                       -388.4253526035579398
  Basis Set: CC-PVTZ
  Basis Set:
  Charge       = 0
  Multiplicity = 1
  Basis Set: CC-PVTZ
  Basis Set:

    Orbital Energies (a.u.)
    -----------------------

    Doubly Occupied:

       1A    -20.545017     2A    -11.264576     3A    -11.217638
       4A    -11.215823     5A    -11.214101     6A    -11.213739
       7A    -11.213443     8A    -11.212107     9A    -11.207339
      10A     -1.362953    11A     -1.096265    12A     -1.062170
      13A     -1.012533    14A     -0.949489    15A     -0.888772
      16A     -0.821675    17A     -0.801614    18A     -0.779289
      19A     -0.697437    20A     -0.649500    21A     -0.633779
      22A     -0.620494    23A     -0.605760    24A     -0.584676
      25A     -0.578140    26A     -0.554933    27A     -0.542692
      28A     -0.528946    29A     -0.507778    30A     -0.497712
      31A     -0.486148    32A     -0.475244    33A     -0.469491
      34A     -0.461522    35A     -0.449072    36A     -0.442721
      37A     -0.426082

  @DF-RHF Final Energy:  -388.42535348266648

   => Energetics <=

    Nuclear Repulsion Energy =            459.4465489026660521
    One-Electron Energy =               -1437.1624666039360818
    Two-Electron Energy =                 589.2905642186035493
    DFT Exchange-Correlation Energy =       0.0000000000000000
    Empirical Dispersion Energy =           0.0000000000000000
    PCM Polarization Energy =               0.0000000000000000
    EFP Energy =                            0.0000000000000000
    Total Energy =                       -388.4253534826664236
    Molecular point group: c1
  Basis Set: CC-PVTZ
  Basis Set:

  -Total Gradient:
     Atom            X                  Y                   Z
    ------   -----------------  -----------------  -----------------
       1       -0.000005900269     0.000036057475     0.000000924401
       2       -0.000032075495     0.000046313689    -0.000046137808
       3        0.000031842668    -0.000003892126     0.000069389921
       4       -0.000571476945    -0.004892648290     0.000545972017
       5        0.000032833509    -0.000025496038    -0.000007831776
       6        0.000006441469    -0.000026969991     0.000023832329
       7       -0.001180020074     0.001459879152    -0.003522064258
       8        0.000755631733     0.003820602008     0.000321152977
       9       -0.000016736489     0.000004543084    -0.000005079560
      10        0.000993946751    -0.000421761461     0.002623709650
      11       -0.000025274724     0.000001803250    -0.000041417364
      12        0.000015727970     0.000006765547     0.000040701085
      13       -0.000014818771    -0.000004123146    -0.000023460741
      14       -0.000004083401    -0.000009619056     0.000006856589
      15        0.000002527204     0.000007220555     0.000004278665
      16        0.000011815546    -0.000002801756     0.000016565107
      17       -0.000013934036     0.000003639906     0.000000654106
      18        0.000006785008     0.000000246866    -0.000000789154
      19       -0.000010329179    -0.000007191204    -0.000006148148
      20        0.000004602451     0.000001253259    -0.000002688247
      21        0.000018113170     0.000009760222    -0.000002641916
      22        0.000001898513    -0.000001735068     0.000003469760
      23       -0.000003895105    -0.000008381061     0.000003959883
      24        0.000001560056     0.000003152079     0.000002562823
      25       -0.000001836327    -0.000003143859    -0.000006383981
      26       -0.000004819361     0.000001469749     0.000002368195
      27        0.000001474134     0.000005056215    -0.000001754554

  **** Optimization is complete! (in 6 steps) ****
    Final optimized geometry and variables:
    Molecular point group: c1

    Geometry (in Angstrom), charge = 0, multiplicity = 1:

    H            2.523518501757     2.331005007120     0.130423940631
    O            3.288249663370     2.026347900317    -0.322292821762
    C            3.562082778371     0.696229723693     0.031574033386
    C            2.526235581546    -0.287064215636    -0.493771431513
    H            4.530936464077     0.470476821743    -0.393420413339
    H            3.652248258340     0.602032710307     1.112135662760
    C            1.119395820164    -0.060266344005     0.076431111350
    H            2.505569181859    -0.184632087946    -1.573893938218
    H            2.867106825260    -1.291504174750    -0.261303277769
    C            0.297279730232    -1.345188668587     0.174292139431
    H            0.600349298062     0.677794157318    -0.523102167793
    H            1.200045915537     0.358729057968     1.079095559552
    C           -1.109729482599    -1.169631901002     0.747966687510
    H            0.228607079307    -1.806446005389    -0.808523933918
    H            0.840448917681    -2.047825772660     0.799396076089
    C           -2.078805537813    -0.395063677469    -0.143441373583
    H           -1.527113386739    -2.154892549565     0.936246747207
    H           -1.043172131761    -0.680930048751     1.717567769424
    C           -3.491054488392    -0.321627704373     0.431414273612
    H           -2.116253870451    -0.865795300212    -1.123383193659
    H           -1.713460122470     0.614502789005    -0.304889051901
    C           -4.460702499829     0.451514960032    -0.456148051443
    H           -3.868797732921    -1.328761909661     0.584987860266
    H           -3.454701156514     0.142052504493     1.413582089231
    H           -4.544978465983    -0.007008056502    -1.435866065060
    H           -5.452611542547     0.483408725552    -0.020111112743
    H           -4.129778743312     1.474847813002    -0.599413636335

  Mulliken Charges: (a.u.)
   Center  Symbol    Alpha    Beta     Spin     Total
       1     H     0.39165  0.39165  0.00000  0.21671
       2     O     4.20707  4.20707  0.00000 -0.41415
       3     C     2.97582  2.97582  0.00000  0.04835
       4     C     3.08971  3.08971  0.00000 -0.17943
       5     H     0.44990  0.44990  0.00000  0.10020
       6     H     0.47201  0.47201  0.00000  0.05599
       7     C     3.10620  3.10620  0.00000 -0.21240
       8     H     0.45004  0.45004  0.00000  0.09992
       9     H     0.45497  0.45497  0.00000  0.09005
      10     C     3.10103  3.10103  0.00000 -0.20205
      11     H     0.44549  0.44549  0.00000  0.10901
      12     H     0.45826  0.45826  0.00000  0.08347
      13     C     3.09859  3.09859  0.00000 -0.19718
      14     H     0.45157  0.45157  0.00000  0.09686
      15     H     0.44800  0.44800  0.00000  0.10400
      16     C     3.08772  3.08772  0.00000 -0.17543
      17     H     0.44780  0.44780  0.00000  0.10441
      18     H     0.45416  0.45416  0.00000  0.09168
      19     C     3.08413  3.08413  0.00000 -0.16827
      20     H     0.45446  0.45446  0.00000  0.09109
      21     H     0.45442  0.45442  0.00000  0.09115
      22     C     3.14962  3.14962  0.00000 -0.29923
      23     H     0.45390  0.45390  0.00000  0.09220
      24     H     0.45472  0.45472  0.00000  0.09055
      25     H     0.45497  0.45497  0.00000  0.09006
      26     H     0.44831  0.44831  0.00000  0.10338
      27     H     0.45548  0.45548  0.00000  0.08903

   Total alpha = 37.00000, Total beta = 37.00000, Total charge = -0.00000

*** Psi4 exiting successfully. Buy a developer a beer!
