  ==> Input File <==

--------------------------------------------------------------------------
set {
	reference rhf
	basis 6-31G*
}

set_num_threads( 4 )
memory 2 gb

molecule MOL {
0 1

O	 2.862325	 1.357334	 0.000267
C	 2.843464	 0.164689	 -0.000222
C	 1.546494	 -0.624492	 -0.000609
C	 4.124123	 -0.644674	 -0.000428
C	 0.291004	 0.242674	 0.000989
H	 1.557904	 -1.283758	 -0.867573
H	 1.558622	 -1.285963	 0.864672
C	 0.530785	 1.620317	 0.620962
H	 -0.496876	 -0.273084	 0.540775
H	 -0.066169	 0.353425	 -1.017986
C	 -0.721794	 2.498217	 0.629190
H	 0.892095	 1.501788	 1.641478
H	 1.323114	 2.131374	 0.075891
C	 -0.490040	 3.877879	 1.247926
H	 -1.514300	 1.988630	 1.174420
H	 -1.083371	 2.618107	 -0.390558
C	 -1.745848	 4.748860	 1.252740
H	 -0.129719	 3.759342	 2.267701
H	 0.300918	 4.388848	 0.702807
H	 -2.545593	 4.280375	 1.819378
H	 -1.550130	 5.719608	 1.697761
H	 -2.111257	 4.915320	 0.243329
H	 4.165367	 -1.288615	 -0.874074
H	 4.976217	 0.020734	 -0.001915
H	 4.166763	 -1.286207	 0.874930

	symmetry c1
}
set optking {
	frozen_dihedral = ("
		9 5 3 6
	")
}

ee = optimize('scf')
oeprop('DIPOLE', 'QUADRUPOLE', 'MULLIKEN_CHARGES')
f=open( 'psi4out.xyz', 'w' )
f.write( "25  " )
f.write( str(ee) + "\n" )
f.write( MOL.save_string_xyz() )
f.close()
--------------------------------------------------------------------------

    Molecular point group: c1
  Charge       = 0
  Multiplicity = 1
  Basis Set: 6-31G*
  Basis Set:
  @DF-RHF Final Energy:  -387.10286573764768
    Total Energy =                       -387.1028657376474484
    Molecular point group: c1
  Basis Set: 6-31G*
  Basis Set:
  Basis Set: 6-31G*
  Basis Set:
  @DF-RHF Final Energy:  -387.12164281453579
    Total Energy =                       -387.1216428145357895
  Basis Set: 6-31G*
  Basis Set:
  Basis Set: 6-31G*
  Basis Set:
  @DF-RHF Final Energy:  -387.12537908592748
    Total Energy =                       -387.1253790859275341
  Basis Set: 6-31G*
  Basis Set:
  Basis Set: 6-31G*
  Basis Set:
  @DF-RHF Final Energy:  -387.12496272285790
    Total Energy =                       -387.1249627228575036
  Basis Set: 6-31G*
  Basis Set:
  @DF-RHF Final Energy:  -387.12728532083850
    Total Energy =                       -387.1272853208386096
  @DF-RHF Final Energy:  -387.12818780913017
    Total Energy =                       -387.1281878091298267
  @DF-RHF Final Energy:  -387.12868162556003
    Total Energy =                       -387.1286816255599206
  @DF-RHF Final Energy:  -387.12903137827095
    Total Energy =                       -387.1290313782712929
  @DF-RHF Final Energy:  -387.12924841534328
    Total Energy =                       -387.1292484153429996
  @DF-RHF Final Energy:  -387.12934216638968
    Total Energy =                       -387.1293421663899608
  @DF-RHF Final Energy:  -387.12935838011208
    Total Energy =                       -387.1293583801124214
  Basis Set: 6-31G*
  Basis Set:
  @DF-RHF Final Energy:  -387.12936737863606
    Total Energy =                       -387.1293673786358340
  Basis Set: 6-31G*
  Basis Set:
  Basis Set: 6-31G*
  Basis Set:
  @DF-RHF Final Energy:  -387.12937109146867
    Total Energy =                       -387.1293710914691246
  Basis Set: 6-31G*
  Basis Set:
  Basis Set: 6-31G*
  Basis Set:
  @DF-RHF Final Energy:  -387.12937222464092
    Total Energy =                       -387.1293722246409743
  Basis Set: 6-31G*
  Basis Set:
  Charge       = 0
  Multiplicity = 1
  Basis Set: 6-31G*
  Basis Set:

    Orbital Energies (a.u.)
    -----------------------

    Doubly Occupied:

       1A    -20.547480     2A    -11.326272     3A    -11.232190
       4A    -11.228540     5A    -11.223632     6A    -11.212671
       7A    -11.211601     8A    -11.210552     9A    -11.206552
      10A     -1.394200    11A     -1.090570    12A     -1.053921
      13A     -1.012768    14A     -0.968117    15A     -0.890590
      16A     -0.817025    17A     -0.789350    18A     -0.723213
      19A     -0.665459    20A     -0.639141    21A     -0.632970
      22A     -0.619158    23A     -0.599652    24A     -0.584089
      25A     -0.565556    26A     -0.561904    27A     -0.535775
      28A     -0.531896    29A     -0.514510    30A     -0.492858
      31A     -0.482716    32A     -0.474219    33A     -0.461694
      34A     -0.459472    35A     -0.440624    36A     -0.395948

  @DF-RHF Final Energy:  -387.12937273333011

   => Energetics <=

    Nuclear Repulsion Energy =            450.2914765432573176
    One-Electron Energy =               -1417.2479297030072303
    Two-Electron Energy =                 579.8270804264197977
    DFT Exchange-Correlation Energy =       0.0000000000000000
    Empirical Dispersion Energy =           0.0000000000000000
    PCM Polarization Energy =               0.0000000000000000
    EFP Energy =                            0.0000000000000000
    Total Energy =                       -387.1293727333301149
    Molecular point group: c1
  Basis Set: 6-31G*
  Basis Set:

  -Total Gradient:
     Atom            X                  Y                   Z
    ------   -----------------  -----------------  -----------------
       1        0.000006890491     0.000084906211    -0.000028047805
       2        0.000090273202    -0.000181683914     0.000034051137
       3       -0.004341910143    -0.005390110778     0.005867911050
       4        0.000016587635     0.000052829412    -0.000032096565
       5       -0.002019254817    -0.002354194055    -0.008274782686
       6        0.003918126040     0.004868814573    -0.003769513964
       7       -0.000007489259     0.000011780225    -0.000005913887
       8       -0.000004438647    -0.000037492879     0.000030995797
       9        0.002353567879     0.002854831044     0.006189600769
      10        0.000026218041     0.000004121318     0.000009415545
      11       -0.000022859281     0.000033810145     0.000001759162
      12       -0.000002472738     0.000002159628    -0.000012897794
      13       -0.000032828222     0.000041849754    -0.000004587402
      14        0.000001826548     0.000026865333    -0.000026096846
      15        0.000026480486    -0.000007566781    -0.000011124184
      16        0.000012467706    -0.000000834025    -0.000003927505
      17       -0.000002193620    -0.000005187437     0.000021801015
      18        0.000004991802     0.000000725350    -0.000002074809
      19       -0.000003564677     0.000004261008    -0.000005757686
      20       -0.000010224401    -0.000000662341    -0.000002489816
      21       -0.000001670830    -0.000005186055     0.000006961520
      22        0.000008068857     0.000002714632    -0.000000404429
      23       -0.000010924816    -0.000009021242     0.000007508894
      24        0.000002467028    -0.000002205494     0.000010995476
      25       -0.000008134267     0.000004476370    -0.000001284983

  **** Optimization is complete! (in 15 steps) ****
    Final optimized geometry and variables:
    Molecular point group: c1

    Geometry (in Angstrom), charge = 0, multiplicity = 1:

    O            2.032080828556    -0.519349094438    -1.426963671523
    C            1.846264603578    -1.416990415973    -0.662549522212
    C            0.474246066809    -2.059026941498    -0.506260721047
    C            2.976732081391    -2.010743339852     0.148175785322
    C           -0.723817812728    -1.086532875423    -0.492332628150
    H            0.409226295468    -2.689485522179    -1.391941760112
    H            0.462668821526    -2.704350935666     0.364820280545
    C           -0.481600955464     0.245405176324     0.231087417297
    H           -1.527550730471    -1.581813056124     0.046121257387
    H           -1.062292909669    -0.893838113786    -1.503416015109
    C           -1.764361776220     1.067131556625     0.374134346769
    H           -0.074066811483     0.047731638451     1.223070248275
    H            0.260583003070     0.826956605662    -0.301046894535
    C           -1.544951836580     2.408783057501     1.075632016495
    H           -2.507547865530     0.492193420766     0.924726555417
    H           -2.187635174573     1.245234722010    -0.613190094260
    C           -2.828575422813     3.226170261151     1.216754539152
    H           -1.118796409754     2.234093525633     2.061472161863
    H           -0.807748161821     2.986612473402     0.522934814963
    H           -3.575457778974     2.687779155432     1.793657948958
    H           -2.640926588409     4.170390176053     1.718681539099
    H           -3.260261027766     3.448536503888     0.244951112552
    H            3.030696063166    -3.085271589837    -0.002416177754
    H            3.914479191790    -1.553452994130    -0.135024238674
    H            2.796178739706    -1.844362366265     1.206862293299

  Mulliken Charges: (a.u.)
   Center  Symbol    Alpha    Beta     Spin     Total
       1     O     4.26559  4.26559  0.00000 -0.53118
       2     C     2.73411  2.73411  0.00000  0.53179
       3     C     3.21051  3.21051  0.00000 -0.42102
       4     C     3.28937  3.28937  0.00000 -0.57874
       5     C     3.14588  3.14588  0.00000 -0.29177
       6     H     0.40085  0.40085  0.00000  0.19829
       7     H     0.41326  0.41326  0.00000  0.17348
       8     C     3.16496  3.16496  0.00000 -0.32992
       9     H     0.42000  0.42000  0.00000  0.16000
      10     H     0.41169  0.41169  0.00000  0.17662
      11     C     3.15154  3.15154  0.00000 -0.30309
      12     H     0.42994  0.42994  0.00000  0.14012
      13     H     0.40054  0.40054  0.00000  0.19892
      14     C     3.15140  3.15140  0.00000 -0.30280
      15     H     0.42629  0.42629  0.00000  0.14742
      16     H     0.42268  0.42268  0.00000  0.15463
      17     C     3.23931  3.23931  0.00000 -0.47862
      18     H     0.42425  0.42425  0.00000  0.15150
      19     H     0.42056  0.42056  0.00000  0.15888
      20     H     0.42268  0.42268  0.00000  0.15464
      21     H     0.41949  0.41949  0.00000  0.16103
      22     H     0.42148  0.42148  0.00000  0.15704
      23     H     0.40899  0.40899  0.00000  0.18203
      24     H     0.39718  0.39718  0.00000  0.20564
      25     H     0.40745  0.40745  0.00000  0.18510

   Total alpha = 36.00000, Total beta = 36.00000, Total charge =  0.00000
