                              Psi4 1.0.54 Driver

  ==> Input File <==

--------------------------------------------------------------------------
set {
	reference rhf
	basis cc-pvtz
}

set_num_threads( 4 )
memory 2 gb

molecule MOL {
0 1

O	 -1.278239	 1.034789	 -0.784693
C	 -1.204115	 0.062668	 -0.112312
C	 -2.386398	 -0.667698	 0.460323
O	 -0.068058	 -0.518372	 0.226882
H	 -2.382952	 -1.693172	 0.114333
H	 -3.296656	 -0.175702	 0.158400
H	 -2.312537	 -0.685191	 1.540100
C	 0.174459	 -0.838073	 1.600846
C	 1.679987	 -0.844729	 1.775355
C	 -0.468673	 -2.170343	 1.941500
H	 -0.265366	 -0.059196	 2.204992
H	 2.099278	 0.119388	 1.517628
H	 1.933082	 -1.063912	 2.805701
H	 2.136669	 -1.596506	 1.142735
H	 -0.275622	 -2.419819	 2.978319
H	 -1.539320	 -2.127727	 1.798161
H	 -0.061476	 -2.958958	 1.318957

	symmetry c1
}
set optking {
	frozen_dihedral = ("
		8 4 2 1
	")
}

ee,wfn = optimize('scf', return_wfn=True)
oeprop( wfn, 'DIPOLE', 'QUADRUPOLE', 'MULLIKEN_CHARGES')
f=open( 'psi4out.xyz', 'w' )
f.write( "17  " )
f.write( str(ee) + "\n" )
f.write( MOL.save_string_xyz() )
f.close()
--------------------------------------------------------------------------

    Molecular point group: c1
  Charge       = 0
  Multiplicity = 1
  Basis Set: CC-PVTZ
  Basis Set:
  @DF-RHF Final Energy:  -345.00627832490323
    Total Energy =                       -345.0062783249027802
    Molecular point group: c1
  Basis Set: CC-PVTZ
  Basis Set:
  Basis Set: CC-PVTZ
  Basis Set:
  @DF-RHF Final Energy:  -345.01964507318786
    Total Energy =                       -345.0196450731880873
  Basis Set: CC-PVTZ
  Basis Set:
  Basis Set: CC-PVTZ
  Basis Set:
  @DF-RHF Final Energy:  -345.00602518071128
    Total Energy =                       -345.0060251807109353
  Basis Set: CC-PVTZ
  Basis Set:
  Basis Set: CC-PVTZ
  Basis Set:
  @DF-RHF Final Energy:  -345.02199814750117
    Total Energy =                       -345.0219981475009945
  Basis Set: CC-PVTZ
  Basis Set:
  @DF-RHF Final Energy:  -345.01699911352171
    Total Energy =                       -345.0169991135215355
  @DF-RHF Final Energy:  -345.02354831161608
    Total Energy =                       -345.0235483116161959
  @DF-RHF Final Energy:  -345.02395705652145
    Total Energy =                       -345.0239570565217377
  @DF-RHF Final Energy:  -345.02421372455660
    Total Energy =                       -345.0242137245561480
  @DF-RHF Final Energy:  -345.02432021941968
    Total Energy =                       -345.0243202194196215
  @DF-RHF Final Energy:  -345.02435942755784
    Total Energy =                       -345.0243594275577834
  Basis Set: CC-PVTZ
  Basis Set:
  @DF-RHF Final Energy:  -345.02436625255262
    Total Energy =                       -345.0243662525524542
  Basis Set: CC-PVTZ
  Basis Set:
  Basis Set: CC-PVTZ
  Basis Set:
  @DF-RHF Final Energy:  -345.02436758004097
    Total Energy =                       -345.0243675800411438
  Basis Set: CC-PVTZ
  Basis Set:
  Basis Set: CC-PVTZ
  Basis Set:
  @DF-RHF Final Energy:  -345.02436906898623
    Total Energy =                       -345.0243690689867435
  Basis Set: CC-PVTZ
  Basis Set:
  Charge       = 0
  Multiplicity = 1
  Basis Set: CC-PVTZ
  Basis Set:

    Orbital Energies (a.u.)
    -----------------------

    Doubly Occupied:

       1A    -20.579062     2A    -20.534684     3A    -11.368474
       4A    -11.302707     5A    -11.237527     6A    -11.225274
       7A    -11.220137     8A     -1.459411     9A     -1.366720
      10A     -1.076969    11A     -1.015115    12A     -0.954842
      13A     -0.855280    14A     -0.777269    15A     -0.699416
      16A     -0.670452    17A     -0.657082    18A     -0.613906
      19A     -0.603366    20A     -0.590085    21A     -0.560974
      22A     -0.556387    23A     -0.552036    24A     -0.523872
      25A     -0.508438    26A     -0.482779    27A     -0.447273
      28A     -0.437329

  @DF-RHF Final Energy:  -345.02436962055850

   => Energetics <=

    Nuclear Repulsion Energy =            322.1538326498735501
    One-Electron Energy =               -1108.6026677582335651
    Two-Electron Energy =                 441.4244654878016263
    DFT Exchange-Correlation Energy =       0.0000000000000000
    Empirical Dispersion Energy =           0.0000000000000000
    PCM Polarization Energy =               0.0000000000000000
    EFP Energy =                            0.0000000000000000
    Total Energy =                       -345.0243696205584456
    Molecular point group: c1
  Basis Set: CC-PVTZ
  Basis Set:

  -Total Gradient:
     Atom            X                  Y                   Z
    ------   -----------------  -----------------  -----------------
       1        0.000555851950     0.001374188321     0.001827830982
       2       -0.000047962800    -0.001129292313    -0.002595981818
       3       -0.000022347953     0.000068677919     0.000017761619
       4       -0.001638217604    -0.001894717393     0.000632580056
       5        0.000003077585    -0.000003172559    -0.000009319106
       6        0.000013331763    -0.000005690078    -0.000002116511
       7        0.000000193486    -0.000035130002     0.000001557957
       8        0.001136917532     0.001613532098     0.000159879933
       9        0.000007491301     0.000014571235    -0.000007227598
      10       -0.000004400532     0.000010409205    -0.000006058154
      11       -0.000005503503     0.000007049312    -0.000002031855
      12       -0.000004232328     0.000011720068    -0.000003916392
      13       -0.000008408903    -0.000007558973    -0.000002655623
      14        0.000011430854    -0.000010465509    -0.000008523102
      15        0.000000685239    -0.000001621117     0.000011589042
      16       -0.000002583442    -0.000000651218    -0.000001989329
      17        0.000004677357    -0.000011848997    -0.000011380102

  **** Optimization is complete! (in 14 steps) ****
    Final optimized geometry and variables:
    Molecular point group: c1

    Geometry (in Angstrom), charge = 0, multiplicity = 1:

    O           -0.718290809717     1.658594210945    -1.388969102364
    C           -0.796876724166     0.700897386175    -0.708095633252
    C           -2.097739515492     0.231411785675    -0.104841382762
    O            0.273930873982    -0.072667488418    -0.503332748618
    H           -2.372635122633    -0.709723877105    -0.566080139421
    H           -2.861219669121     0.966359315019    -0.299855835679
    H           -2.018279369693     0.064007478392     0.960095815555
    C            0.691614872948    -0.478704055349     0.798798746042
    C            2.135585513995    -0.040797674033     0.960566182693
    C            0.513617049996    -1.979448964917     0.940852026754
    H            0.089411892430     0.031045651626     1.540765521948
    H            2.221907679303     1.031131228111     0.842480701618
    H            2.503866245554    -0.313582094842     1.942861991418
    H            2.758003096862    -0.516272014738     0.212812776061
    H            0.859095990889    -2.310244814237     1.913241526933
    H           -0.525705474106    -2.263500580918     0.835509837625
    H            1.085028160189    -2.495296039918     0.178852471135

  Mulliken Charges: (a.u.)
   Center  Symbol    Alpha    Beta     Spin     Total
       1     O     4.17404  4.17404  0.00000 -0.34809
       2     C     2.81695  2.81695  0.00000  0.36610
       3     C     3.16062  3.16062  0.00000 -0.32125
       4     O     4.16014  4.16014  0.00000 -0.32028
       5     H     0.44264  0.44264  0.00000  0.11473
       6     H     0.42874  0.42874  0.00000  0.14252
       7     H     0.45010  0.45010  0.00000  0.09980
       8     C     2.94508  2.94508  0.00000  0.10983
       9     C     3.13586  3.13586  0.00000 -0.27171
      10     C     3.13997  3.13997  0.00000 -0.27993
      11     H     0.45217  0.45217  0.00000  0.09565
      12     H     0.44257  0.44257  0.00000  0.11485
      13     H     0.45518  0.45518  0.00000  0.08965
      14     H     0.44916  0.44916  0.00000  0.10167
      15     H     0.45085  0.45085  0.00000  0.09831
      16     H     0.44854  0.44854  0.00000  0.10292
      17     H     0.44739  0.44739  0.00000  0.10522

   Total alpha = 28.00000, Total beta = 28.00000, Total charge = -0.00000

*** Psi4 exiting successfully. Buy a developer a beer!
