  ==> Input File <==

--------------------------------------------------------------------------
set {
	reference rhf
	basis 6-31G*
}

set_num_threads( 4 )
memory 2 gb

molecule MOL {
0 1

H	 1.275169	 1.751947	 -3.618045
O	 2.193831	 1.528911	 -3.580790
C	 2.749562	 2.009217	 -2.383075
C	 2.314268	 1.214110	 -1.157086
H	 3.822426	 1.934010	 -2.505477
H	 2.512780	 3.064110	 -2.249232
C	 0.813848	 1.292756	 -0.864815
H	 2.604693	 0.176272	 -1.298198
H	 2.870077	 1.585049	 -0.297523
C	 0.417350	 0.529255	 0.401943
H	 0.263443	 0.897374	 -1.713987
H	 0.519801	 2.337124	 -0.759114
C	 -1.061682	 0.646471	 0.788033
H	 0.675869	 -0.521327	 0.282392
H	 1.019490	 0.896741	 1.230243
C	 -2.037799	 -0.007733	 -0.193645
H	 -1.196547	 0.190489	 1.766659
H	 -1.319875	 1.697682	 0.906902
C	 -3.489788	 0.042957	 0.286558
H	 -1.748131	 -1.045920	 -0.349760
H	 -1.972261	 0.476246	 -1.165124
C	 -4.216917	 1.317354	 -0.141063
H	 -4.025645	 -0.823308	 -0.095450
H	 -3.513059	 -0.038752	 1.371301
H	 -4.239342	 1.411634	 -1.223113
H	 -5.243387	 1.322503	 0.212445
H	 -3.726170	 2.201406	 0.256408

	symmetry c1
}
set optking {
	frozen_dihedral = ("
		20 16 19 22
	")
}

ee = optimize('scf')
oeprop('DIPOLE', 'QUADRUPOLE', 'MULLIKEN_CHARGES')
f=open( 'psi4out.xyz', 'w' )
f.write( "27  " )
f.write( str(ee) + "\n" )
f.write( MOL.save_string_xyz() )
f.close()
--------------------------------------------------------------------------

    Molecular point group: c1
  Charge       = 0
  Multiplicity = 1
  Basis Set: 6-31G*
  Basis Set:
  @DF-RHF Final Energy:  -388.27848060645186
    Total Energy =                       -388.2784806064520353
    Molecular point group: c1
  Basis Set: 6-31G*
  Basis Set:
  Basis Set: 6-31G*
  Basis Set:
  @DF-RHF Final Energy:  -388.27868626991744
    Total Energy =                       -388.2786862699178982
  Basis Set: 6-31G*
  Basis Set:
  Basis Set: 6-31G*
  Basis Set:
  @DF-RHF Final Energy:  -388.27875857234386
    Total Energy =                       -388.2787585723435768
  Basis Set: 6-31G*
  Basis Set:
  Basis Set: 6-31G*
  Basis Set:
  @DF-RHF Final Energy:  -388.27876580470809
    Total Energy =                       -388.2787658047080868
  Basis Set: 6-31G*
  Basis Set:
  Basis Set: 6-31G*
  Basis Set:
  @DF-RHF Final Energy:  -388.27876681483764
    Total Energy =                       -388.2787668148378089
  Basis Set: 6-31G*
  Basis Set:
  Charge       = 0
  Multiplicity = 1
  Basis Set: 6-31G*
  Basis Set:

    Orbital Energies (a.u.)
    -----------------------

    Doubly Occupied:

       1A    -20.552324     2A    -11.267069     3A    -11.219830
       4A    -11.217341     5A    -11.216174     6A    -11.215916
       7A    -11.215235     8A    -11.214218     9A    -11.210022
      10A     -1.359076    11A     -1.094890    12A     -1.060774
      13A     -1.010410    14A     -0.947534    15A     -0.890522
      16A     -0.825159    17A     -0.800353    18A     -0.774467
      19A     -0.693783    20A     -0.649096    21A     -0.624040
      22A     -0.617470    23A     -0.613235    24A     -0.589208
      25A     -0.579433    26A     -0.554065    27A     -0.533709
      28A     -0.528204    29A     -0.512637    30A     -0.491372
      31A     -0.487495    32A     -0.476552    33A     -0.470310
      34A     -0.453709    35A     -0.451982    36A     -0.441951
      37A     -0.422865

  @DF-RHF Final Energy:  -388.27876737635052

   => Energetics <=

    Nuclear Repulsion Energy =            463.0056383547623682
    One-Electron Energy =               -1444.0039508921965989
    Two-Electron Energy =                 592.7195451610837154
    DFT Exchange-Correlation Energy =       0.0000000000000000
    Empirical Dispersion Energy =           0.0000000000000000
    PCM Polarization Energy =               0.0000000000000000
    EFP Energy =                            0.0000000000000000
    Total Energy =                       -388.2787673763505154
    Molecular point group: c1
  Basis Set: 6-31G*
  Basis Set:

  -Total Gradient:
     Atom            X                  Y                   Z
    ------   -----------------  -----------------  -----------------
       1       -0.000000288071    -0.000001631755     0.000000731602
       2        0.000001903284     0.000001950564    -0.000001199946
       3       -0.000004278893    -0.000002205375    -0.000001805665
       4        0.000001061794     0.000003286416     0.000002543749
       5       -0.000000950580    -0.000001152721     0.000001610909
       6        0.000000570246     0.000001001890    -0.000000207653
       7        0.000000725747     0.000013808851     0.000002768704
       8        0.000000914434    -0.000000703501     0.000003164007
       9        0.000000153254     0.000003155662    -0.000000539308
      10       -0.000002398726     0.000008917971    -0.000004876217
      11        0.000006584116    -0.000001979444    -0.000002846222
      12       -0.000005937796    -0.000002351828    -0.000002249777
      13        0.000007339451     0.000021416065     0.000004296308
      14       -0.000006933406    -0.000003525569    -0.000013705292
      15       -0.000000467609    -0.000017906882     0.000001273178
      16        0.000869842172    -0.000558261767     0.003035595665
      17        0.000015593260    -0.000005943049    -0.000001851874
      18       -0.000014516202    -0.000004983552     0.000011191476
      19        0.000717259995     0.001605028152     0.002033139212
      20       -0.000916364785     0.000095524497    -0.003069236953
      21        0.000016779314    -0.000029929341    -0.000010188371
      22       -0.000677438511    -0.001111727909    -0.001964096992
      23        0.000011915709     0.000008580906    -0.000019015561
      24       -0.000021081269    -0.000025471179    -0.000000984166
      25       -0.000014620503    -0.000008625425    -0.000000381846
      26        0.000008378510     0.000008930275     0.000012799599
      27        0.000006255068     0.000004798049    -0.000015928561

  **** Optimization is complete! (in 6 steps) ****
    Final optimized geometry and variables:
    Molecular point group: c1

    Geometry (in Angstrom), charge = 0, multiplicity = 1:

    H            1.468666717281     0.829569826414    -2.792584333392
    O            2.386124271360     0.599398527571    -2.773233007473
    C            2.963214418494     1.054947943435    -1.575968088453
    C            2.542883779668     0.239825309943    -0.357927892873
    H            4.033549648135     0.976203354883    -1.716754785126
    H            2.734541157689     2.108481869000    -1.419326889037
    C            1.047401665129     0.319692515517    -0.041775489974
    H            2.826405967119    -0.796560328521    -0.521842381572
    H            3.113267318960     0.592956963179     0.499581147273
    C            0.666526278646    -0.464980736049     1.216963743743
    H            0.482895478337    -0.056925336792    -0.890118146654
    H            0.759982675166     1.363181986280     0.087734800535
    C           -0.807397963247    -0.354167347404     1.624464593283
    H            0.923334179247    -1.513568127624     1.077301698773
    H            1.279579246697    -0.110806689185     2.043024889680
    C           -1.790928815187    -1.033687971929     0.667296347233
    H           -0.924839171989    -0.800179072363     2.609695815688
    H           -1.069288401672     0.696575053614     1.736005045448
    C           -3.260643511514    -0.915257384806     1.104708071027
    H           -1.525866017645    -2.082998922348     0.558134883654
    H           -1.693071290035    -0.609506108249    -0.329267249619
    C           -3.945048988352     0.361632681173     0.613264639071
    H           -3.815722147957    -1.766980944609     0.720159179877
    H           -3.327938020393    -0.977141438297     2.188317470292
    H           -3.964609858364     0.395031790003    -0.472203010725
    H           -4.970985191822     0.416165291488     0.964439131403
    H           -3.432262448431     1.253759893483     0.961514335613

  Mulliken Charges: (a.u.)
   Center  Symbol    Alpha    Beta     Spin     Total
       1     H     0.27988  0.27988  0.00000  0.44023
       2     O     4.37093  4.37093  0.00000 -0.74186
       3     C     2.99742  2.99742  0.00000  0.00516
       4     C     3.16088  3.16088  0.00000 -0.32176
       5     H     0.41443  0.41443  0.00000  0.17113
       6     H     0.43201  0.43201  0.00000  0.13597
       7     C     3.16308  3.16308  0.00000 -0.32616
       8     H     0.41496  0.41496  0.00000  0.17008
       9     H     0.42435  0.42435  0.00000  0.15131
      10     C     3.15243  3.15243  0.00000 -0.30486
      11     H     0.42303  0.42303  0.00000  0.15393
      12     H     0.42543  0.42543  0.00000  0.14913
      13     C     3.15424  3.15424  0.00000 -0.30848
      14     H     0.42154  0.42154  0.00000  0.15691
      15     H     0.42142  0.42142  0.00000  0.15717
      16     C     3.15595  3.15595  0.00000 -0.31191
      17     H     0.42087  0.42087  0.00000  0.15825
      18     H     0.42358  0.42358  0.00000  0.15284
      19     C     3.15384  3.15384  0.00000 -0.30768
      20     H     0.42089  0.42089  0.00000  0.15822
      21     H     0.42334  0.42334  0.00000  0.15333
      22     C     3.23986  3.23986  0.00000 -0.47971
      23     H     0.42032  0.42032  0.00000  0.15935
      24     H     0.42200  0.42200  0.00000  0.15600
      25     H     0.42202  0.42202  0.00000  0.15597
      26     H     0.41930  0.41930  0.00000  0.16139
      27     H     0.42199  0.42199  0.00000  0.15602

   Total alpha = 37.00000, Total beta = 37.00000, Total charge = -0.00000
