  ==> Input File <==

--------------------------------------------------------------------------
set {
	reference rhf
	basis 6-31G*
}

set_num_threads( 4 )
memory 2 gb

molecule MOL {
0 1

O	 -0.253722	 0.131800	 2.098422
C	 0.019178	 -0.477767	 1.114706
C	 1.206621	 -1.397709	 0.959945
O	 -0.698257	 -0.426125	 0.001050
C	 2.061223	 -1.486991	 2.217979
H	 1.785659	 -1.041306	 0.113223
H	 0.826750	 -2.372862	 0.670049
H	 2.451464	 -0.514905	 2.493888
H	 2.898067	 -2.157709	 2.054745
H	 1.483965	 -1.858822	 3.055737
C	 -1.853104	 0.406779	 0.000512
C	 -3.066105	 -0.499277	 -0.000959
H	 -1.828410	 1.043074	 -0.873618
H	 -1.829857	 1.042383	 0.875188
H	 -3.071820	 -1.133106	 -0.880383
H	 -3.972708	 0.097145	 -0.001528
H	 -3.073405	 -1.133813	 0.877999

	symmetry c1
}
set optking {
	frozen_dihedral = ("
		2 4 11 13
	")
}

ee = optimize('scf')
oeprop('DIPOLE', 'QUADRUPOLE', 'MULLIKEN_CHARGES')
f=open( 'psi4out.xyz', 'w' )
f.write( "17  " )
f.write( str(ee) + "\n" )
f.write( MOL.save_string_xyz() )
f.close()
--------------------------------------------------------------------------

    Molecular point group: c1
  Charge       = 0
  Multiplicity = 1
  Basis Set: 6-31G*
  Basis Set:
  @DF-RHF Final Energy:  -344.90911370303303
    Total Energy =                       -344.9091137030334835
    Molecular point group: c1
  Basis Set: 6-31G*
  Basis Set:
  Basis Set: 6-31G*
  Basis Set:
  @DF-RHF Final Energy:  -344.90969258199658
    Total Energy =                       -344.9096925819965236
  Basis Set: 6-31G*
  Basis Set:
  Basis Set: 6-31G*
  Basis Set:
  @DF-RHF Final Energy:  -344.91009545803928
    Total Energy =                       -344.9100954580389384
  Basis Set: 6-31G*
  Basis Set:
  Basis Set: 6-31G*
  Basis Set:
  @DF-RHF Final Energy:  -344.91013071950113
    Total Energy =                       -344.9101307195008417
  Basis Set: 6-31G*
  Basis Set:
  @DF-RHF Final Energy:  -344.91023122015781
    Total Energy =                       -344.9102312201579821
  Basis Set: 6-31G*
  Basis Set:
  @DF-RHF Final Energy:  -344.91016499634418
    Total Energy =                       -344.9101649963446903
  Basis Set: 6-31G*
  Basis Set:
  Basis Set: 6-31G*
  Basis Set:
  @DF-RHF Final Energy:  -344.91023340160353
    Total Energy =                       -344.9102334016033637
  Basis Set: 6-31G*
  Basis Set:
  Basis Set: 6-31G*
  Basis Set:
  @DF-RHF Final Energy:  -344.91024634599404
    Total Energy =                       -344.9102463459938690
  Basis Set: 6-31G*
  Basis Set:
  Charge       = 0
  Multiplicity = 1
  Basis Set: 6-31G*
  Basis Set:

    Orbital Energies (a.u.)
    -----------------------

    Doubly Occupied:

       1A    -20.599987     2A    -20.544043     3A    -11.372981
       4A    -11.283324     5A    -11.237110     6A    -11.221088
       7A    -11.215432     8A     -1.465203     9A     -1.362452
      10A     -1.069234    11A     -1.029882    12A     -0.914064
      13A     -0.851475    14A     -0.765460    15A     -0.702036
      16A     -0.680546    17A     -0.659560    18A     -0.624637
      19A     -0.601818    20A     -0.568401    21A     -0.552858
      22A     -0.531710    23A     -0.520445    24A     -0.514472
      25A     -0.495412    26A     -0.493762    27A     -0.447489
      28A     -0.436993

  @DF-RHF Final Energy:  -344.91024644290530

   => Energetics <=

    Nuclear Repulsion Energy =            316.2040368067831650
    One-Electron Energy =               -1096.7048221295624444
    Two-Electron Energy =                 435.5905388798741456
    DFT Exchange-Correlation Energy =       0.0000000000000000
    Empirical Dispersion Energy =           0.0000000000000000
    PCM Polarization Energy =               0.0000000000000000
    EFP Energy =                            0.0000000000000000
    Total Energy =                       -344.9102464429051338
    Molecular point group: c1
  Basis Set: 6-31G*
  Basis Set:

  -Total Gradient:
     Atom            X                  Y                   Z
    ------   -----------------  -----------------  -----------------
       1       -0.000019612399     0.000002094027    -0.000010202056
       2        0.000556683170     0.000739619755    -0.000332159610
       3        0.000027807156     0.000027893586    -0.000006597892
       4       -0.000666494717    -0.000956127803     0.000621163190
       5       -0.000006765359    -0.000026426810     0.000006483241
       6       -0.000003351737    -0.000010741752    -0.000007524675
       7        0.000002640748    -0.000001087989     0.000010796263
       8       -0.000003190946     0.000001393914    -0.000006200022
       9        0.000003267257    -0.000000453030     0.000003017098
      10        0.000005930211     0.000001843811     0.000003986543
      11       -0.000400570055    -0.000579913456    -0.000835390688
      12       -0.000000160380     0.000012888782    -0.000007542948
      13        0.000501096615     0.000780175660     0.000561771166
      14       -0.000008135612     0.000003288495    -0.000000013846
      15        0.000002560579     0.000000731457    -0.000001498559
      16        0.000000720758    -0.000001051185    -0.000000090120
      17        0.000007574713     0.000005872536     0.000000002910

  **** Optimization is complete! (in 9 steps) ****
    Final optimized geometry and variables:
    Molecular point group: c1

    Geometry (in Angstrom), charge = 0, multiplicity = 1:

    O            0.147690086385     0.639448907576     1.220303002961
    C            0.408762541089     0.053176315236     0.219608305415
    C            1.604790872559    -0.849758758595     0.031613313109
    O           -0.321102301483     0.105230583507    -0.887650280958
    C            2.476641978594    -0.955652152408     1.276432143183
    H            2.168515036121    -0.469154152288    -0.814857967807
    H            1.232018955022    -1.822747176411    -0.274042289172
    H            2.859327260877     0.014824899116     1.567985752623
    H            3.318911114726    -1.612894704870     1.088058028247
    H            1.914865457169    -1.352047307962     2.113480935325
    C           -1.487012746871     0.924913661347    -0.925945457059
    C           -2.728386149254     0.054618576731    -0.953019194446
    H           -1.400552578928     1.517743016686    -1.826495614269
    H           -1.487187304401     1.585360838941    -0.074434270200
    H           -2.701077819491    -0.629801681010    -1.793412831107
    H           -3.615076476557     0.674388503005    -1.043420669873
    H           -2.809520750932    -0.523841562806    -0.039302592541

  Mulliken Charges: (a.u.)
   Center  Symbol    Alpha    Beta     Spin     Total
       1     O     4.28631  4.28631  0.00000 -0.57263
       2     C     2.60569  2.60569  0.00000  0.78862
       3     C     3.20555  3.20555  0.00000 -0.41109
       4     O     4.31457  4.31457  0.00000 -0.62914
       5     C     3.23876  3.23876  0.00000 -0.47752
       6     H     0.40064  0.40064  0.00000  0.19872
       7     H     0.40079  0.40079  0.00000  0.19843
       8     H     0.40997  0.40997  0.00000  0.18005
       9     H     0.41835  0.41835  0.00000  0.16331
      10     H     0.41022  0.41022  0.00000  0.17956
      11     C     3.01201  3.01201  0.00000 -0.02403
      12     C     3.24822  3.24822  0.00000 -0.49644
      13     H     0.41257  0.41257  0.00000  0.17485
      14     H     0.39503  0.39503  0.00000  0.20995
      15     H     0.41258  0.41258  0.00000  0.17485
      16     H     0.41757  0.41757  0.00000  0.16487
      17     H     0.41118  0.41118  0.00000  0.17765

   Total alpha = 28.00000, Total beta = 28.00000, Total charge =  0.00000
