                              Psi4 1.0.54 Driver

  ==> Input File <==

--------------------------------------------------------------------------
set {
	reference rhf
	basis cc-pvtz
}

set_num_threads( 4 )
memory 2 gb

molecule MOL {
0 1

H	 -2.694651	 2.098837	 1.350818
C	 -2.103078	 1.439097	 1.981428
O	 -0.806525	 1.306380	 1.503018
H	 -2.047768	 1.863682	 2.973172
H	 -2.607969	 0.476593	 2.041059
C	 -0.718530	 0.758693	 0.228682
C	 0.718529	 0.758687	 -0.228709
H	 -1.087702	 -0.266816	 0.232396
H	 -1.318516	 1.328568	 -0.477497
O	 1.401606	 -0.295166	 0.366636
H	 0.748705	 0.673477	 -1.312803
H	 1.176496	 1.708671	 0.046552
C	 2.714315	 -0.441627	 -0.061017
H	 2.765292	 -0.641548	 -1.128869
H	 3.305661	 0.447341	 0.150952
H	 3.143725	 -1.278506	 0.470147

	symmetry c1
}
set optking {
	frozen_dihedral = ("
		3 6 7 11
	")
}

ee,wfn = optimize('scf', return_wfn=True)
oeprop( wfn, 'DIPOLE', 'QUADRUPOLE', 'MULLIKEN_CHARGES')
f=open( 'psi4out.xyz', 'w' )
f.write( "16  " )
f.write( str(ee) + "\n" )
f.write( MOL.save_string_xyz() )
f.close()
--------------------------------------------------------------------------

    Molecular point group: c1
  Charge       = 0
  Multiplicity = 1
  Basis Set: CC-PVTZ
  Basis Set:
  @DF-RHF Final Energy:  -307.09730855877314
    Total Energy =                       -307.0973085587731930
    Molecular point group: c1
  Basis Set: CC-PVTZ
  Basis Set:
  Basis Set: CC-PVTZ
  Basis Set:
  @DF-RHF Final Energy:  -307.09772312221469
    Total Energy =                       -307.0977231222149726
  Basis Set: CC-PVTZ
  Basis Set:
  Basis Set: CC-PVTZ
  Basis Set:
  @DF-RHF Final Energy:  -307.09777011622975
    Total Energy =                       -307.0977701162296398
  Basis Set: CC-PVTZ
  Basis Set:
  Charge       = 0
  Multiplicity = 1
  Basis Set: CC-PVTZ
  Basis Set:

    Orbital Energies (a.u.)
    -----------------------

    Doubly Occupied:

       1A    -20.548460     2A    -20.548234     3A    -11.267388
       4A    -11.266706     5A    -11.261900     6A    -11.261815
       7A     -1.391594     8A     -1.375180     9A     -1.031867
      10A     -0.937738    11A     -0.891475    12A     -0.825562
      13A     -0.685652    14A     -0.683536    15A     -0.659439
      16A     -0.637117    17A     -0.634278    18A     -0.599117
      19A     -0.547203    20A     -0.538744    21A     -0.510050
      22A     -0.480506    23A     -0.464912    24A     -0.424299
      25A     -0.413398

  @DF-RHF Final Energy:  -307.09777219845523

   => Energetics <=

    Nuclear Repulsion Energy =            258.4837788822476341
    One-Electron Energy =                -931.3907510901284468
    Two-Electron Energy =                 365.8092000094256946
    DFT Exchange-Correlation Energy =       0.0000000000000000
    Empirical Dispersion Energy =           0.0000000000000000
    PCM Polarization Energy =               0.0000000000000000
    EFP Energy =                            0.0000000000000000
    Total Energy =                       -307.0977721984551181
    Molecular point group: c1
  Basis Set: CC-PVTZ
  Basis Set:

  -Total Gradient:
     Atom            X                  Y                   Z
    ------   -----------------  -----------------  -----------------
       1       -0.000006681644    -0.000005253442     0.000034386692
       2       -0.000145888422     0.000052988219     0.000002361306
       3       -0.000000320501     0.001067330351    -0.000607026492
       4        0.000009400005    -0.000014536238    -0.000018012961
       5        0.000011811347    -0.000008803859     0.000011515341
       6        0.000164527570    -0.001104217621     0.000641933387
       7       -0.000186578348    -0.001587054741     0.000130214911
       8       -0.000007783802     0.000029133493     0.000031349547
       9       -0.000019610518     0.000022059482     0.000007151534
      10        0.000033575419     0.000058829393    -0.000033407889
      11        0.000057883439     0.001555184791    -0.000218379616
      12        0.000043505824    -0.000028906338     0.000013260406
      13       -0.000002018837    -0.000044863121    -0.000012443293
      14        0.000011139777    -0.000000854525     0.000011896257
      15        0.000012198419     0.000011747144     0.000007452601
      16        0.000024840273    -0.000002782986    -0.000002251729

  **** Optimization is complete! (in 4 steps) ****
    Final optimized geometry and variables:
    Molecular point group: c1

    Geometry (in Angstrom), charge = 0, multiplicity = 1:

    H           -2.921136629896     1.452617817979     0.754302593179
    C           -2.221354048105     0.900316525589     1.378837375078
    O           -0.961212457126     0.836034082361     0.798978833796
    H           -2.123876269743     1.411116520851     2.325635244787
    H           -2.628955013036    -0.092108947927     1.556862788138
    C           -0.932252449136     0.210611019345    -0.442975008545
    C            0.494166857247     0.098680012070    -0.923030781459
    H           -1.370189548158    -0.783073563685    -0.386925682009
    H           -1.505933777000     0.791042805869    -1.165237944600
    O            1.127819054206    -0.958157716118    -0.279852411147
    H            0.499269503726    -0.051086434964    -2.002412120875
    H            1.007498538713     1.035782849965    -0.719240059323
    C            2.479663271080    -1.080034069695    -0.572774045558
    H            2.645153717103    -1.242581200624    -1.636214336593
    H            3.033919712156    -0.194588547251    -0.270151104688
    H            2.860648593064    -1.931739924887    -0.028393476502

  Mulliken Charges: (a.u.)
   Center  Symbol    Alpha    Beta     Spin     Total
       1     H     0.47362  0.47362  0.00000  0.05276
       2     C     3.03169  3.03169  0.00000 -0.06338
       3     O     4.17156  4.17156  0.00000 -0.34311
       4     H     0.44641  0.44641  0.00000  0.10717
       5     H     0.46995  0.46995  0.00000  0.06011
       6     C     2.96018  2.96018  0.00000  0.07964
       7     C     2.95972  2.95972  0.00000  0.08056
       8     H     0.47024  0.47024  0.00000  0.05952
       9     H     0.47639  0.47639  0.00000  0.04721
      10     O     4.17147  4.17147  0.00000 -0.34294
      11     H     0.47642  0.47642  0.00000  0.04715
      12     H     0.47072  0.47072  0.00000  0.05855
      13     C     3.03182  3.03182  0.00000 -0.06365
      14     H     0.47345  0.47345  0.00000  0.05309
      15     H     0.46994  0.46994  0.00000  0.06011
      16     H     0.44640  0.44640  0.00000  0.10721

   Total alpha = 25.00000, Total beta = 25.00000, Total charge = -0.00000

*** Psi4 exiting successfully. Buy a developer a beer!
