  ==> Input File <==

--------------------------------------------------------------------------
set {
	reference rhf
	basis 6-31G*
}

set_num_threads( 1 )
memory 2 gb

molecule MOL {
0 1

O	 -0.988096	 -1.408613	 0.050699
C	 -0.676749	 -0.249230	 -0.009274
C	 -1.746085	 0.827156	 -0.009539
N	 0.623947	 0.147590	 -0.102813
H	 -1.701500	 1.431508	 -0.908902
H	 -2.703425	 0.330732	 0.036390
H	 -1.647323	 1.487769	 0.845106
C	 1.614383	 -0.816228	 -0.540954
C	 1.153945	 1.339917	 0.521451
H	 2.340374	 -0.323678	 -1.178409
H	 1.129713	 -1.602626	 -1.092873
H	 2.141440	 -1.253204	 0.304436
H	 1.961398	 1.729436	 -0.087100
H	 0.405292	 2.111829	 0.602712
H	 1.550489	 1.136599	 1.514541

	symmetry c1
}
set optking {
	frozen_dihedral = ("
		2 4 8 10
	")
}

ee = energy('scf')
oeprop('DIPOLE', 'QUADRUPOLE', 'MULLIKEN_CHARGES')
f=open( 'psi4out.xyz', 'w' )
f.write( "15  " )
f.write( str(ee) + "\n" )
f.write( MOL.save_string_xyz() )
f.close()
--------------------------------------------------------------------------

    Molecular point group: c1

    Geometry (in Angstrom), charge = 0, multiplicity = 1:

       Center              X                  Y                   Z               Mass
    ------------   -----------------  -----------------  -----------------  -----------------
           O         -0.994783318963    -1.383843025911     0.062785839505    15.994914619560
           C         -0.683436318963    -0.224460025911     0.002812839505    12.000000000000
           C         -1.752772318963     0.851925974089     0.002547839505    12.000000000000
           N          0.617259681037     0.172359974089    -0.090726160495    14.003074004780
           H         -1.708187318963     1.456277974089    -0.896815160495     1.007825032070
           H         -2.710112318963     0.355501974089     0.048476839505     1.007825032070
           H         -1.654010318963     1.512538974089     0.857192839505     1.007825032070
           C          1.607695681037    -0.791458025911    -0.528867160495    12.000000000000
           C          1.147257681037     1.364686974089     0.533537839505    12.000000000000
           H          2.333686681037    -0.298908025911    -1.166322160495     1.007825032070
           H          1.123025681037    -1.577856025911    -1.080786160495     1.007825032070
           H          2.134752681037    -1.228434025911     0.316522839505     1.007825032070
           H          1.954710681037     1.754205974089    -0.075013160495     1.007825032070
           H          0.398604681037     2.136598974089     0.614798839505     1.007825032070
           H          1.543801681037     1.161368974089     1.526627839505     1.007825032070

  Charge       = 0
  Multiplicity = 1
  Basis Set: 6-31G*
  Basis Set:

    Orbital Energies (a.u.)
    -----------------------

    Doubly Occupied:

       1A    -20.520197     2A    -15.578109     3A    -11.342198
       4A    -11.266185     5A    -11.248915     6A    -11.226955
       7A     -1.386692     8A     -1.241876     9A     -1.012129
      10A     -0.973305    11A     -0.918147    12A     -0.738032
      13A     -0.679108    14A     -0.657085    15A     -0.650996
      16A     -0.594365    17A     -0.576336    18A     -0.569811
      19A     -0.558724    20A     -0.548067    21A     -0.531402
      22A     -0.495920    23A     -0.413328    24A     -0.364547

  @DF-RHF Final Energy:  -286.02368520488159

   => Energetics <=

    Nuclear Repulsion Energy =            252.0125224142392995
    One-Electron Energy =                -887.8873433955577639
    Two-Electron Energy =                 349.8511357764361946
    DFT Exchange-Correlation Energy =       0.0000000000000000
    Empirical Dispersion Energy =           0.0000000000000000
    PCM Polarization Energy =               0.0000000000000000
    EFP Energy =                            0.0000000000000000
    Total Energy =                       -286.0236852048822129

  Mulliken Charges: (a.u.)
   Center  Symbol    Alpha    Beta     Spin     Total
       1     O     4.29471  4.29471  0.00000 -0.58941
       2     C     2.63487  2.63487  0.00000  0.73025
       3     C     3.29233  3.29233  0.00000 -0.58466
       4     N     3.82109  3.82109  0.00000 -0.64219
       5     H     0.40533  0.40533  0.00000  0.18935
       6     H     0.39240  0.39240  0.00000  0.21519
       7     H     0.40998  0.40998  0.00000  0.18004
       8     C     3.13875  3.13875  0.00000 -0.27749
       9     C     3.14240  3.14240  0.00000 -0.28480
      10     H     0.41934  0.41934  0.00000  0.16131
      11     H     0.39350  0.39350  0.00000  0.21301
      12     H     0.41899  0.41899  0.00000  0.16203
      13     H     0.41280  0.41280  0.00000  0.17441
      14     H     0.40892  0.40892  0.00000  0.18217
      15     H     0.41460  0.41460  0.00000  0.17080

   Total alpha = 24.00000, Total beta = 24.00000, Total charge =  0.00000
