                              Psi4 1.0.54 Driver

  ==> Input File <==

--------------------------------------------------------------------------
set {
	reference rhf
	basis cc-pvtz
}

set_num_threads( 4 )
memory 2 gb

molecule MOL {
0 1

H	 -2.825106	 -0.008222	 -0.803321
O	 -2.313989	 -0.142475	 -0.025864
C	 -0.943808	 -0.065018	 -0.330000
H	 -0.812293	 -0.225641	 -1.398673
C	 -0.231030	 -1.182113	 0.407592
C	 -0.353797	 1.300461	 0.050970
H	 -0.312800	 -0.992012	 1.473041
H	 -0.738841	 -2.119564	 0.220514
C	 1.246176	 -1.268044	 -0.015480
H	 -0.539537	 2.008579	 -0.751815
H	 -0.889989	 1.662858	 0.920677
C	 1.153605	 1.231851	 0.356834
H	 1.823096	 -1.684665	 0.802361
H	 1.352335	 -1.958223	 -0.845114
C	 1.826409	 0.100723	 -0.416008
H	 1.622968	 2.181508	 0.128734
H	 1.301983	 1.066493	 1.419367
H	 2.897299	 0.112407	 -0.249665
H	 1.683458	 0.265621	 -1.480024

	symmetry c1
}
set optking {
	frozen_dihedral = ("
		1 2 3 4
	")
}

ee,wfn = optimize('scf', return_wfn=True)
oeprop( wfn, 'DIPOLE', 'QUADRUPOLE', 'MULLIKEN_CHARGES')
f=open( 'psi4out.xyz', 'w' )
f.write( "19  " )
f.write( str(ee) + "\n" )
f.write( MOL.save_string_xyz() )
f.close()
--------------------------------------------------------------------------

    Molecular point group: c1
  Charge       = 0
  Multiplicity = 1
  Basis Set: CC-PVTZ
  Basis Set:
  @DF-RHF Final Energy:  -309.16197626092628
    Total Energy =                       -309.1619762609264512
    Molecular point group: c1
  Basis Set: CC-PVTZ
  Basis Set:
  Basis Set: CC-PVTZ
  Basis Set:
  @DF-RHF Final Energy:  -309.16214363508374
    Total Energy =                       -309.1621436350840781
  Basis Set: CC-PVTZ
  Basis Set:
  Basis Set: CC-PVTZ
  Basis Set:
  @DF-RHF Final Energy:  -309.16220188605570
    Total Energy =                       -309.1622018860557546
  Basis Set: CC-PVTZ
  Basis Set:
  Charge       = 0
  Multiplicity = 1
  Basis Set: CC-PVTZ
  Basis Set:

    Orbital Energies (a.u.)
    -----------------------

    Doubly Occupied:

       1A    -20.542451     2A    -11.268276     3A    -11.213292
       4A    -11.212699     5A    -11.211999     6A    -11.207064
       7A    -11.206432     8A     -1.361983     9A     -1.108896
      10A     -1.001011    11A     -0.989314    12A     -0.842060
      13A     -0.834150    14A     -0.731357    15A     -0.712734
      16A     -0.657051    17A     -0.627080    18A     -0.591811
      19A     -0.566411    20A     -0.545826    21A     -0.538946
      22A     -0.517036    23A     -0.497535    24A     -0.488769
      25A     -0.462578    26A     -0.449914    27A     -0.430455
      28A     -0.408681

  @DF-RHF Final Energy:  -309.16220275013393

   => Energetics <=

    Nuclear Repulsion Energy =            331.6400444802197853
    One-Electron Energy =               -1077.1528748363573413
    Two-Electron Energy =                 436.3506276060035702
    DFT Exchange-Correlation Energy =       0.0000000000000000
    Empirical Dispersion Energy =           0.0000000000000000
    PCM Polarization Energy =               0.0000000000000000
    EFP Energy =                            0.0000000000000000
    Total Energy =                       -309.1622027501339858
    Molecular point group: c1
  Basis Set: CC-PVTZ
  Basis Set:

  -Total Gradient:
     Atom            X                  Y                   Z
    ------   -----------------  -----------------  -----------------
       1       -0.000001853719    -0.001111888784    -0.000200854929
       2        0.000062483279     0.001609292042     0.000165198762
       3       -0.000007654581    -0.001409431515     0.000181980557
       4       -0.000098808373     0.000971025458    -0.000134715689
       5        0.000043891811     0.000010615806     0.000031031459
       6       -0.000048524086     0.000005328789    -0.000028472564
       7       -0.000013550787    -0.000001663355     0.000008194175
       8       -0.000011397064     0.000003599588    -0.000002175740
       9       -0.000006618370     0.000023915229    -0.000009207285
      10       -0.000028800048    -0.000006066834    -0.000008671071
      11       -0.000008188933    -0.000016150734    -0.000019717329
      12        0.000018803962    -0.000054611497     0.000034925877
      13        0.000014464309     0.000010994365    -0.000012668557
      14        0.000020855375     0.000022175501    -0.000012089942
      15        0.000032484043     0.000002983847     0.000008466374
      16        0.000011343764    -0.000018414747    -0.000009647506
      17        0.000012215704     0.000000020761     0.000011379265
      18        0.000007297872    -0.000013098685     0.000001017302
      19        0.000001555846    -0.000028625237    -0.000003973159

  **** Optimization is complete! (in 4 steps) ****
    Final optimized geometry and variables:
    Molecular point group: c1

    Geometry (in Angstrom), charge = 0, multiplicity = 1:

    H           -2.838902200776     0.034480795418    -0.777314159283
    O           -2.318876494161    -0.118626070510    -0.011880920077
    C           -0.945934720948    -0.069452538888    -0.327640877904
    H           -0.824953192102    -0.221341358862    -1.397494155083
    C           -0.221696138565    -1.187981731281     0.400278974146
    C           -0.358432285502     1.296932255934     0.053271502031
    H           -0.307549616525    -1.007577920480     1.467238307953
    H           -0.721510095980    -2.128425927545     0.205753442527
    C            1.257906224901    -1.260732700930    -0.018515579987
    H           -0.546484490226     2.003035401140    -0.749743808280
    H           -0.903869535689     1.656253529789     0.917256170238
    C            1.147329457027     1.234514149829     0.365933024095
    H            1.835949130864    -1.675667858375     0.799425134692
    H            1.371668668391    -1.947842843392    -0.849984789453
    C            1.829158949896     0.113244534650    -0.412678866318
    H            1.612341780325     2.188553224981     0.146922073251
    H            1.293501953509     1.061939196267     1.427834303120
    H            2.900203628715     0.130364629758    -0.247434554796
    H            1.684217666943     0.282411728108    -1.476026583836

  Mulliken Charges: (a.u.)
   Center  Symbol    Alpha    Beta     Spin     Total
       1     H     0.39322  0.39322  0.00000  0.21355
       2     O     4.20457  4.20457  0.00000 -0.40914
       3     C     2.92609  2.92609  0.00000  0.14783
       4     H     0.46727  0.46727  0.00000  0.06546
       5     C     3.09582  3.09582  0.00000 -0.19165
       6     C     3.11164  3.11164  0.00000 -0.22329
       7     H     0.45300  0.45300  0.00000  0.09399
       8     H     0.44351  0.44351  0.00000  0.11299
       9     C     3.11344  3.11344  0.00000 -0.22687
      10     H     0.45383  0.45383  0.00000  0.09234
      11     H     0.44472  0.44472  0.00000  0.11056
      12     C     3.10082  3.10082  0.00000 -0.20163
      13     H     0.44730  0.44730  0.00000  0.10540
      14     H     0.44804  0.44804  0.00000  0.10392
      15     C     3.10286  3.10286  0.00000 -0.20573
      16     H     0.44272  0.44272  0.00000  0.11455
      17     H     0.45303  0.45303  0.00000  0.09393
      18     H     0.44305  0.44305  0.00000  0.11391
      19     H     0.45507  0.45507  0.00000  0.08987

   Total alpha = 28.00000, Total beta = 28.00000, Total charge =  0.00000

*** Psi4 exiting successfully. Buy a developer a beer!
