  ==> Input File <==

--------------------------------------------------------------------------
set {
	reference rhf
	basis 6-31G*
}

set_num_threads( 1 )
memory 2 gb

molecule MOL {
0 1

O	 2.862325	 1.357334	 0.000267
C	 2.843464	 0.164689	 -0.000222
C	 1.546494	 -0.624492	 -0.000609
C	 4.124123	 -0.644674	 -0.000428
C	 0.291004	 0.242674	 0.000989
H	 1.557904	 -1.283758	 -0.867573
H	 1.558622	 -1.285963	 0.864672
C	 -0.994322	 -0.586602	 0.000262
H	 0.309117	 0.896430	 -0.865270
H	 0.309661	 0.894078	 0.869017
C	 -2.259874	 0.272531	 0.000494
H	 -1.004862	 -1.240012	 -0.870939
H	 -1.005220	 -1.241071	 0.870675
C	 -3.400792	 -0.330048	 -0.821222
H	 -2.022588	 1.262114	 -0.386081
H	 -2.594447	 0.419316	 1.025926
C	 -4.661395	 0.533978	 -0.816352
H	 -3.067926	 -0.476133	 -1.846738
H	 -3.639908	 -1.318658	 -0.434786
H	 -4.462923	 1.519153	 -1.228891
H	 -5.451514	 0.081114	 -1.407391
H	 -5.039640	 0.669709	 0.192931
H	 4.165367	 -1.288615	 -0.874074
H	 4.976217	 0.020734	 -0.001915
H	 4.166763	 -1.286207	 0.874930

	symmetry c1
}
set optking {
	frozen_dihedral = ("
		9 5 8 12,
		15 11 14 18,
		1 2 3 6,
		9 5 3 6
	")
}

ee = energy('scf')
oeprop('DIPOLE', 'QUADRUPOLE', 'MULLIKEN_CHARGES')
f=open( 'psi4out.xyz', 'w' )
f.write( "25  " )
f.write( str(ee) + "\n" )
f.write( MOL.save_string_xyz() )
f.close()
--------------------------------------------------------------------------

    Molecular point group: c1

    Geometry (in Angstrom), charge = 0, multiplicity = 1:

       Center              X                  Y                   Z               Mass
    ------------   -----------------  -----------------  -----------------  -----------------
           O          2.828655848608     1.307687445484     0.185704404240    15.994914619560
           C          2.809794848608     0.115042445484     0.185215404240    12.000000000000
           C          1.512824848608    -0.674138554516     0.184828404240    12.000000000000
           C          4.090453848608    -0.694320554516     0.185009404240    12.000000000000
           C          0.257334848608     0.193027445484     0.186426404240    12.000000000000
           H          1.524234848608    -1.333404554516    -0.682135595760     1.007825032070
           H          1.524952848608    -1.335609554516     1.050109404240     1.007825032070
           C         -1.027991151392    -0.636248554516     0.185699404240    12.000000000000
           H          0.275447848608     0.846783445484    -0.679832595760     1.007825032070
           H          0.275991848608     0.844431445484     1.054454404240     1.007825032070
           C         -2.293543151392     0.222884445484     0.185931404240    12.000000000000
           H         -1.038531151392    -1.289658554516    -0.685501595760     1.007825032070
           H         -1.038889151392    -1.290717554516     1.056112404240     1.007825032070
           C         -3.434461151392    -0.379694554516    -0.635784595760    12.000000000000
           H         -2.056257151392     1.212467445484    -0.200643595760     1.007825032070
           H         -2.628116151392     0.369669445484     1.211363404240     1.007825032070
           C         -4.695064151392     0.484331445484    -0.630914595760    12.000000000000
           H         -3.101595151392    -0.525779554516    -1.661300595760     1.007825032070
           H         -3.673577151392    -1.368304554516    -0.249348595760     1.007825032070
           H         -4.496592151392     1.469506445484    -1.043453595760     1.007825032070
           H         -5.485183151392     0.031467445484    -1.221953595760     1.007825032070
           H         -5.073309151392     0.620062445484     0.378368404240     1.007825032070
           H          4.131697848608    -1.338261554516    -0.688636595760     1.007825032070
           H          4.942547848608    -0.028912554516     0.183522404240     1.007825032070
           H          4.133093848608    -1.335853554516     1.060367404240     1.007825032070

  Charge       = 0
  Multiplicity = 1
  Basis Set: 6-31G*
  Basis Set:

    Orbital Energies (a.u.)
    -----------------------

    Doubly Occupied:

       1A    -20.550414     2A    -11.326253     3A    -11.231573
       4A    -11.228294     5A    -11.217104     6A    -11.215704
       7A    -11.215510     8A    -11.212445     9A    -11.207898
      10A     -1.395732    11A     -1.093654    12A     -1.056076
      13A     -1.014317    14A     -0.969081    15A     -0.890339
      16A     -0.815439    17A     -0.790363    18A     -0.730028
      19A     -0.658477    20A     -0.651878    21A     -0.633084
      22A     -0.622500    23A     -0.598263    24A     -0.583155
      25A     -0.566190    26A     -0.561968    27A     -0.538914
      28A     -0.528979    29A     -0.510069    30A     -0.489016
      31A     -0.487541    32A     -0.476803    33A     -0.464140
      34A     -0.457653    35A     -0.449278    36A     -0.399312

  @DF-RHF Final Energy:  -387.13293795540312

   => Energetics <=

    Nuclear Repulsion Energy =            439.1880593736284482
    One-Electron Energy =               -1394.9670702448831889
    Two-Electron Energy =                 568.6460729158508229
    DFT Exchange-Correlation Energy =       0.0000000000000000
    Empirical Dispersion Energy =           0.0000000000000000
    PCM Polarization Energy =               0.0000000000000000
    EFP Energy =                            0.0000000000000000
    Total Energy =                       -387.1329379554039178

  Mulliken Charges: (a.u.)
   Center  Symbol    Alpha    Beta     Spin     Total
       1     O     4.26125  4.26125  0.00000 -0.52250
       2     C     2.73570  2.73570  0.00000  0.52861
       3     C     3.21117  3.21117  0.00000 -0.42234
       4     C     3.28664  3.28664  0.00000 -0.57329
       5     C     3.14998  3.14998  0.00000 -0.29997
       6     H     0.40993  0.40993  0.00000  0.18013
       7     H     0.41005  0.41005  0.00000  0.17990
       8     C     3.15528  3.15528  0.00000 -0.31056
       9     H     0.41194  0.41194  0.00000  0.17612
      10     H     0.41177  0.41177  0.00000  0.17646
      11     C     3.15252  3.15252  0.00000 -0.30504
      12     H     0.42357  0.42357  0.00000  0.15285
      13     H     0.42304  0.42304  0.00000  0.15392
      14     C     3.15316  3.15316  0.00000 -0.30632
      15     H     0.41991  0.41991  0.00000  0.16017
      16     H     0.42157  0.42157  0.00000  0.15685
      17     C     3.23982  3.23982  0.00000 -0.47965
      18     H     0.42307  0.42307  0.00000  0.15387
      19     H     0.42335  0.42335  0.00000  0.15330
      20     H     0.42098  0.42098  0.00000  0.15804
      21     H     0.41963  0.41963  0.00000  0.16074
      22     H     0.42170  0.42170  0.00000  0.15660
      23     H     0.40875  0.40875  0.00000  0.18249
      24     H     0.39649  0.39649  0.00000  0.20702
      25     H     0.40870  0.40870  0.00000  0.18259

   Total alpha = 36.00000, Total beta = 36.00000, Total charge =  0.00000
