  ==> Input File <==

--------------------------------------------------------------------------
set {
	reference rhf
	basis 6-31G*
}

set_num_threads( 4 )
memory 2 gb

molecule MOL {
0 1

H	 -3.892951	 0.981613	 -0.358725
C	 -3.196921	 0.361773	 0.172313
C	 -2.076860	 -0.007332	 -0.404944
H	 -3.439953	 0.057760	 1.173024
O	 -1.583407	 -1.267384	 -0.279911
H	 -1.496211	 0.654312	 -1.023224
C	 -0.313199	 -1.527019	 -0.770840
C	 0.756502	 -1.210603	 0.249902
H	 -0.096662	 -0.964601	 -1.672223
H	 -0.255746	 -2.582088	 -0.994479
F	 1.946214	 -1.509169	 -0.251348
F	 0.765928	 0.073092	 0.569067
F	 0.599598	 -1.899738	 1.361146

	symmetry c1
}
set optking {
	frozen_dihedral = ("
		6 3 2 1
	")
}

ee = optimize('scf')
oeprop('DIPOLE', 'QUADRUPOLE', 'MULLIKEN_CHARGES')
f=open( 'psi4out.xyz', 'w' )
f.write( "13  " )
f.write( str(ee) + "\n" )
f.write( MOL.save_string_xyz() )
f.close()
--------------------------------------------------------------------------

    Molecular point group: c1
  Charge       = 0
  Multiplicity = 1
  Basis Set: 6-31G*
  Basis Set:
  @DF-RHF Final Energy:  -527.50149716444491
    Total Energy =                       -527.5014971644450270
    Molecular point group: c1
  Basis Set: 6-31G*
  Basis Set:
  Basis Set: 6-31G*
  Basis Set:
  @DF-RHF Final Energy:  -527.51789496340052
    Total Energy =                       -527.5178949634005221
  Basis Set: 6-31G*
  Basis Set:
  Basis Set: 6-31G*
  Basis Set:
  @DF-RHF Final Energy:  -527.52406841157801
    Total Energy =                       -527.5240684115783552
  Basis Set: 6-31G*
  Basis Set:
  Basis Set: 6-31G*
  Basis Set:
  @DF-RHF Final Energy:  -527.52426892866197
    Total Energy =                       -527.5242689286623090
  Basis Set: 6-31G*
  Basis Set:
  Basis Set: 6-31G*
  Basis Set:
  @DF-RHF Final Energy:  -527.52429130410314
    Total Energy =                       -527.5242913041029169
  Basis Set: 6-31G*
  Basis Set:
  Basis Set: 6-31G*
  Basis Set:
  @DF-RHF Final Energy:  -527.52429651827765
    Total Energy =                       -527.5242965182778789
  Basis Set: 6-31G*
  Basis Set:
  Charge       = 0
  Multiplicity = 1
  Basis Set: 6-31G*
  Basis Set:

    Orbital Energies (a.u.)
    -----------------------

    Doubly Occupied:

       1A    -26.344546     2A    -26.343631     3A    -26.340669
       4A    -20.608740     5A    -11.503235     6A    -11.318636
       7A    -11.302840     8A    -11.217087     9A     -1.741755
      10A     -1.639782    11A     -1.638351    12A     -1.438262
      13A     -1.084285    14A     -1.015933    15A     -0.925036
      16A     -0.837249    17A     -0.830951    18A     -0.821746
      19A     -0.792876    20A     -0.720931    21A     -0.711236
      22A     -0.694986    23A     -0.675139    24A     -0.660727
      25A     -0.654534    26A     -0.643097    27A     -0.637475
      28A     -0.582545    29A     -0.562189    30A     -0.517727
      31A     -0.513433    32A     -0.350766

  @DF-RHF Final Energy:  -527.52429704176848

   => Energetics <=

    Nuclear Repulsion Energy =            414.6321977378733550
    One-Electron Energy =               -1552.9722050017048787
    Two-Electron Energy =                 610.8157102220626484
    DFT Exchange-Correlation Energy =       0.0000000000000000
    Empirical Dispersion Energy =           0.0000000000000000
    PCM Polarization Energy =               0.0000000000000000
    EFP Energy =                            0.0000000000000000
    Total Energy =                       -527.5242970417688184
    Molecular point group: c1
  Basis Set: 6-31G*
  Basis Set:

  -Total Gradient:
     Atom            X                  Y                   Z
    ------   -----------------  -----------------  -----------------
       1       -0.012348337240    -0.012828451578    -0.007576503801
       2        0.023294295238     0.018913284040     0.017395715106
       3       -0.023345476258    -0.007719678457    -0.024613449252
       4       -0.000146777052     0.000105897853     0.000002787208
       5       -0.000001548579    -0.000162767517    -0.000063036028
       6        0.012578737062     0.001726813857     0.014875519620
       7       -0.000042360667    -0.000030911093    -0.000024278950
       8       -0.000044107339     0.000004373077     0.000007994593
       9        0.000005448593    -0.000009755099    -0.000000565923
      10        0.000016405755    -0.000016334437    -0.000023550947
      11       -0.000035233532     0.000009425898     0.000034493359
      12        0.000035276022     0.000029973921    -0.000007528909
      13        0.000033678004    -0.000021870464    -0.000007596074

  **** Optimization is complete! (in 7 steps) ****
    Final optimized geometry and variables:
    Molecular point group: c1

    Geometry (in Angstrom), charge = 0, multiplicity = 1:

    H           -3.467048108338     2.089402890508    -0.185497268230
    C           -2.828744129686     1.287277792066     0.135227363451
    C           -1.864631491854     0.831617694973    -0.641743656414
    H           -3.247627293388     0.630258229698     0.877549572189
    O           -1.352063829826    -0.414390028452    -0.446464309144
    H           -1.238149873823     1.464963760860    -1.246727831325
    C           -0.064252881997    -0.676387335849    -0.888882337937
    C            0.974902469444    -0.287933747425     0.138584783258
    H            0.165808080298    -0.157149213409    -1.812888717341
    H            0.016235103357    -1.740364999798    -1.055340051559
    F            2.179804932140    -0.606678830900    -0.311393829567
    F            0.967241311028     1.013184042418     0.376812060923
    F            0.792782054813    -0.908219328788     1.285885507521

  Mulliken Charges: (a.u.)
   Center  Symbol    Alpha    Beta     Spin     Total
       1     H     0.40723  0.40723  0.00000  0.18555
       2     C     3.22842  3.22842  0.00000 -0.45683
       3     C     2.90079  2.90079  0.00000  0.19841
       4     H     0.40478  0.40478  0.00000  0.19044
       5     O     4.29850  4.29850  0.00000 -0.59700
       6     H     0.40761  0.40761  0.00000  0.18479
       7     C     3.06392  3.06392  0.00000 -0.12783
       8     C     2.45591  2.45591  0.00000  1.08818
       9     H     0.40585  0.40585  0.00000  0.18830
      10     H     0.39049  0.39049  0.00000  0.21902
      11     F     4.68279  4.68279  0.00000 -0.36558
      12     F     4.67934  4.67934  0.00000 -0.35868
      13     F     4.67438  4.67438  0.00000 -0.34875

   Total alpha = 32.00000, Total beta = 32.00000, Total charge = -0.00000
