                              Psi4 1.0.54 Driver

  ==> Input File <==

--------------------------------------------------------------------------
set {
	reference rhf
	basis cc-pvtz
}

set_num_threads( 4 )
memory 2 gb

molecule MOL {
0 1

H	 -0.415439	 0.199203	 3.164109
O	 -0.300259	 0.052559	 2.243629
C	 -0.145999	 1.277583	 1.574647
C	 0.027642	 1.012027	 0.090274
H	 0.730079	 1.803454	 1.945744
H	 -1.006728	 1.916796	 1.750753
C	 -1.138737	 0.285728	 -0.581921
H	 0.930984	 0.425408	 -0.041477
H	 0.197925	 1.966419	 -0.402022
C	 -1.933983	 -0.631436	 0.343653
H	 -0.763151	 -0.285569	 -1.422081
H	 -1.808359	 1.035291	 -0.992333
H	 -2.789188	 -1.049673	 -0.174718
H	 -1.335629	 -1.461368	 0.700418
H	 -2.305435	 -0.092167	 1.209725

	symmetry c1
}
set optking {
	frozen_dihedral = ("
		8 4 7 11
	")
}

ee,wfn = optimize('scf', return_wfn=True)
oeprop( wfn, 'DIPOLE', 'QUADRUPOLE', 'MULLIKEN_CHARGES')
f=open( 'psi4out.xyz', 'w' )
f.write( "15  " )
f.write( str(ee) + "\n" )
f.write( MOL.save_string_xyz() )
f.close()
--------------------------------------------------------------------------

    Molecular point group: c1
  Charge       = 0
  Multiplicity = 1
  Basis Set: CC-PVTZ
  Basis Set:
  @DF-RHF Final Energy:  -232.22431589359456
    Total Energy =                       -232.2243158935946781
    Molecular point group: c1
  Basis Set: CC-PVTZ
  Basis Set:
  Basis Set: CC-PVTZ
  Basis Set:
  @DF-RHF Final Energy:  -232.23028690409805
    Total Energy =                       -232.2302869040983069
  Basis Set: CC-PVTZ
  Basis Set:
  Basis Set: CC-PVTZ
  Basis Set:
  @DF-RHF Final Energy:  -232.23171173642220
    Total Energy =                       -232.2317117364220849
  Basis Set: CC-PVTZ
  Basis Set:
  Basis Set: CC-PVTZ
  Basis Set:
  @DF-RHF Final Energy:  -232.23208089698397
    Total Energy =                       -232.2320808969841437
  Basis Set: CC-PVTZ
  Basis Set:
  Basis Set: CC-PVTZ
  Basis Set:
  @DF-RHF Final Energy:  -232.23212899762362
    Total Energy =                       -232.2321289976237608
  Basis Set: CC-PVTZ
  Basis Set:
  Basis Set: CC-PVTZ
  Basis Set:
  @DF-RHF Final Energy:  -232.23214175148917
    Total Energy =                       -232.2321417514892232
  Basis Set: CC-PVTZ
  Basis Set:
  Charge       = 0
  Multiplicity = 1
  Basis Set: CC-PVTZ
  Basis Set:

    Orbital Energies (a.u.)
    -----------------------

    Doubly Occupied:

       1A    -20.545996     2A    -11.267053     3A    -11.211635
       4A    -11.210732     5A    -11.196051     6A     -1.364342
       7A     -1.062185     8A     -0.971336     9A     -0.868214
      10A     -0.773911    11A     -0.706807    12A     -0.650335
      13A     -0.609859    14A     -0.569959    15A     -0.560435
      16A     -0.537111    17A     -0.508179    18A     -0.477291
      19A     -0.462350    20A     -0.453170    21A     -0.429621

  @DF-RHF Final Energy:  -232.23214627970145

   => Energetics <=

    Nuclear Repulsion Energy =            193.0391220309479650
    One-Electron Energy =                -697.6693903547304672
    Two-Electron Energy =                 272.3981220440811057
    DFT Exchange-Correlation Energy =       0.0000000000000000
    Empirical Dispersion Energy =           0.0000000000000000
    PCM Polarization Energy =               0.0000000000000000
    EFP Energy =                            0.0000000000000000
    Total Energy =                       -232.2321462797013965
    Molecular point group: c1
  Basis Set: CC-PVTZ
  Basis Set:

  -Total Gradient:
     Atom            X                  Y                   Z
    ------   -----------------  -----------------  -----------------
       1        0.000002593762     0.000038056969    -0.000052971570
       2       -0.000009769915     0.000014466865    -0.000099934531
       3        0.000005943015     0.000037430943     0.000149305742
       4       -0.001372604982    -0.004312196518     0.006301766820
       5        0.000015262667     0.000007211032    -0.000054867860
       6       -0.000031340084    -0.000012060187    -0.000004501836
       7       -0.000337498982     0.005790118360    -0.004804740472
       8        0.001175040939     0.002617353821    -0.004528962691
       9        0.000005258281     0.000039399355     0.000059364234
      10        0.000055059662     0.000072940676    -0.000011198904
      11        0.000528767094    -0.004245798222     0.003061194901
      12       -0.000001110511    -0.000022958557     0.000023531510
      13       -0.000062233710    -0.000045123929    -0.000041247576
      14        0.000026995125    -0.000010603279    -0.000003755039
      15       -0.000000362359     0.000031762670     0.000007017271

  **** Optimization is complete! (in 7 steps) ****
    Final optimized geometry and variables:
    Molecular point group: c1

    Geometry (in Angstrom), charge = 0, multiplicity = 1:

    H            0.540894939460    -0.022550756040     2.469483974232
    O            0.649142228333    -0.240571595702     1.562276876147
    C            0.530799921332     0.914274108393     0.772941912884
    C            0.674055271808     0.554211945992    -0.694129197007
    H            1.310905437224     1.623578600269     1.036623904251
    H           -0.425626343093     1.403010111387     0.948566443496
    C           -0.530839616325    -0.105203252376    -1.390548585326
    H            1.563167187427    -0.052929951786    -0.825805437780
    H            0.889513511413     1.478844228531    -1.223832764245
    C           -1.356460843511    -1.079641302628    -0.549302137534
    H           -0.153978457593    -0.665522860433    -2.239729571947
    H           -1.188053724925     0.666019045714    -1.778772618321
    H           -2.149024209853    -1.506399193940    -1.154778442967
    H           -0.746946777823    -1.888906819922    -0.168944186452
    H           -1.817450920250    -0.594367342190     0.301781681870

  Mulliken Charges: (a.u.)
   Center  Symbol    Alpha    Beta     Spin     Total
       1     H     0.39623  0.39623  0.00000  0.20754
       2     O     4.19794  4.19794  0.00000 -0.39588
       3     C     2.98374  2.98374  0.00000  0.03253
       4     C     3.09242  3.09242  0.00000 -0.18484
       5     H     0.45913  0.45913  0.00000  0.08175
       6     H     0.46955  0.46955  0.00000  0.06091
       7     C     3.09205  3.09205  0.00000 -0.18410
       8     H     0.45018  0.45018  0.00000  0.09963
       9     H     0.45247  0.45247  0.00000  0.09507
      10     C     3.14207  3.14207  0.00000 -0.28414
      11     H     0.45202  0.45202  0.00000  0.09596
      12     H     0.45411  0.45411  0.00000  0.09177
      13     H     0.45163  0.45163  0.00000  0.09673
      14     H     0.44801  0.44801  0.00000  0.10397
      15     H     0.45845  0.45845  0.00000  0.08310

   Total alpha = 21.00000, Total beta = 21.00000, Total charge = -0.00000

*** Psi4 exiting successfully. Buy a developer a beer!
