  ==> Input File <==

--------------------------------------------------------------------------
set {
	reference rhf
	basis cc-pvtz
}

set_num_threads( 4 )
memory 2 gb

molecule MOL {
0 1

H	 -2.231139	 1.007739	 -2.019719
N	 -1.256703	 0.940207	 -1.817272
C	 -0.776117	 -0.414793	 -2.015143
H	 -1.126347	 1.213447	 -0.866302
C	 0.698395	 -0.506133	 -1.695585
H	 -1.304287	 -1.153999	 -1.414182
H	 -0.914368	 -0.683550	 -3.056636
O	 0.881195	 -0.248324	 -0.336237
H	 1.068775	 -1.500547	 -1.940802
H	 1.247260	 0.218832	 -2.292328
C	 2.208068	 -0.234417	 0.074171
H	 2.725499	 -1.027054	 -0.446768
H	 2.688377	 0.712084	 -0.164856
H	 2.295137	 -0.403407	 1.144883

	symmetry c1
}
set optking {
	frozen_dihedral = ("
		5 8 11 13
	")
}

ee = optimize('scf')
oeprop('DIPOLE', 'QUADRUPOLE', 'MULLIKEN_CHARGES')
f=open( 'psi4out.xyz', 'w' )
f.write( "14  " )
f.write( str(ee) + "\n" )
f.write( MOL.save_string_xyz() )
f.close()
--------------------------------------------------------------------------

    Molecular point group: c1
  Charge       = 0
  Multiplicity = 1
  Basis Set: CC-PVTZ
  Basis Set:
  @DF-RHF Final Energy:  -248.22429124324870
    Total Energy =                       -248.2242912432486150
    Molecular point group: c1
  Basis Set: CC-PVTZ
  Basis Set:
  Basis Set: CC-PVTZ
  Basis Set:
  @DF-RHF Final Energy:  -248.22516326070163
    Total Energy =                       -248.2251632607014926
  Basis Set: CC-PVTZ
  Basis Set:
  Basis Set: CC-PVTZ
  Basis Set:
  @DF-RHF Final Energy:  -248.22537008644119
    Total Energy =                       -248.2253700864412735
  Basis Set: CC-PVTZ
  Basis Set:
  Charge       = 0
  Multiplicity = 1
  Basis Set: CC-PVTZ
  Basis Set:

    Orbital Energies (a.u.)
    -----------------------

    Doubly Occupied:

       1A    -20.549952     2A    -15.523512     3A    -11.263994
       4A    -11.263436     5A    -11.239765     6A     -1.383516
       7A     -1.175960     8A     -1.000589     9A     -0.907639
      10A     -0.815587    11A     -0.685553    12A     -0.675400
      13A     -0.646193    14A     -0.612641    15A     -0.607142
      16A     -0.541836    17A     -0.532220    18A     -0.497333
      19A     -0.474359    20A     -0.418900    21A     -0.383877

  @DF-RHF Final Energy:  -248.22537107249707

   => Energetics <=

    Nuclear Repulsion Energy =            194.6290737521983374
    One-Electron Energy =                -723.3100783235328208
    Two-Electron Energy =                 280.4556334988374147
    DFT Exchange-Correlation Energy =       0.0000000000000000
    Empirical Dispersion Energy =           0.0000000000000000
    PCM Polarization Energy =               0.0000000000000000
    EFP Energy =                            0.0000000000000000
    Total Energy =                       -248.2253710724970688
    Molecular point group: c1
  Basis Set: CC-PVTZ
  Basis Set:

  -Total Gradient:
     Atom            X                  Y                   Z
    ------   -----------------  -----------------  -----------------
       1       -0.000002804320    -0.000000351499    -0.000002104627
       2       -0.000005252532     0.000009764981    -0.000017643784
       3       -0.000007722413    -0.000005096920     0.000124446895
       4        0.000009374673    -0.000007003354    -0.000007576831
       5        0.000027371230    -0.001773695322     0.000289983404
       6       -0.000036418796    -0.000017225049    -0.000002245303
       7        0.000045030756     0.000001157232     0.000021857433
       8       -0.000049641964     0.002901850226     0.000114583022
       9       -0.000003938236    -0.000002129959     0.000035402974
      10        0.000013100554    -0.000004312118    -0.000015442943
      11        0.000794535818    -0.001958533797    -0.002623318433
      12        0.000005717405    -0.000013127390    -0.000016642412
      13       -0.000753285252     0.000857281785     0.002089956791
      14       -0.000036066925     0.000011421182     0.000008743815

  **** Optimization is complete! (in 4 steps) ****
    Final optimized geometry and variables:
    Molecular point group: c1

    Geometry (in Angstrom), charge = 0, multiplicity = 1:

    H           -2.587492492588     1.099657431304    -0.860465540751
    N           -1.612148523072     1.029104964513    -0.663555121731
    C           -1.135192133845    -0.325710136070    -0.871078405963
    H           -1.476515439708     1.296815807696     0.288234083849
    C            0.341428467124    -0.421259664028    -0.562914558057
    H           -1.659961574086    -1.066780476378    -0.269313416557
    H           -1.281518430994    -0.589854347642    -1.912660656276
    O            0.532594678239    -0.173557555082     0.797528101594
    H            0.708661288797    -1.414657666218    -0.814939208463
    H            0.885960938945     0.306119470866    -1.160975480024
    C            1.861244574533    -0.154232742465     1.206414298780
    H            2.434691874325    -0.956153380694     0.749239660136
    H            2.332617498548     0.797268446477     0.973464770177
    H            1.880336270361    -0.286211494851     2.279473526496

  Mulliken Charges: (a.u.)
   Center  Symbol    Alpha    Beta     Spin     Total
       1     H     0.43024  0.43024  0.00000  0.13952
       2     N     3.69418  3.69418  0.00000 -0.38835
       3     C     3.02269  3.02269  0.00000 -0.04538
       4     H     0.42244  0.42244  0.00000  0.15511
       5     C     2.96871  2.96871  0.00000  0.06259
       6     H     0.46463  0.46463  0.00000  0.07074
       7     H     0.45871  0.45871  0.00000  0.08258
       8     O     4.18096  4.18096  0.00000 -0.36192
       9     H     0.46866  0.46866  0.00000  0.06267
      10     H     0.46971  0.46971  0.00000  0.06058
      11     C     3.03115  3.03115  0.00000 -0.06229
      12     H     0.47252  0.47252  0.00000  0.05496
      13     H     0.46559  0.46559  0.00000  0.06883
      14     H     0.44982  0.44982  0.00000  0.10036

   Total alpha = 21.00000, Total beta = 21.00000, Total charge = -0.00000
