                              Psi4 1.0.54 Driver

  ==> Input File <==

--------------------------------------------------------------------------
set {
	reference rhf
	basis cc-pvtz
}

set_num_threads( 4 )
memory 2 gb

molecule MOL {
0 1

H	 -1.150774	 0.161640	 0.788060
N	 -0.712187	 0.000026	 -0.093397
C	 0.734067	 -0.000020	 0.038424
H	 -1.014284	 0.724521	 -0.709262
H	 1.140372	 -0.872115	 -0.458226
H	 1.140363	 0.872301	 -0.457869
H	 1.095085	 -0.000244	 1.065614

	symmetry c1
}
set optking {
	frozen_dihedral = ("
		1 2 3 7
	")
}

ee,wfn = optimize('scf', return_wfn=True)
oeprop( wfn, 'DIPOLE', 'QUADRUPOLE', 'MULLIKEN_CHARGES')
f=open( 'psi4out.xyz', 'w' )
f.write( "7  " )
f.write( str(ee) + "\n" )
f.write( MOL.save_string_xyz() )
f.close()
--------------------------------------------------------------------------

    Molecular point group: c1
  Charge       = 0
  Multiplicity = 1
  Basis Set: CC-PVTZ
  Basis Set:
  @DF-RHF Final Energy:   -95.24967551236858
    Total Energy =                        -95.2496755123685972
    Molecular point group: c1
  Basis Set: CC-PVTZ
  Basis Set:
  Basis Set: CC-PVTZ
  Basis Set:
  @DF-RHF Final Energy:   -95.25049854593746
    Total Energy =                        -95.2504985459374041
  Basis Set: CC-PVTZ
  Basis Set:
  Basis Set: CC-PVTZ
  Basis Set:
  @DF-RHF Final Energy:   -95.25065472261934
    Total Energy =                        -95.2506547226193447
  Basis Set: CC-PVTZ
  Basis Set:
  Basis Set: CC-PVTZ
  Basis Set:
  @DF-RHF Final Energy:   -95.25066177478914
    Total Energy =                        -95.2506617747891369
  Basis Set: CC-PVTZ
  Basis Set:
  Charge       = 0
  Multiplicity = 1
  Basis Set: CC-PVTZ
  Basis Set:

    Orbital Energies (a.u.)
    -----------------------

    Doubly Occupied:

       1A    -15.525572     2A    -11.235520     3A     -1.168682
       4A     -0.897864     5A     -0.666867     6A     -0.600184
       7A     -0.561646     8A     -0.517539     9A     -0.381904

  @DF-RHF Final Energy:   -95.25066276096079

   => Energetics <=

    Nuclear Repulsion Energy =             42.3197272756385559
    One-Electron Energy =                -212.0292251254636540
    Two-Electron Energy =                  74.4588350888643049
    DFT Exchange-Correlation Energy =       0.0000000000000000
    Empirical Dispersion Energy =           0.0000000000000000
    PCM Polarization Energy =               0.0000000000000000
    EFP Energy =                            0.0000000000000000
    Total Energy =                        -95.2506627609607790
    Molecular point group: c1
  Basis Set: CC-PVTZ
  Basis Set:

  -Total Gradient:
     Atom            X                  Y                   Z
    ------   -----------------  -----------------  -----------------
       1       -0.000038922251    -0.001495827832     0.000245505070
       2       -0.000066124876     0.002276328200    -0.000318005208
       3        0.000128145644    -0.002215416914     0.000059164712
       4       -0.000007087863     0.000001463683     0.000002400654
       5        0.000000887886     0.000028398362    -0.000001547650
       6       -0.000024250585     0.000000038223     0.000004767074
       7        0.000007352045     0.001405016278     0.000007715349

  **** Optimization is complete! (in 5 steps) ****
    Final optimized geometry and variables:
    Molecular point group: c1

    Geometry (in Angstrom), charge = 0, multiplicity = 1:

    H           -1.148373728974     0.134358148466     0.825140075784
    N           -0.717287938872    -0.023102563908    -0.057419813080
    C            0.736608281285    -0.031352821091     0.038381805894
    H           -1.049474519356     0.666005418327    -0.693557889249
    H            1.151004106036    -0.909376918414    -0.442917348932
    H            1.187789975715     0.842185690869    -0.421744909483
    H            1.054635420265    -0.038864554733     1.073885479805

  Mulliken Charges: (a.u.)
   Center  Symbol    Alpha    Beta     Spin     Total
       1     H     0.42624  0.42624  0.00000  0.14751
       2     N     3.69033  3.69033  0.00000 -0.38066
       3     C     3.06844  3.06844  0.00000 -0.13688
       4     H     0.42669  0.42669  0.00000  0.14663
       5     H     0.46107  0.46107  0.00000  0.07786
       6     H     0.46587  0.46587  0.00000  0.06826
       7     H     0.46136  0.46136  0.00000  0.07727

   Total alpha =  9.00000, Total beta =  9.00000, Total charge =  0.00000

*** Psi4 exiting successfully. Buy a developer a beer!
