  ==> Input File <==

--------------------------------------------------------------------------
set {
	reference rhf
	basis 6-31G*
}

set_num_threads( 4 )
memory 2 gb

molecule MOL {
0 1

H	 3.895441	 0.352904	 -0.047622
N	 3.092854	 -0.246221	 -0.068770
C	 1.865559	 0.531981	 0.018834
H	 3.172920	 -0.865036	 0.715760
C	 0.645745	 -0.382037	 -0.029944
H	 1.841966	 1.207024	 -0.831236
H	 1.815756	 1.155410	 0.915079
C	 -0.679275	 0.379305	 0.025956
H	 0.698998	 -0.976915	 -0.937203
H	 0.693479	 -1.083846	 0.802235
C	 -1.903357	 -0.536963	 -0.023547
H	 -0.726309	 1.082987	 -0.803784
H	 -0.717680	 0.977832	 0.934877
C	 -3.225172	 0.228290	 0.028445
H	 -1.867824	 -1.134999	 -0.931459
H	 -1.860449	 -1.239604	 0.805977
H	 -3.313397	 0.915643	 -0.808262
H	 -4.073500	 -0.448134	 -0.008893
H	 -3.306061	 0.809945	 0.942516

	symmetry c1
}
set optking {
	frozen_dihedral = ("
		1 2 3 6
	")
}

ee = optimize('scf')
oeprop('DIPOLE', 'QUADRUPOLE', 'MULLIKEN_CHARGES')
f=open( 'psi4out.xyz', 'w' )
f.write( "19  " )
f.write( str(ee) + "\n" )
f.write( MOL.save_string_xyz() )
f.close()
--------------------------------------------------------------------------

    Molecular point group: c1
  Charge       = 0
  Multiplicity = 1
  Basis Set: 6-31G*
  Basis Set:
  @DF-RHF Final Energy:  -251.35171102061861
    Total Energy =                       -251.3517110206187226
    Molecular point group: c1
  Basis Set: 6-31G*
  Basis Set:
  Basis Set: 6-31G*
  Basis Set:
  @DF-RHF Final Energy:  -251.35171423374459
    Total Energy =                       -251.3517142337447012
  Basis Set: 6-31G*
  Basis Set:
  Charge       = 0
  Multiplicity = 1
  Basis Set: 6-31G*
  Basis Set:

    Orbital Energies (a.u.)
    -----------------------

    Doubly Occupied:

       1A    -15.532599     2A    -11.239726     3A    -11.214175
       4A    -11.213023     5A    -11.210016     6A    -11.207659
       7A     -1.176818     8A     -1.073201     9A     -0.998588
      10A     -0.900299    11A     -0.813220    12A     -0.789635
      13A     -0.663659    14A     -0.642651    15A     -0.616991
      16A     -0.589241    17A     -0.564701    18A     -0.547703
      19A     -0.531156    20A     -0.498362    21A     -0.481294
      22A     -0.465270    23A     -0.461405    24A     -0.449424
      25A     -0.381524

  @DF-RHF Final Energy:  -251.35171471725491

   => Energetics <=

    Nuclear Repulsion Energy =            245.6741329805330167
    One-Electron Energy =                -825.5270195301864078
    Two-Electron Energy =                 328.5011718323983132
    DFT Exchange-Correlation Energy =       0.0000000000000000
    Empirical Dispersion Energy =           0.0000000000000000
    PCM Polarization Energy =               0.0000000000000000
    EFP Energy =                            0.0000000000000000
    Total Energy =                       -251.3517147172550494
    Molecular point group: c1
  Basis Set: 6-31G*
  Basis Set:

  -Total Gradient:
     Atom            X                  Y                   Z
    ------   -----------------  -----------------  -----------------
       1       -0.000002290071    -0.000073738797     0.000545504729
       2       -0.000109145387    -0.000021022055    -0.000710621510
       3        0.000374567480     0.000366380478     0.000423948671
       4        0.000019059745     0.000038708844     0.000001729934
       5        0.000025306186     0.000043870233    -0.000028689776
       6       -0.000262446492    -0.000329438353    -0.000290553797
       7       -0.000029429802    -0.000014302752     0.000031437298
       8       -0.000009981066    -0.000005179804     0.000007058068
       9        0.000004916478     0.000017835904    -0.000020319648
      10       -0.000018610349    -0.000009557215     0.000011924572
      11       -0.000001167490    -0.000002966364     0.000025969896
      12        0.000004915880    -0.000015346026     0.000005452879
      13        0.000003013073     0.000001935596    -0.000001053361
      14        0.000002623648     0.000003814677    -0.000012769315
      15        0.000003951158     0.000003488107     0.000007061679
      16       -0.000003443378    -0.000001408345     0.000005605371
      17        0.000000057964     0.000003582039     0.000003091774
      18       -0.000002150221    -0.000001505574    -0.000005722932
      19        0.000000252647    -0.000005150593     0.000000945466

  **** Optimization is complete! (in 3 steps) ****
    Final optimized geometry and variables:
    Molecular point group: c1

    Geometry (in Angstrom), charge = 0, multiplicity = 1:

    H            3.895116849155     0.352906517745    -0.052121761361
    N            3.092622893397    -0.246661974772    -0.071301589319
    C            1.866033059246     0.532410088890     0.020584586929
    H            3.175586187830    -0.860378256116     0.717185615256
    C            0.646073371996    -0.381455050146    -0.030361502844
    H            1.839659142620     1.208357547672    -0.828790358621
    H            1.816799519143     1.152245018209     0.919218301497
    C           -0.678892612026     0.379975245707     0.025714543476
    H            0.699560233540    -0.974651553233    -0.938743235774
    H            0.692491566839    -1.084594204426     0.800884077346
    C           -1.902990363903    -0.536314933972    -0.022907013010
    H           -0.726036497281     1.083100729121    -0.804370532787
    H           -0.716872864863     0.978971473628     0.934345733357
    C           -3.224721887514     0.229161332476     0.027473421733
    H           -1.867177415693    -1.135591236633    -0.929943387809
    H           -1.860489657186    -1.237772935567     0.807645011609
    H           -3.312477186624     0.915437404904    -0.810129615588
    H           -4.073118318701    -0.447254240569    -0.009413906943
    H           -3.305998856576     0.811960983291     0.940785269154

  Mulliken Charges: (a.u.)
   Center  Symbol    Alpha    Beta     Spin     Total
       1     H     0.33269  0.33269  0.00000  0.33461
       2     N     3.92154  3.92154  0.00000 -0.84307
       3     C     3.05963  3.05963  0.00000 -0.11926
       4     H     0.33564  0.33564  0.00000  0.32873
       5     C     3.15266  3.15266  0.00000 -0.30532
       6     H     0.42065  0.42065  0.00000  0.15869
       7     H     0.43482  0.43482  0.00000  0.13036
       8     C     3.15472  3.15472  0.00000 -0.30945
       9     H     0.41294  0.41294  0.00000  0.17412
      10     H     0.42783  0.42783  0.00000  0.14433
      11     C     3.15090  3.15090  0.00000 -0.30180
      12     H     0.42342  0.42342  0.00000  0.15316
      13     H     0.42477  0.42477  0.00000  0.15047
      14     C     3.23933  3.23933  0.00000 -0.47866
      15     H     0.42184  0.42184  0.00000  0.15632
      16     H     0.42330  0.42330  0.00000  0.15339
      17     H     0.42173  0.42173  0.00000  0.15655
      18     H     0.41934  0.41934  0.00000  0.16133
      19     H     0.42225  0.42225  0.00000  0.15550

   Total alpha = 25.00000, Total beta = 25.00000, Total charge = -0.00000
