  ==> Input File <==

--------------------------------------------------------------------------
set {
	reference rhf
	basis 6-31G*
}

set_num_threads( 4 )
memory 2 gb

molecule MOL {
0 1

O	 2.305749	 2.228690	 1.656467
C	 1.984792	 1.509000	 2.551894
C	 0.697214	 0.705116	 2.522713
C	 2.849657	 1.350593	 3.785617
C	 -0.132453	 0.905628	 1.257928
H	 0.957068	 -0.344936	 2.650215
H	 0.119671	 0.968645	 3.407811
C	 -1.420387	 0.080434	 1.264650
H	 0.468901	 0.644447	 0.392892
H	 -0.369666	 1.959445	 1.151405
C	 -2.259874	 0.272531	 0.000494
H	 -1.175360	 -0.974923	 1.375239
H	 -2.017893	 0.346181	 2.135531
C	 -3.549786	 -0.549746	 -0.000374
H	 -1.663800	 0.006494	 -0.870677
H	 -2.506142	 1.327047	 -0.110614
C	 -4.809590	 0.315458	 -0.000369
H	 -3.560515	 -1.202009	 -0.871156
H	 -3.561123	 -1.202955	 0.869711
H	 -4.844746	 0.956611	 -0.876632
H	 -5.706986	 -0.295590	 -0.001609
H	 -4.845960	 0.954827	 0.877144
H	 3.141639	 0.312261	 3.913018
H	 3.734046	 1.965437	 3.692568
H	 2.297889	 1.641498	 4.674752

	symmetry c1
}
set optking {
	frozen_dihedral = ("
		15 11 14 18
	")
}

ee = optimize('scf')
oeprop('DIPOLE', 'QUADRUPOLE', 'MULLIKEN_CHARGES')
f=open( 'psi4out.xyz', 'w' )
f.write( "25  " )
f.write( str(ee) + "\n" )
f.write( MOL.save_string_xyz() )
f.close()
--------------------------------------------------------------------------

    Molecular point group: c1
  Charge       = 0
  Multiplicity = 1
  Basis Set: 6-31G*
  Basis Set:
  @DF-RHF Final Energy:  -387.13068921622158
    Total Energy =                       -387.1306892162220947
    Molecular point group: c1
  Basis Set: 6-31G*
  Basis Set:
  Basis Set: 6-31G*
  Basis Set:
  @DF-RHF Final Energy:  -387.13092736600845
    Total Energy =                       -387.1309273660075405
  Basis Set: 6-31G*
  Basis Set:
  Basis Set: 6-31G*
  Basis Set:
  @DF-RHF Final Energy:  -387.13100909811476
    Total Energy =                       -387.1310090981151006
  Basis Set: 6-31G*
  Basis Set:
  Basis Set: 6-31G*
  Basis Set:
  @DF-RHF Final Energy:  -387.13098077682241
    Total Energy =                       -387.1309807768227529
  Basis Set: 6-31G*
  Basis Set:
  Basis Set: 6-31G*
  Basis Set:
  @DF-RHF Final Energy:  -387.13100073326740
    Total Energy =                       -387.1310007332672285
  Basis Set: 6-31G*
  Basis Set:
  Basis Set: 6-31G*
  Basis Set:
  @DF-RHF Final Energy:  -387.13101233511946
    Total Energy =                       -387.1310123351190668
  Basis Set: 6-31G*
  Basis Set:
  Charge       = 0
  Multiplicity = 1
  Basis Set: 6-31G*
  Basis Set:

    Orbital Energies (a.u.)
    -----------------------

    Doubly Occupied:

       1A    -20.550498     2A    -11.326336     3A    -11.231964
       4A    -11.228373     5A    -11.217413     6A    -11.216488
       7A    -11.215036     8A    -11.213208     9A    -11.208979
      10A     -1.395804    11A     -1.092662    12A     -1.054638
      13A     -1.014104    14A     -0.968869    15A     -0.890910
      16A     -0.817082    17A     -0.789363    18A     -0.729858
      19A     -0.658214    20A     -0.652778    21A     -0.625212
      22A     -0.622107    23A     -0.603400    24A     -0.587393
      25A     -0.569292    26A     -0.557779    27A     -0.531693
      28A     -0.530273    29A     -0.515500    30A     -0.490688
      31A     -0.484783    32A     -0.478090    33A     -0.463932
      34A     -0.454751    35A     -0.449357    36A     -0.399391

  @DF-RHF Final Energy:  -387.13101241178140

   => Energetics <=

    Nuclear Repulsion Energy =            439.6021183106539638
    One-Electron Energy =               -1395.7938222088350813
    Two-Electron Energy =                 569.0606914863991506
    DFT Exchange-Correlation Energy =       0.0000000000000000
    Empirical Dispersion Energy =           0.0000000000000000
    PCM Polarization Energy =               0.0000000000000000
    EFP Energy =                            0.0000000000000000
    Total Energy =                       -387.1310124117819669
    Molecular point group: c1
  Basis Set: 6-31G*
  Basis Set:

  -Total Gradient:
     Atom            X                  Y                   Z
    ------   -----------------  -----------------  -----------------
       1       -0.000000143308    -0.000000242525    -0.000001233228
       2       -0.000002496107     0.000002993901     0.000000416658
       3       -0.000000125304     0.000000414396     0.000002662059
       4       -0.000001016621    -0.000002749545    -0.000000958281
       5        0.000004151321    -0.000002520637    -0.000002762059
       6        0.000000295033    -0.000000367439    -0.000000608527
       7       -0.000000064699    -0.000000182226     0.000001428876
       8        0.000000338314     0.000005039235     0.000000434903
       9       -0.000000245688    -0.000001069206     0.000000196084
      10       -0.000001792425    -0.000000417004    -0.000001025820
      11        0.000601921847    -0.000956339803     0.000689264465
      12       -0.000001037879     0.000000812429    -0.000003747329
      13        0.000000145194     0.000000261689    -0.000000067246
      14       -0.000595765049     0.000956034475    -0.000688473082
      15       -0.000393152426     0.000652956439    -0.000472568849
      16        0.000005147073     0.000000194787    -0.000000503079
      17       -0.000007753703    -0.000005134514    -0.000002863363
      18        0.000393817956    -0.000650959142     0.000480734951
      19       -0.000002506870     0.000000818867     0.000000260386
      20        0.000006131550     0.000006658557     0.000004937303
      21       -0.000002661119     0.000002015137    -0.000008777357
      22       -0.000001854762    -0.000008450344     0.000003569117
      23        0.000000090654    -0.000000208708     0.000000653829
      24       -0.000001050623     0.000000097617    -0.000001099187
      25       -0.000000372365     0.000000343560     0.000000128776

  **** Optimization is complete! (in 7 steps) ****
    Final optimized geometry and variables:
    Molecular point group: c1

    Geometry (in Angstrom), charge = 0, multiplicity = 1:

    O            2.789995910802     1.474791463452     0.215087520675
    C            2.471138044724     0.750437412068     1.107482486928
    C            1.188375832877    -0.060908067836     1.072722459710
    C            3.333953353117     0.593205544586     2.342785225038
    C            0.360556494423     0.138828255572    -0.193435263917
    H            1.454185412421    -1.109796529430     1.197448768583
    H            0.607247074707     0.196395203342     1.957300411271
    C           -0.922344280289    -0.693096664965    -0.192599768084
    H            0.965380701608    -0.116454598826    -1.057923642231
    H            0.117955167075     1.191709183770    -0.297549378356
    C           -1.759690203099    -0.504024969266    -1.459609766326
    H           -0.673388709399    -1.747599034779    -0.083180424631
    H           -1.525984220124    -0.432444505002     0.676048690310
    C           -3.075613363313    -1.314770903015    -1.457929405806
    H           -1.159012510163    -0.769341048595    -2.325587274435
    H           -1.984998263384     0.553993531126    -1.574247252619
    C           -4.330052124176    -0.440863012905    -1.440763142519
    H           -3.108904657783    -1.970662214012    -2.323052018936
    H           -3.095360189835    -1.972688593486    -0.592359469036
    H           -4.376183484417     0.194518364910    -2.320530925704
    H           -5.231980080470    -1.045141708218    -1.420119308776
    H           -4.343865252904     0.205411755857    -0.567207775429
    H            3.631888079698    -0.443762846167     2.467482849944
    H            4.214849145349     1.213636625737     2.253878213596
    H            2.778326767714     0.877861316160     3.231546390223

  Mulliken Charges: (a.u.)
   Center  Symbol    Alpha    Beta     Spin     Total
       1     O     4.26113  4.26113  0.00000 -0.52226
       2     C     2.73570  2.73570  0.00000  0.52859
       3     C     3.21078  3.21078  0.00000 -0.42156
       4     C     3.28664  3.28664  0.00000 -0.57329
       5     C     3.14880  3.14880  0.00000 -0.29759
       6     H     0.40996  0.40996  0.00000  0.18008
       7     H     0.41003  0.41003  0.00000  0.17994
       8     C     3.15560  3.15560  0.00000 -0.31120
       9     H     0.41212  0.41212  0.00000  0.17577
      10     H     0.41208  0.41208  0.00000  0.17585
      11     C     3.15538  3.15538  0.00000 -0.31077
      12     H     0.42426  0.42426  0.00000  0.15148
      13     H     0.42484  0.42484  0.00000  0.15031
      14     C     3.15554  3.15554  0.00000 -0.31107
      15     H     0.41942  0.41942  0.00000  0.16115
      16     H     0.41958  0.41958  0.00000  0.16083
      17     C     3.23958  3.23958  0.00000 -0.47915
      18     H     0.41975  0.41975  0.00000  0.16051
      19     H     0.42111  0.42111  0.00000  0.15779
      20     H     0.42070  0.42070  0.00000  0.15860
      21     H     0.42063  0.42063  0.00000  0.15874
      22     H     0.42249  0.42249  0.00000  0.15502
      23     H     0.40873  0.40873  0.00000  0.18254
      24     H     0.39645  0.39645  0.00000  0.20710
      25     H     0.40870  0.40870  0.00000  0.18260

   Total alpha = 36.00000, Total beta = 36.00000, Total charge =  0.00000
