  ==> Input File <==

--------------------------------------------------------------------------
set {
	reference rhf
	basis cc-pvtz
}

set_num_threads( 4 )
memory 2 gb

molecule MOL {
0 1

H	 -2.498963	 -0.741158	 -0.729149
O	 -2.346257	 -0.289210	 0.080372
C	 -1.183935	 0.486039	 -0.009831
C	 0.062853	 -0.375310	 0.027457
H	 -1.178881	 1.094526	 -0.908634
H	 -1.184406	 1.155156	 0.838676
O	 1.172093	 0.457955	 -0.054438
H	 0.052476	 -1.081302	 -0.804627
H	 0.076323	 -0.955658	 0.947560
C	 2.030748	 0.388357	 1.036015
H	 2.435896	 -0.613579	 1.159523
H	 2.846381	 1.074108	 0.859455
H	 1.526976	 0.671852	 1.957083

	symmetry c1
}
set optking {
	frozen_dihedral = ("
		10 7 4 8
	")
}

ee = optimize('scf')
oeprop('DIPOLE', 'QUADRUPOLE', 'MULLIKEN_CHARGES')
f=open( 'psi4out.xyz', 'w' )
f.write( "13  " )
f.write( str(ee) + "\n" )
f.write( MOL.save_string_xyz() )
f.close()
--------------------------------------------------------------------------

    Molecular point group: c1
  Charge       = 0
  Multiplicity = 1
  Basis Set: CC-PVTZ
  Basis Set:
  @DF-RHF Final Energy:  -268.05861435214388
    Total Energy =                       -268.0586143521438771
    Molecular point group: c1
  Basis Set: CC-PVTZ
  Basis Set:
  Basis Set: CC-PVTZ
  Basis Set:
  @DF-RHF Final Energy:  -268.05895352058951
    Total Energy =                       -268.0589535205893981
  Basis Set: CC-PVTZ
  Basis Set:
  Basis Set: CC-PVTZ
  Basis Set:
  @DF-RHF Final Energy:  -268.05903137462997
    Total Energy =                       -268.0590313746299103
  Basis Set: CC-PVTZ
  Basis Set:
  Charge       = 0
  Multiplicity = 1
  Basis Set: CC-PVTZ
  Basis Set:

    Orbital Energies (a.u.)
    -----------------------

    Doubly Occupied:

       1A    -20.553105     2A    -20.552919     3A    -11.268890
       4A    -11.267930     5A    -11.267229     6A     -1.387363
       7A     -1.368857     8A     -1.017568     9A     -0.918868
      10A     -0.840428    11A     -0.710634    12A     -0.675925
      13A     -0.658895    14A     -0.637046    15A     -0.601282
      16A     -0.577424    17A     -0.532539    18A     -0.500886
      19A     -0.480061    20A     -0.455826    21A     -0.409784

  @DF-RHF Final Energy:  -268.05903261269032

   => Energetics <=

    Nuclear Repulsion Energy =            190.8773771904040188
    One-Electron Energy =                -744.5059062622626698
    Two-Electron Energy =                 285.5694964591682492
    DFT Exchange-Correlation Energy =       0.0000000000000000
    Empirical Dispersion Energy =           0.0000000000000000
    PCM Polarization Energy =               0.0000000000000000
    EFP Energy =                            0.0000000000000000
    Total Energy =                       -268.0590326126904301
    Molecular point group: c1
  Basis Set: CC-PVTZ
  Basis Set:

  -Total Gradient:
     Atom            X                  Y                   Z
    ------   -----------------  -----------------  -----------------
       1       -0.000012814713     0.000003672324     0.000006308245
       2       -0.000026592606    -0.000027299427     0.000012997256
       3       -0.000039627394    -0.000049642089    -0.000071325072
       4        0.000194883878    -0.000125471096     0.000318469728
       5        0.000033908152     0.000022522057     0.000004003500
       6        0.000040998253    -0.000027253080    -0.000001901458
       7        0.000181003818    -0.000282414034    -0.000183393262
       8       -0.000233288620     0.000255663205    -0.000185062381
       9       -0.000010092524    -0.000022947205     0.000013659085
      10       -0.000078062916     0.000254906280     0.000130034455
      11       -0.000030240418     0.000001153419    -0.000013646210
      12        0.000010151535     0.000008439687     0.000005585593
      13       -0.000030226445    -0.000011330039    -0.000035729478

  **** Optimization is complete! (in 4 steps) ****
    Final optimized geometry and variables:
    Molecular point group: c1

    Geometry (in Angstrom), charge = 0, multiplicity = 1:

    H           -2.418113905360    -0.857908108745    -0.982249814487
    O           -2.288116958529    -0.408431124329    -0.167272026044
    C           -1.124238797916     0.368115285681    -0.223485947079
    C            0.126193743846    -0.491442342809    -0.165950222699
    H           -1.097642771237     0.984583068019    -1.116524942586
    H           -1.148948347625     1.032262496414     0.629787739825
    O            1.259490116540     0.319129720404    -0.256847659082
    H            0.126767612965    -1.192985590394    -0.996537173236
    H            0.122267742871    -1.072428539231     0.750512341022
    C            2.138950776984     0.268503307175     0.820418227363
    H            2.566976559101    -0.723370707634     0.940831619715
    H            2.937732960558     0.968708430531     0.623262872089
    H            1.651445600199     0.549828297505     1.750375011280

  Mulliken Charges: (a.u.)
   Center  Symbol    Alpha    Beta     Spin     Total
       1     H     0.39318  0.39318  0.00000  0.21363
       2     O     4.20311  4.20311  0.00000 -0.40621
       3     C     2.96963  2.96963  0.00000  0.06074
       4     C     2.97709  2.97709  0.00000  0.04582
       5     H     0.46668  0.46668  0.00000  0.06663
       6     H     0.45784  0.45784  0.00000  0.08432
       7     O     4.18255  4.18255  0.00000 -0.36511
       8     H     0.46473  0.46473  0.00000  0.07054
       9     H     0.46777  0.46777  0.00000  0.06447
      10     C     3.02930  3.02930  0.00000 -0.05861
      11     H     0.46800  0.46800  0.00000  0.06399
      12     H     0.44902  0.44902  0.00000  0.10196
      13     H     0.47109  0.47109  0.00000  0.05782

   Total alpha = 21.00000, Total beta = 21.00000, Total charge = -0.00000
