  ==> Input File <==

--------------------------------------------------------------------------
set {
	reference rhf
	basis 6-31G*
}

set_num_threads( 1 )
memory 2 gb

molecule MOL {
0 1

O	 1.700701	 1.551674	 -0.443643
C	 1.277624	 0.863288	 -1.315566
C	 -0.036589	 0.121634	 -1.289876
O	 1.923699	 0.657026	 -2.456258
C	 -0.823008	 0.326187	 0.001381
H	 -0.608959	 0.445235	 -2.154971
H	 0.180768	 -0.929951	 -1.456144
C	 -2.149452	 -0.435131	 -0.000098
H	 -1.006284	 1.386461	 0.144272
H	 -0.216295	 0.008860	 0.843706
C	 -3.368779	 0.488503	 -0.000883
H	 -2.193746	 -1.087250	 -0.871175
H	 -2.195311	 -1.087803	 0.870418
C	 -4.693822	 -0.272754	 -0.001129
H	 -3.325798	 1.139422	 -0.871284
H	 -3.326423	 1.139959	 0.869145
H	 -4.781274	 -0.907928	 -0.878124
H	 -5.538651	 0.408946	 -0.001420
H	 -4.781694	 -0.907783	 0.875984
C	 3.175678	 1.300092	 -2.611087
H	 3.061346	 2.373061	 -2.554576
H	 3.536137	 1.013255	 -3.586622
H	 3.866665	 0.975855	 -1.846290

	symmetry c1
}
set optking {
	frozen_dihedral = ("
		15 11 8 12,
		1 2 3 6,
		9 5 3 6,
		1 2 4 20
	")
}

ee = energy('scf')
oeprop('DIPOLE', 'QUADRUPOLE', 'MULLIKEN_CHARGES')
f=open( 'psi4out.xyz', 'w' )
f.write( "23  " )
f.write( str(ee) + "\n" )
f.write( MOL.save_string_xyz() )
f.close()
--------------------------------------------------------------------------

    Molecular point group: c1

    Geometry (in Angstrom), charge = 0, multiplicity = 1:

       Center              X                  Y                   Z               Mass
    ------------   -----------------  -----------------  -----------------  -----------------
           O          1.999805658209     1.028756803059     0.476353122860    15.994914619560
           C          1.576728658209     0.340370803059    -0.395569877140    12.000000000000
           C          0.262515658209    -0.401283196941    -0.369879877140    12.000000000000
           O          2.222803658209     0.134108803059    -1.536261877140    15.994914619560
           C         -0.523903341791    -0.196730196941     0.921377122860    12.000000000000
           H         -0.309854341791    -0.077682196941    -1.234974877140     1.007825032070
           H          0.479872658209    -1.452868196941    -0.536147877140     1.007825032070
           C         -1.850347341791    -0.958048196941     0.919898122860    12.000000000000
           H         -0.707179341791     0.863543803059     1.064268122860     1.007825032070
           H          0.082809658209    -0.514057196941     1.763702122860     1.007825032070
           C         -3.069674341791    -0.034414196941     0.919113122860    12.000000000000
           H         -1.894641341791    -1.610167196941     0.048821122860     1.007825032070
           H         -1.896206341791    -1.610720196941     1.790414122860     1.007825032070
           C         -4.394717341791    -0.795671196941     0.918867122860    12.000000000000
           H         -3.026693341791     0.616504803059     0.048712122860     1.007825032070
           H         -3.027318341791     0.617041803059     1.789141122860     1.007825032070
           H         -4.482169341791    -1.430845196941     0.041872122860     1.007825032070
           H         -5.239546341791    -0.113971196941     0.918576122860     1.007825032070
           H         -4.482589341791    -1.430700196941     1.795980122860     1.007825032070
           C          3.474782658209     0.777174803059    -1.691090877140    12.000000000000
           H          3.360450658209     1.850143803059    -1.634579877140     1.007825032070
           H          3.835241658209     0.490337803059    -2.666625877140     1.007825032070
           H          4.165769658209     0.452937803059    -0.926293877140     1.007825032070

  Charge       = 0
  Multiplicity = 1
  Basis Set: 6-31G*
  Basis Set:

    Orbital Energies (a.u.)
    -----------------------

    Doubly Occupied:

       1A    -20.603427     2A    -20.545322     3A    -11.371720
       4A    -11.280728     5A    -11.235864     6A    -11.217669
       7A    -11.217560     8A    -11.216100     9A    -11.209638
      10A     -1.469143    11A     -1.362584    12A     -1.093865
      13A     -1.042957    14A     -0.986881    15A     -0.932073
      16A     -0.845164    17A     -0.794721    18A     -0.767407
      19A     -0.700331    20A     -0.682293    21A     -0.672352
      22A     -0.637326    23A     -0.620683    24A     -0.598771
      25A     -0.572939    26A     -0.559499    27A     -0.556058
      28A     -0.528130    29A     -0.521146    30A     -0.498852
      31A     -0.494612    32A     -0.471233    33A     -0.464128
      34A     -0.458186    35A     -0.451227    36A     -0.435157

  @DF-RHF Final Energy:  -422.97065073926950

   => Energetics <=

    Nuclear Repulsion Energy =            454.6119969919504342
    One-Electron Energy =               -1476.9338834182815390
    Two-Electron Energy =                 599.3512356870595568
    DFT Exchange-Correlation Energy =       0.0000000000000000
    Empirical Dispersion Energy =           0.0000000000000000
    PCM Polarization Energy =               0.0000000000000000
    EFP Energy =                            0.0000000000000000
    Total Energy =                       -422.9706507392714911

  Mulliken Charges: (a.u.)
   Center  Symbol    Alpha    Beta     Spin     Total
       1     O     4.28593  4.28593  0.00000 -0.57185
       2     C     2.60568  2.60568  0.00000  0.78865
       3     C     3.21050  3.21050  0.00000 -0.42100
       4     O     4.30739  4.30739  0.00000 -0.61478
       5     C     3.15525  3.15525  0.00000 -0.31049
       6     H     0.40062  0.40062  0.00000  0.19876
       7     H     0.40007  0.40007  0.00000  0.19986
       8     C     3.15667  3.15667  0.00000 -0.31333
       9     H     0.40886  0.40886  0.00000  0.18229
      10     H     0.40934  0.40934  0.00000  0.18133
      11     C     3.15367  3.15367  0.00000 -0.30733
      12     H     0.42241  0.42241  0.00000  0.15519
      13     H     0.41879  0.41879  0.00000  0.16242
      14     C     3.24017  3.24017  0.00000 -0.48034
      15     H     0.42356  0.42356  0.00000  0.15287
      16     H     0.42001  0.42001  0.00000  0.15998
      17     H     0.42198  0.42198  0.00000  0.15604
      18     H     0.41878  0.41878  0.00000  0.16244
      19     H     0.42118  0.42118  0.00000  0.15763
      20     C     3.09245  3.09245  0.00000 -0.18490
      21     H     0.40909  0.40909  0.00000  0.18181
      22     H     0.40850  0.40850  0.00000  0.18300
      23     H     0.40912  0.40912  0.00000  0.18177

   Total alpha = 36.00000, Total beta = 36.00000, Total charge =  0.00000
