                              Psi4 1.0.54 Driver

  ==> Input File <==

--------------------------------------------------------------------------
set {
	reference rhf
	basis cc-pvtz
}

set_num_threads( 4 )
memory 2 gb

molecule MOL {
0 1

H	 2.325560	 -2.075069	 -0.132902
N	 1.344514	 -1.900563	 -0.135034
C	 0.977965	 -1.051077	 -1.250318
C	 0.922930	 -1.331409	 1.129155
H	 1.286545	 -1.525999	 -2.173671
H	 1.457344	 -0.071643	 -1.200093
C	 -0.527130	 -0.854445	 -1.260382
H	 1.191631	 -2.009465	 1.930024
H	 1.398832	 -0.369686	 1.329717
C	 -0.582092	 -1.134410	 1.115974
H	 -1.009617	 -1.814052	 -1.467631
H	 -0.797279	 -0.172318	 -2.057779
N	 -0.976577	 -0.298712	 -0.000000
H	 -0.891983	 -0.654715	 2.036831
H	 -1.068366	 -2.113304	 1.072436
C	 -2.391156	 -0.021003	 -0.000000
H	 -2.853954	 -0.458728	 -0.875714
H	 -2.853954	 -0.458728	 0.875714
H	 -2.614037	 1.049773	 -0.000000

	symmetry c1
}
set optking {
	frozen_dihedral = ("
		7 13 16 19
	")
}

ee,wfn = optimize('scf', return_wfn=True)
oeprop( wfn, 'DIPOLE', 'QUADRUPOLE', 'MULLIKEN_CHARGES')
f=open( 'psi4out.xyz', 'w' )
f.write( "19  " )
f.write( str(ee) + "\n" )
f.write( MOL.save_string_xyz() )
f.close()
--------------------------------------------------------------------------

    Molecular point group: c1
  Charge       = 0
  Multiplicity = 1
  Basis Set: CC-PVTZ
  Basis Set:
  @DF-RHF Final Energy:  -305.30241446264694
    Total Energy =                       -305.3024144626472776
    Molecular point group: c1
  Basis Set: CC-PVTZ
  Basis Set:
  Basis Set: CC-PVTZ
  Basis Set:
  @DF-RHF Final Energy:  -305.30296149349664
    Total Energy =                       -305.3029614934965821
  Basis Set: CC-PVTZ
  Basis Set:
  Basis Set: CC-PVTZ
  Basis Set:
  @DF-RHF Final Energy:  -305.30309002148158
    Total Energy =                       -305.3030900214815233
  Basis Set: CC-PVTZ
  Basis Set:
  Charge       = 0
  Multiplicity = 1
  Basis Set: CC-PVTZ
  Basis Set:

    Orbital Energies (a.u.)
    -----------------------

    Doubly Occupied:

       1A    -15.533546     2A    -15.530602     3A    -11.236486
       4A    -11.236466     5A    -11.235631     6A    -11.235582
       7A    -11.232876     8A     -1.246157     9A     -1.185157
      10A     -1.023368    11A     -0.964851    12A     -0.860980
      13A     -0.859150    14A     -0.757028    15A     -0.691877
      16A     -0.631858    17A     -0.624019    18A     -0.606606
      19A     -0.605214    20A     -0.581671    21A     -0.543924
      22A     -0.535591    23A     -0.512357    24A     -0.488319
      25A     -0.466755    26A     -0.457152    27A     -0.365375
      28A     -0.342505

  @DF-RHF Final Energy:  -305.30309193808836

   => Energetics <=

    Nuclear Repulsion Energy =            339.7473355186511412
    One-Electron Energy =               -1086.9186477004059270
    Two-Electron Energy =                 441.8682202436668263
    DFT Exchange-Correlation Energy =       0.0000000000000000
    Empirical Dispersion Energy =           0.0000000000000000
    PCM Polarization Energy =               0.0000000000000000
    EFP Energy =                            0.0000000000000000
    Total Energy =                       -305.3030919380879027
    Molecular point group: c1
  Basis Set: CC-PVTZ
  Basis Set:

  -Total Gradient:
     Atom            X                  Y                   Z
    ------   -----------------  -----------------  -----------------
       1       -0.000024691269     0.000020492776    -0.000001779389
       2       -0.000023336333    -0.000009715083    -0.000005927146
       3        0.000022316165     0.000014420220    -0.000006616795
       4        0.000005203673    -0.000023486512     0.000017719617
       5        0.000039929749    -0.000017822846    -0.000004160661
       6       -0.000005847849    -0.000011347685    -0.000001707927
       7       -0.000166266059    -0.001217369521     0.000368382214
       8        0.000052132158    -0.000021968975     0.000006105260
       9       -0.000019456815    -0.000016290158    -0.000006208319
      10        0.000100548477    -0.000059550784     0.000026713839
      11       -0.000003988373     0.000031108161     0.000022927120
      12       -0.000002785846     0.000001723821     0.000025945426
      13        0.000153888382     0.001652803425    -0.000096218392
      14       -0.000002397245     0.000008225352    -0.000025650695
      15        0.000011018742     0.000039414598    -0.000014022259
      16       -0.000069932715    -0.000359516147    -0.001939801732
      17       -0.000013988097    -0.000003532412    -0.000004881102
      18       -0.000014795961     0.000014280676     0.000004119972
      19       -0.000037550789    -0.000041868903     0.001635060966

  **** Optimization is complete! (in 4 steps) ****
    Final optimized geometry and variables:
    Molecular point group: c1

    Geometry (in Angstrom), charge = 0, multiplicity = 1:

    H            2.542007598697    -1.069365533683    -0.102554749452
    N            1.556337252412    -0.922844599123    -0.098320984883
    C            1.160920733249    -0.068682304833    -1.199699997378
    C            1.124584158461    -0.382913748717     1.174916953449
    H            1.478862230321    -0.521297935429    -2.131283238036
    H            1.612258154809     0.923416064936    -1.137177295515
    C           -0.349166681633     0.085301031760    -1.201047002081
    H            1.417969996141    -1.062550604551     1.966011668926
    H            1.572485139758     0.590305546778     1.385024002741
    C           -0.385765240951    -0.229680156183     1.173502282133
    H           -0.804980091804    -0.883348777842    -1.425249880625
    H           -0.637637391023     0.773304695207    -1.987019059579
    N           -0.810959431043     0.607188232717     0.069157554169
    H           -0.697619515128     0.232584187344     2.102196903593
    H           -0.842668558662    -1.222419141677     1.126695721776
    C           -2.233624978031     0.904659323228     0.080661332946
    H           -2.738064630657     0.504887774177    -0.793728165407
    H           -2.715221117286     0.470521059848     0.949518076785
    H           -2.410949095435     1.974353549234     0.115409983259

  Mulliken Charges: (a.u.)
   Center  Symbol    Alpha    Beta     Spin     Total
       1     H     0.44000  0.44000  0.00000  0.12000
       2     N     3.64276  3.64276  0.00000 -0.28551
       3     C     3.04204  3.04204  0.00000 -0.08408
       4     C     3.04206  3.04206  0.00000 -0.08411
       5     H     0.45274  0.45274  0.00000  0.09452
       6     H     0.46601  0.46601  0.00000  0.06798
       7     C     3.03537  3.03537  0.00000 -0.07073
       8     H     0.45272  0.45272  0.00000  0.09456
       9     H     0.46606  0.46606  0.00000  0.06787
      10     C     3.03479  3.03479  0.00000 -0.06958
      11     H     0.46848  0.46848  0.00000  0.06303
      12     H     0.45350  0.45350  0.00000  0.09300
      13     N     3.61744  3.61744  0.00000 -0.23487
      14     H     0.45370  0.45370  0.00000  0.09260
      15     H     0.46856  0.46856  0.00000  0.06289
      16     C     3.09135  3.09135  0.00000 -0.18270
      17     H     0.46204  0.46204  0.00000  0.07592
      18     H     0.46010  0.46010  0.00000  0.07980
      19     H     0.45029  0.45029  0.00000  0.09942

   Total alpha = 28.00000, Total beta = 28.00000, Total charge = -0.00000

*** Psi4 exiting successfully. Buy a developer a beer!
