  ==> Input File <==

--------------------------------------------------------------------------
set {
	reference rhf
	basis cc-pvtz
}

set_num_threads( 4 )
memory 2 gb

molecule MOL {
0 1

H	 -2.503997	 -0.141253	 1.949854
C	 -2.418060	 -0.648877	 0.991827
O	 -1.133831	 -0.544627	 0.474691
H	 -2.633225	 -1.697894	 1.133794
H	 -3.158061	 -0.229179	 0.312757
C	 -0.718530	 0.758693	 0.228682
C	 0.718529	 0.758687	 -0.228709
H	 -1.335834	 1.211328	 -0.547222
H	 -0.808143	 1.367117	 1.126022
O	 1.401606	 -0.295166	 0.366636
H	 0.748705	 0.673477	 -1.312803
H	 1.176496	 1.708671	 0.046552
C	 2.714315	 -0.441627	 -0.061017
H	 2.765292	 -0.641548	 -1.128869
H	 3.305661	 0.447341	 0.150952
H	 3.143725	 -1.278506	 0.470147

	symmetry c1
}
set optking {
	frozen_dihedral = ("
		3 6 7 11
	")
}

ee = optimize('scf')
oeprop('DIPOLE', 'QUADRUPOLE', 'MULLIKEN_CHARGES')
f=open( 'psi4out.xyz', 'w' )
f.write( "16  " )
f.write( str(ee) + "\n" )
f.write( MOL.save_string_xyz() )
f.close()
--------------------------------------------------------------------------

    Molecular point group: c1
  Charge       = 0
  Multiplicity = 1
  Basis Set: CC-PVTZ
  Basis Set:
  @DF-RHF Final Energy:  -307.08933973135743
    Total Energy =                       -307.0893397313573132
    Molecular point group: c1
  Basis Set: CC-PVTZ
  Basis Set:
  Basis Set: CC-PVTZ
  Basis Set:
  @DF-RHF Final Energy:  -307.09045099194253
    Total Energy =                       -307.0904509919422480
  Basis Set: CC-PVTZ
  Basis Set:
  Basis Set: CC-PVTZ
  Basis Set:
  @DF-RHF Final Energy:  -307.09079412903822
    Total Energy =                       -307.0907941290381586
  Basis Set: CC-PVTZ
  Basis Set:
  Charge       = 0
  Multiplicity = 1
  Basis Set: CC-PVTZ
  Basis Set:

    Orbital Energies (a.u.)
    -----------------------

    Doubly Occupied:

       1A    -20.548109     2A    -20.546060     3A    -11.269325
       4A    -11.268693     5A    -11.261641     6A    -11.260727
       7A     -1.393654     8A     -1.373702     9A     -1.028875
      10A     -0.935904    11A     -0.897500    12A     -0.820058
      13A     -0.688703    14A     -0.678192    15A     -0.661184
      16A     -0.645278    17A     -0.623734    18A     -0.595258
      19A     -0.568546    20A     -0.520517    21A     -0.509039
      22A     -0.475079    23A     -0.469107    24A     -0.422014
      25A     -0.407748

  @DF-RHF Final Energy:  -307.09080976100421

   => Energetics <=

    Nuclear Repulsion Energy =            259.8351612035532412
    One-Electron Energy =                -934.1146509572038212
    Two-Electron Energy =                 367.1886799926462572
    DFT Exchange-Correlation Energy =       0.0000000000000000
    Empirical Dispersion Energy =           0.0000000000000000
    PCM Polarization Energy =               0.0000000000000000
    EFP Energy =                            0.0000000000000000
    Total Energy =                       -307.0908097610042660
    Molecular point group: c1
  Basis Set: CC-PVTZ
  Basis Set:

  -Total Gradient:
     Atom            X                  Y                   Z
    ------   -----------------  -----------------  -----------------
       1       -0.000009320423    -0.000000719304    -0.000003181797
       2       -0.000033430642    -0.000031264421     0.000013554222
       3        0.002480559870     0.000515385747     0.006588581133
       4       -0.000055639410    -0.000001374514     0.000005331802
       5       -0.000031595745    -0.000014071185     0.000016480531
       6       -0.003240363271     0.001714860199    -0.008773837943
       7        0.000612221585    -0.010722761275     0.002394250289
       8        0.000033520660    -0.000026841714    -0.000020600945
       9       -0.000007882743    -0.000071799674     0.000024915096
      10        0.000033663814    -0.000137061182     0.000077857191
      11        0.000168212372     0.008846319009    -0.000314065873
      12        0.000003901491    -0.000097284944     0.000002799656
      13       -0.000139453543     0.000029112725     0.000003707408
      14        0.000029924228     0.000003456060     0.000002840111
      15        0.000064772714     0.000004443903    -0.000012470959
      16        0.000090909043    -0.000010399428    -0.000006159920

  **** Optimization is complete! (in 4 steps) ****
    Final optimized geometry and variables:
    Molecular point group: c1

    Geometry (in Angstrom), charge = 0, multiplicity = 1:

    H           -2.667484698609     0.016357978840     1.635687156183
    C           -2.581303753350    -0.517198456010     0.691147216289
    O           -1.282655884149    -0.478313519613     0.203102294362
    H           -2.842424691057    -1.552851220416     0.852346133735
    H           -3.289051740593    -0.083652603467    -0.013060166437
    C           -0.805786014088     0.801433847833    -0.033709102628
    C            0.625441429262     0.766038016989    -0.552221310011
    H           -1.425813036712     1.329555439774    -0.756940205133
    H           -0.834881458474     1.369453233130     0.895459201460
    O            1.355733442361    -0.246570164759     0.039576763585
    H            0.638483291365     0.709653421743    -1.639984822090
    H            1.070062441238     1.735978888743    -0.319298644550
    C            2.682657374342    -0.298737053111    -0.365643790880
    H            2.765540425528    -0.465273098997    -1.437502636200
    H            3.213303560936     0.618973952579    -0.118761453590
    H            3.153003900411    -1.122180522727     0.151422200721

  Mulliken Charges: (a.u.)
   Center  Symbol    Alpha    Beta     Spin     Total
       1     H     0.47249  0.47249  0.00000  0.05503
       2     C     3.03104  3.03104  0.00000 -0.06207
       3     O     4.16119  4.16119  0.00000 -0.32237
       4     H     0.44565  0.44565  0.00000  0.10869
       5     H     0.47337  0.47337  0.00000  0.05325
       6     C     2.96383  2.96383  0.00000  0.07233
       7     C     2.96226  2.96226  0.00000  0.07548
       8     H     0.47639  0.47639  0.00000  0.04722
       9     H     0.47633  0.47633  0.00000  0.04734
      10     O     4.15970  4.15970  0.00000 -0.31940
      11     H     0.47554  0.47554  0.00000  0.04893
      12     H     0.48044  0.48044  0.00000  0.03912
      13     C     3.03185  3.03185  0.00000 -0.06371
      14     H     0.47131  0.47131  0.00000  0.05739
      15     H     0.47309  0.47309  0.00000  0.05383
      16     H     0.44553  0.44553  0.00000  0.10895

   Total alpha = 25.00000, Total beta = 25.00000, Total charge =  0.00000
