  ==> Input File <==

--------------------------------------------------------------------------
set {
	reference rhf
	basis 6-31G*
}

set_num_threads( 4 )
memory 2 gb

molecule MOL {
0 1

O	 2.890202	 0.621604	 -1.076677
C	 2.701189	 0.057885	 -0.047330
C	 1.720359	 0.479407	 1.019947
O	 3.347903	 -1.046386	 0.304773
C	 0.941425	 1.741024	 0.654300
H	 1.064321	 -0.365607	 1.200937
H	 2.283657	 0.620051	 1.938975
C	 0.018071	 2.241421	 1.770326
H	 0.363562	 1.557262	 -0.246491
H	 1.649102	 2.523114	 0.401415
C	 -1.151781	 1.311773	 2.105456
H	 -0.380996	 3.207334	 1.469527
H	 0.603291	 2.424243	 2.670384
C	 -2.104041	 1.905058	 3.145751
H	 -1.706355	 1.092028	 1.194425
H	 -0.779270	 0.358588	 2.473758
C	 -3.274085	 0.982543	 3.492300
H	 -2.492019	 2.853725	 2.778686
H	 -1.547953	 2.134974	 4.053277
C	 -4.222370	 1.584008	 4.528975
H	 -3.830258	 0.750974	 2.586380
H	 -2.888321	 0.035346	 3.863493
H	 -5.040769	 0.906995	 4.753658
H	 -4.652432	 2.515889	 4.172830
H	 -3.703013	 1.795277	 5.459517
C	 4.728119	 -1.109107	 -0.004993
H	 4.882018	 -1.033965	 -1.071845
H	 5.068212	 -2.067527	 0.355250
H	 5.265056	 -0.311663	 0.488280

	symmetry c1
}
set optking {
	frozen_dihedral = ("
		1 2 4 26
	")
}

ee = optimize('scf')
oeprop('DIPOLE', 'QUADRUPOLE', 'MULLIKEN_CHARGES')
f=open( 'psi4out.xyz', 'w' )
f.write( "29  " )
f.write( str(ee) + "\n" )
f.write( MOL.save_string_xyz() )
f.close()
--------------------------------------------------------------------------

    Molecular point group: c1
  Charge       = 0
  Multiplicity = 1
  Basis Set: 6-31G*
  Basis Set:
  @DF-RHF Final Energy:  -501.03560897771217
    Total Energy =                       -501.0356089777123998
    Molecular point group: c1
  Basis Set: 6-31G*
  Basis Set:
  Basis Set: 6-31G*
  Basis Set:
  @DF-RHF Final Energy:  -501.03279968769493
    Total Energy =                       -501.0327996876949328
  Basis Set: 6-31G*
  Basis Set:
  Basis Set: 6-31G*
  Basis Set:
  @DF-RHF Final Energy:  -501.03622371615734
    Total Energy =                       -501.0362237161566554
  Basis Set: 6-31G*
  Basis Set:
  Basis Set: 6-31G*
  Basis Set:
  @DF-RHF Final Energy:  -501.03628200751393
    Total Energy =                       -501.0362820075138188
  Basis Set: 6-31G*
  Basis Set:
  Basis Set: 6-31G*
  Basis Set:
  @DF-RHF Final Energy:  -501.03628929077229
    Total Energy =                       -501.0362892907718333
  Basis Set: 6-31G*
  Basis Set:
  Charge       = 0
  Multiplicity = 1
  Basis Set: 6-31G*
  Basis Set:

    Orbital Energies (a.u.)
    -----------------------

    Doubly Occupied:

       1A    -20.595764     2A    -20.549324     3A    -11.373222
       4A    -11.284056     5A    -11.235321     6A    -11.219391
       7A    -11.218005     8A    -11.216068     9A    -11.215862
      10A    -11.214558    11A    -11.209095    12A     -1.463906
      13A     -1.363874    14A     -1.098189    15A     -1.066556
      16A     -1.018128    17A     -0.976478    18A     -0.930451
      19A     -0.862677    20A     -0.799884    21A     -0.790820
      22A     -0.762576    23A     -0.699935    24A     -0.677896
      25A     -0.672936    26A     -0.650544    27A     -0.628209
      28A     -0.608446    29A     -0.595068    30A     -0.584495
      31A     -0.564992    32A     -0.553790    33A     -0.533490
      34A     -0.529430    35A     -0.518394    36A     -0.508778
      37A     -0.494546    38A     -0.478214    39A     -0.471248
      40A     -0.462673    41A     -0.460717    42A     -0.452715
      43A     -0.441192    44A     -0.433219

  @DF-RHF Final Energy:  -501.03628948960124

   => Energetics <=

    Nuclear Repulsion Energy =            609.8599134186446236
    One-Electron Energy =               -1890.8221432826812816
    Two-Electron Energy =                 779.9259403744356405
    DFT Exchange-Correlation Energy =       0.0000000000000000
    Empirical Dispersion Energy =           0.0000000000000000
    PCM Polarization Energy =               0.0000000000000000
    EFP Energy =                            0.0000000000000000
    Total Energy =                       -501.0362894896009038
    Molecular point group: c1
  Basis Set: 6-31G*
  Basis Set:

  -Total Gradient:
     Atom            X                  Y                   Z
    ------   -----------------  -----------------  -----------------
       1       -0.007470042677    -0.004831703126    -0.004222114418
       2        0.012039338880     0.008533572875     0.009566562020
       3        0.000050147419     0.000000630842     0.000030747319
       4       -0.006666977058    -0.006523972990    -0.012203217058
       5        0.000005411275    -0.000017298380     0.000027736400
       6       -0.000069166354     0.000022050658    -0.000046432248
       7        0.000004467690    -0.000023949577     0.000010097298
       8        0.000017220455     0.000005020426     0.000009838740
       9       -0.000004778052    -0.000000644038     0.000001249112
      10        0.000006116084    -0.000001630477     0.000003840508
      11       -0.000014495871    -0.000003478148    -0.000019899612
      12        0.000005625446    -0.000010597645    -0.000018049332
      13       -0.000001767689     0.000019050187     0.000001466821
      14        0.000004099857    -0.000004959075     0.000007413878
      15       -0.000017594248     0.000011614904     0.000000113227
      16        0.000007312501    -0.000013844653    -0.000015136593
      17        0.000005367730    -0.000004825986     0.000005213616
      18       -0.000004363111    -0.000010791471    -0.000009324816
      19       -0.000000769880     0.000013808376     0.000001609357
      20        0.000007552295    -0.000003979533     0.000009303972
      21        0.000000155756     0.000006988683    -0.000000211159
      22       -0.000002866167    -0.000004706305    -0.000003946795
      23        0.000001865191    -0.000001225407     0.000001883264
      24        0.000000310304    -0.000002333015    -0.000002440454
      25       -0.000001270077     0.000002900725     0.000001507098
      26        0.002099581792     0.002849820424     0.006847327036
      27        0.000004948835    -0.000003573071     0.000005807268
      28       -0.000000229703     0.000000365767     0.000003095099
      29       -0.000005200632    -0.000002310969     0.000005960460

  **** Optimization is complete! (in 6 steps) ****
    Final optimized geometry and variables:
    Molecular point group: c1

    Geometry (in Angstrom), charge = 0, multiplicity = 1:

    O            2.409724851078    -0.087461018218    -2.458273730003
    C            2.202121766616    -0.658227107447    -1.439244192336
    C            1.199584248835    -0.242210817991    -0.391677470466
    O            2.776432152880    -1.825551679036    -1.128388114194
    C            0.389565131558     0.991173057326    -0.783484952883
    H            0.568056968642    -1.103280058811    -0.199887528437
    H            1.752020862767    -0.071313958278     0.530026678066
    C           -0.553042516505     1.487391848952     0.318182960803
    H           -0.178461363612     0.774720347680    -1.683465506514
    H            1.077338315779     1.787066770235    -1.047899589857
    C           -1.698702498248     0.532415790710     0.665459790757
    H           -0.976680149372     2.436141460687    -0.002903739645
    H            0.022248300984     1.703304856320     1.217398942698
    C           -2.668578486116     1.116245333010     1.694773793146
    H           -2.245176933005     0.284046853145    -0.243054992644
    H           -1.301918653472    -0.404819271296     1.048990561470
    C           -3.812712800911     0.167203428568     2.055869212060
    H           -3.082527711790     2.047333137233     1.311429731110
    H           -2.120375459063     1.376963009054     2.598793630328
    C           -4.777463247406     0.758228282197     3.083318658523
    H           -4.362050380807    -0.093705333339     1.153791055847
    H           -3.400967244953    -0.763084152159     2.441601402890
    H           -5.576560056654     0.062181516395     3.319033104548
    H           -5.233475038463     1.671930576590     2.712652160563
    H           -4.264255269040     0.998683749710     4.010192922679
    C            4.139901394739    -1.987408338117    -1.473983784875
    H            4.280356273878    -1.917228543844    -2.542444060909
    H            4.423805208086    -2.968103207776    -1.125302434748
    H            4.742638023727    -1.235977398639    -0.979138491873

  Mulliken Charges: (a.u.)
   Center  Symbol    Alpha    Beta     Spin     Total
       1     O     4.27489  4.27489  0.00000 -0.54978
       2     C     2.60448  2.60448  0.00000  0.79104
       3     C     3.21242  3.21242  0.00000 -0.42484
       4     O     4.31202  4.31202  0.00000 -0.62403
       5     C     3.15420  3.15420  0.00000 -0.30839
       6     H     0.39667  0.39667  0.00000  0.20667
       7     H     0.40453  0.40453  0.00000  0.19094
       8     C     3.15652  3.15652  0.00000 -0.31304
       9     H     0.41290  0.41290  0.00000  0.17421
      10     H     0.40875  0.40875  0.00000  0.18250
      11     C     3.15506  3.15506  0.00000 -0.31013
      12     H     0.41818  0.41818  0.00000  0.16365
      13     H     0.42428  0.42428  0.00000  0.15143
      14     C     3.15029  3.15029  0.00000 -0.30058
      15     H     0.42229  0.42229  0.00000  0.15541
      16     H     0.42350  0.42350  0.00000  0.15299
      17     C     3.15147  3.15147  0.00000 -0.30295
      18     H     0.42331  0.42331  0.00000  0.15337
      19     H     0.42417  0.42417  0.00000  0.15166
      20     C     3.23935  3.23935  0.00000 -0.47871
      21     H     0.42264  0.42264  0.00000  0.15471
      22     H     0.42338  0.42338  0.00000  0.15324
      23     H     0.41917  0.41917  0.00000  0.16166
      24     H     0.42155  0.42155  0.00000  0.15690
      25     H     0.42192  0.42192  0.00000  0.15616
      26     C     3.09441  3.09441  0.00000 -0.18882
      27     H     0.40328  0.40328  0.00000  0.19344
      28     H     0.40672  0.40672  0.00000  0.18657
      29     H     0.41764  0.41764  0.00000  0.16471

   Total alpha = 44.00000, Total beta = 44.00000, Total charge =  0.00000
