  ==> Input File <==

--------------------------------------------------------------------------
set {
	reference rhf
	basis 6-31G*
}

set_num_threads( 1 )
memory 2 gb

molecule MOL {
0 1

H	 -4.290000	 -0.260530	 -0.758955
C	 -3.444100	 -0.331901	 -0.103197
C	 -2.272853	 -0.682576	 -0.581954
H	 -3.582098	 -0.111544	 0.938586
O	 -1.180634	 -0.819263	 0.215062
H	 -2.112147	 -0.900394	 -1.623071
C	 0.051604	 -1.018856	 -0.387932
C	 1.043764	 0.054862	 -0.001873
H	 -0.017620	 -1.041351	 -1.469781
H	 0.437898	 -1.966374	 -0.042284
F	 2.212596	 -0.199467	 -0.571921
F	 0.652529	 1.252447	 -0.405055
F	 1.230877	 0.110694	 1.300533

	symmetry c1
}
set optking {
	frozen_dihedral = ("
		11 8 7 9,
		6 3 2 1,
		6 3 5 7
	")
}

ee = energy('scf')
oeprop('DIPOLE', 'QUADRUPOLE', 'MULLIKEN_CHARGES')
f=open( 'psi4out.xyz', 'w' )
f.write( "13  " )
f.write( str(ee) + "\n" )
f.write( MOL.save_string_xyz() )
f.close()
--------------------------------------------------------------------------

    Molecular point group: c1

    Geometry (in Angstrom), charge = 0, multiplicity = 1:

       Center              X                  Y                   Z               Mass
    ------------   -----------------  -----------------  -----------------  -----------------
           H         -4.241087007183    -0.109363254240    -0.709036911390     1.007825032070
           C         -3.395187007183    -0.180734254240    -0.053278911390    12.000000000000
           C         -2.223940007183    -0.531409254240    -0.532035911390    12.000000000000
           H         -3.533185007183     0.039622745760     0.988504088610     1.007825032070
           O         -1.131721007183    -0.668096254240     0.264980088610    15.994914619560
           H         -2.063234007183    -0.749227254240    -1.573152911390     1.007825032070
           C          0.100516992817    -0.867689254240    -0.338013911390    12.000000000000
           C          1.092676992817     0.206028745760     0.048045088610    12.000000000000
           H          0.031292992817    -0.890184254240    -1.419862911390     1.007825032070
           H          0.486810992817    -1.815207254240     0.007634088610     1.007825032070
           F          2.261508992817    -0.048300254240    -0.522002911390    18.998403224000
           F          0.701441992817     1.403613745760    -0.355136911390    18.998403224000
           F          1.279789992817     0.261860745760     1.350451088610    18.998403224000

  Charge       = 0
  Multiplicity = 1
  Basis Set: 6-31G*
  Basis Set:

    Orbital Energies (a.u.)
    -----------------------

    Doubly Occupied:

       1A    -26.344213     2A    -26.339518     3A    -26.338897
       4A    -20.608301     5A    -11.503387     6A    -11.318656
       7A    -11.302366     8A    -11.217334     9A     -1.739720
      10A     -1.638482    11A     -1.635335    12A     -1.438335
      13A     -1.085826    14A     -1.016321    15A     -0.923562
      16A     -0.836568    17A     -0.829048    18A     -0.810719
      19A     -0.801431    20A     -0.719016    21A     -0.711788
      22A     -0.696037    23A     -0.677420    24A     -0.658514
      25A     -0.652516    26A     -0.640880    27A     -0.639276
      28A     -0.576200    29A     -0.562618    30A     -0.526653
      31A     -0.517261    32A     -0.352273

  @DF-RHF Final Energy:  -527.53376135093481

   => Energetics <=

    Nuclear Repulsion Energy =            408.2589410466721915
    One-Electron Energy =               -1540.2685166676983499
    Two-Electron Energy =                 604.4758142700918597
    DFT Exchange-Correlation Energy =       0.0000000000000000
    Empirical Dispersion Energy =           0.0000000000000000
    PCM Polarization Energy =               0.0000000000000000
    EFP Energy =                            0.0000000000000000
    Total Energy =                       -527.5337613509343555

  Mulliken Charges: (a.u.)
   Center  Symbol    Alpha    Beta     Spin     Total
       1     H     0.40717  0.40717  0.00000  0.18565
       2     C     3.23571  3.23571  0.00000 -0.47141
       3     C     2.89666  2.89666  0.00000  0.20668
       4     H     0.40074  0.40074  0.00000  0.19853
       5     O     4.30266  4.30266  0.00000 -0.60533
       6     H     0.40746  0.40746  0.00000  0.18508
       7     C     3.05318  3.05318  0.00000 -0.10635
       8     C     2.45450  2.45450  0.00000  1.09101
       9     H     0.40687  0.40687  0.00000  0.18627
      10     H     0.39832  0.39832  0.00000  0.20337
      11     F     4.68288  4.68288  0.00000 -0.36576
      12     F     4.67879  4.67879  0.00000 -0.35758
      13     F     4.67507  4.67507  0.00000 -0.35015

   Total alpha = 32.00000, Total beta = 32.00000, Total charge = -0.00000
