  ==> Input File <==

--------------------------------------------------------------------------
set {
	reference rhf
	basis 6-31G*
}

set_num_threads( 1 )
memory 2 gb

molecule MOL {
0 1

O	 -0.291628	 1.323815	 -0.000732
C	 -0.449655	 0.146360	 0.000961
C	 -1.783294	 -0.549321	 -0.000296
O	 0.550821	 -0.724572	 0.000672
H	 -1.863538	 -1.185371	 -0.874187
H	 -2.574672	 0.185258	 -0.002793
H	 -1.866414	 -1.182381	 0.875436
C	 0.618832	 -1.623516	 -1.091828
H	 -0.271794	 -2.233488	 -1.137394
H	 1.485882	 -2.239906	 -0.912845
H	 0.728095	 -1.083485	 -2.021221

	symmetry c1
}
set optking {
	frozen_dihedral = ("
		2 4 8 9
	")
}

ee = energy('scf')
oeprop('DIPOLE', 'QUADRUPOLE', 'MULLIKEN_CHARGES')
f=open( 'psi4out.xyz', 'w' )
f.write( "11  " )
f.write( str(ee) + "\n" )
f.write( MOL.save_string_xyz() )
f.close()
--------------------------------------------------------------------------

    Molecular point group: c1

    Geometry (in Angstrom), charge = 0, multiplicity = 1:

       Center              X                  Y                   Z               Mass
    ------------   -----------------  -----------------  -----------------  -----------------
           O         -0.026621722223     1.628161264027     0.231582144589    15.994914619560
           C         -0.184648722223     0.450706264027     0.233275144589    12.000000000000
           C         -1.518287722223    -0.244974735973     0.232018144589    12.000000000000
           O          0.815827277777    -0.420225735973     0.232986144589    15.994914619560
           H         -1.598531722223    -0.881024735973    -0.641872855411     1.007825032070
           H         -2.309665722223     0.489604264027     0.229521144589     1.007825032070
           H         -1.601407722223    -0.878034735973     1.107750144589     1.007825032070
           C          0.883838277777    -1.319169735973    -0.859513855411    12.000000000000
           H         -0.006787722223    -1.929141735973    -0.905079855411     1.007825032070
           H          1.750888277777    -1.935559735973    -0.680530855411     1.007825032070
           H          0.993101277777    -0.779138735973    -1.788906855411     1.007825032070

  Charge       = 0
  Multiplicity = 1
  Basis Set: 6-31G*
  Basis Set:

    Orbital Energies (a.u.)
    -----------------------

    Doubly Occupied:

       1A    -20.595135     2A    -20.554417     3A    -11.378437
       4A    -11.299272     5A    -11.237685     6A     -1.467028
       7A     -1.371200     8A     -1.024540     9A     -0.981343
      10A     -0.783949    11A     -0.695451    12A     -0.689631
      13A     -0.677633    14A     -0.621893    15A     -0.587642
      16A     -0.574750    17A     -0.550998    18A     -0.493837
      19A     -0.462943    20A     -0.439833

  @DF-RHF Final Energy:  -266.81151882156649

   => Energetics <=

    Nuclear Repulsion Energy =            183.9820692383014489
    One-Electron Energy =                -728.6119475751451091
    Two-Electron Energy =                 277.8183595152758585
    DFT Exchange-Correlation Energy =       0.0000000000000000
    Empirical Dispersion Energy =           0.0000000000000000
    PCM Polarization Energy =               0.0000000000000000
    EFP Energy =                            0.0000000000000000
    Total Energy =                       -266.8115188215677449

  Mulliken Charges: (a.u.)
   Center  Symbol    Alpha    Beta     Spin     Total
       1     O     4.25537  4.25537  0.00000 -0.51074
       2     C     2.62551  2.62551  0.00000  0.74897
       3     C     3.29893  3.29893  0.00000 -0.59786
       4     O     4.29759  4.29759  0.00000 -0.59518
       5     H     0.40663  0.40663  0.00000  0.18675
       6     H     0.39442  0.39442  0.00000  0.21117
       7     H     0.39789  0.39789  0.00000  0.20422
       8     C     3.09751  3.09751  0.00000 -0.19501
       9     H     0.41794  0.41794  0.00000  0.16412
      10     H     0.39814  0.39814  0.00000  0.20372
      11     H     0.41008  0.41008  0.00000  0.17984

   Total alpha = 20.00000, Total beta = 20.00000, Total charge = -0.00000
