  ==> Input File <==

--------------------------------------------------------------------------
set {
	reference rhf
	basis cc-pvtz
}

set_num_threads( 4 )
memory 2 gb

molecule MOL {
0 1

H	 -3.144994	 -1.202467	 -0.018751
O	 -2.321472	 -0.864941	 -0.318626
C	 -2.021813	 0.336996	 0.342658
C	 -0.669613	 0.837286	 -0.127252
H	 -2.780861	 1.084746	 0.127159
H	 -2.006390	 0.184138	 1.420053
C	 0.490865	 -0.082543	 0.241244
H	 -0.708709	 0.967192	 -1.204587
H	 -0.507562	 1.822272	 0.303070
C	 1.237447	 0.370008	 1.492812
H	 1.180881	 -0.137326	 -0.592982
H	 0.112407	 -1.091074	 0.395374
C	 2.392593	 -0.553012	 1.866250
H	 1.617220	 1.376331	 1.338578
H	 0.542580	 0.431783	 2.326499
H	 3.122733	 -0.607863	 1.065749
H	 2.903241	 -0.204093	 2.756642
H	 2.041151	 -1.561089	 2.060453

	symmetry c1
}
set optking {
	frozen_dihedral = ("
		10 7 4 8
	")
}

ee = optimize('scf')
oeprop('DIPOLE', 'QUADRUPOLE', 'MULLIKEN_CHARGES')
f=open( 'psi4out.xyz', 'w' )
f.write( "18  " )
f.write( str(ee) + "\n" )
f.write( MOL.save_string_xyz() )
f.close()
--------------------------------------------------------------------------

    Molecular point group: c1
  Charge       = 0
  Multiplicity = 1
  Basis Set: CC-PVTZ
  Basis Set:
  @DF-RHF Final Energy:  -271.28295574540164
    Total Energy =                       -271.2829557454017504
    Molecular point group: c1
  Basis Set: CC-PVTZ
  Basis Set:
  Basis Set: CC-PVTZ
  Basis Set:
  @DF-RHF Final Energy:  -271.28320800698611
    Total Energy =                       -271.2832080069860012
  Basis Set: CC-PVTZ
  Basis Set:
  Basis Set: CC-PVTZ
  Basis Set:
  @DF-RHF Final Energy:  -271.28325768600149
    Total Energy =                       -271.2832576860013774
  Basis Set: CC-PVTZ
  Basis Set:
  Charge       = 0
  Multiplicity = 1
  Basis Set: CC-PVTZ
  Basis Set:

    Orbital Energies (a.u.)
    -----------------------

    Doubly Occupied:

       1A    -20.546418     2A    -11.266258     3A    -11.210737
       4A    -11.210203     5A    -11.205137     6A    -11.203728
       7A     -1.364369     8A     -1.076052     9A     -1.009342
      10A     -0.914611    11A     -0.825711    12A     -0.780472
      13A     -0.705665    14A     -0.652400    15A     -0.619688
      16A     -0.583016    17A     -0.570313    18A     -0.559408
      19A     -0.529324    20A     -0.505958    21A     -0.485622
      22A     -0.470514    23A     -0.455798    24A     -0.450358
      25A     -0.430949

  @DF-RHF Final Energy:  -271.28325861508210

   => Energetics <=

    Nuclear Repulsion Energy =            250.9408145638686847
    One-Electron Energy =                -865.1840419922948513
    Two-Electron Energy =                 342.9599688133444033
    DFT Exchange-Correlation Energy =       0.0000000000000000
    Empirical Dispersion Energy =           0.0000000000000000
    PCM Polarization Energy =               0.0000000000000000
    EFP Energy =                            0.0000000000000000
    Total Energy =                       -271.2832586150817633
    Molecular point group: c1
  Basis Set: CC-PVTZ
  Basis Set:

  -Total Gradient:
     Atom            X                  Y                   Z
    ------   -----------------  -----------------  -----------------
       1       -0.000011002859     0.000004136165    -0.000008866354
       2        0.000000712051     0.000032081420     0.000009665543
       3        0.000010858419    -0.000081920120     0.000035217939
       4       -0.001763146934    -0.002590430271    -0.000774319711
       5        0.000009820472    -0.000011042952    -0.000020486163
       6       -0.000007494268     0.000011135533     0.000007509831
       7       -0.001434464885    -0.001126252510     0.001813866417
       8        0.001841588580     0.002416339405     0.000258853243
       9        0.000046887139    -0.000001595159     0.000004371350
      10        0.001370020487     0.001322946047    -0.001261645729
      11        0.000013946815     0.000038297775    -0.000051858874
      12       -0.000019736931     0.000037803730    -0.000022605793
      13       -0.000077052045    -0.000062090551     0.000017315821
      14        0.000003355579    -0.000008480506    -0.000029008672
      15        0.000018512838     0.000020637581     0.000019960841
      16       -0.000009876916     0.000023161980     0.000001345978
      17       -0.000022211761    -0.000001225584     0.000006632406
      18        0.000029284219    -0.000023501985    -0.000005948074

  **** Optimization is complete! (in 4 steps) ****
    Final optimized geometry and variables:
    Molecular point group: c1

    Geometry (in Angstrom), charge = 0, multiplicity = 1:

    H           -2.945058422876    -1.190390608461    -0.576997946941
    O           -2.135381143527    -0.839911180782    -0.898807991748
    C           -1.822952908247     0.352246104198    -0.226109638031
    C           -0.477602723162     0.854361876014    -0.712709542553
    H           -2.583796771716     1.104198795965    -0.419046284793
    H           -1.792212362700     0.184173167948     0.848721416328
    C            0.705036696873    -0.053477652588    -0.340887344612
    H           -0.525045009081     0.993705199588    -1.786528715462
    H           -0.320893987643     1.844623972644    -0.292987662856
    C            1.449529305685     0.397253914213     0.914382498616
    H            1.411330294081    -0.076317952801    -1.165023440603
    H            0.354299959962    -1.072017600410    -0.220713226533
    C            2.586462722927    -0.541139758933     1.303749719364
    H            1.845228838793     1.396138527282     0.752557727578
    H            0.752508543250     0.478401429087     1.745091926909
    H            3.318237447394    -0.619127386648     0.506406787551
    H            3.100809159327    -0.190123026661     2.191211414178
    H            2.216345628572    -1.540165727903     1.508369126222

  Mulliken Charges: (a.u.)
   Center  Symbol    Alpha    Beta     Spin     Total
       1     H     0.39562  0.39562  0.00000  0.20876
       2     O     4.19872  4.19872  0.00000 -0.39744
       3     C     2.97243  2.97243  0.00000  0.05513
       4     C     3.09746  3.09746  0.00000 -0.19491
       5     H     0.46416  0.46416  0.00000  0.07168
       6     H     0.47334  0.47334  0.00000  0.05333
       7     C     3.09672  3.09672  0.00000 -0.19344
       8     H     0.44576  0.44576  0.00000  0.10847
       9     H     0.45588  0.45588  0.00000  0.08824
      10     C     3.08255  3.08255  0.00000 -0.16511
      11     H     0.44990  0.44990  0.00000  0.10020
      12     H     0.44566  0.44566  0.00000  0.10868
      13     C     3.14997  3.14997  0.00000 -0.29994
      14     H     0.45537  0.45537  0.00000  0.08927
      15     H     0.45746  0.45746  0.00000  0.08508
      16     H     0.45485  0.45485  0.00000  0.09030
      17     H     0.44948  0.44948  0.00000  0.10104
      18     H     0.45468  0.45468  0.00000  0.09065

   Total alpha = 25.00000, Total beta = 25.00000, Total charge = -0.00000
