  ==> Input File <==

--------------------------------------------------------------------------
set {
	reference rhf
	basis 6-31G*
}

set_num_threads( 1 )
memory 2 gb

molecule MOL {
0 1

O	 3.225979	 0.970355	 -0.599647
C	 2.701189	 0.057885	 -0.047330
C	 1.245376	 -0.013843	 0.345420
O	 3.347903	 -1.046386	 0.304773
C	 0.346330	 -0.530383	 -0.775749
H	 1.185504	 -0.634368	 1.233426
H	 0.945928	 0.982965	 0.659110
C	 -1.146226	 -0.510178	 -0.428816
H	 0.648481	 -1.538844	 -1.041891
H	 0.513706	 0.075227	 -1.659855
C	 -1.561912	 -1.470247	 0.689478
H	 -1.704367	 -0.761524	 -1.327719
H	 -1.443060	 0.503454	 -0.163391
C	 -3.073917	 -1.493101	 0.922540
H	 -1.220855	 -2.474773	 0.443657
H	 -1.067454	 -1.198775	 1.619417
C	 -3.500416	 -2.445165	 2.041381
H	 -3.575979	 -1.777189	 -0.000749
H	 -3.417242	 -0.486897	 1.157870
C	 -5.012115	 -2.464941	 2.265155
H	 -3.157260	 -3.450931	 1.808309
H	 -3.002961	 -2.160146	 2.966088
H	 -5.283037	 -3.148525	 3.063854
H	 -5.537134	 -2.780181	 1.367840
H	 -5.381626	 -1.479295	 2.533926
C	 4.728119	 -1.109107	 -0.004993
H	 4.882018	 -1.033965	 -1.071845
H	 5.068212	 -2.067527	 0.355250
H	 5.265056	 -0.311663	 0.488280

	symmetry c1
}
set optking {
	frozen_dihedral = ("
		21 17 14 11,
		17 14 11 15,
		15 11 8 5,
		6 3 5 9,
		11 8 5 9,
		2 4 26 27,
		1 2 4 26
	")
}

ee = energy('scf')
oeprop('DIPOLE', 'QUADRUPOLE', 'MULLIKEN_CHARGES')
f=open( 'psi4out.xyz', 'w' )
f.write( "29  " )
f.write( str(ee) + "\n" )
f.write( MOL.save_string_xyz() )
f.close()
--------------------------------------------------------------------------

    Molecular point group: c1

    Geometry (in Angstrom), charge = 0, multiplicity = 1:

       Center              X                  Y                   Z               Mass
    ------------   -----------------  -----------------  -----------------  -----------------
           O          3.064996073608     1.886646613504    -1.029022261739    15.994914619560
           C          2.540206073608     0.974176613504    -0.476705261739    12.000000000000
           C          1.084393073608     0.902448613504    -0.083955261739    12.000000000000
           O          3.186920073608    -0.130094386496    -0.124602261739    15.994914619560
           C          0.185347073608     0.385908613504    -1.205124261739    12.000000000000
           H          1.024521073608     0.281923613504     0.804050738261     1.007825032070
           H          0.784945073608     1.899256613504     0.229734738261     1.007825032070
           C         -1.307208926392     0.406113613504    -0.858191261739    12.000000000000
           H          0.487498073608    -0.622552386496    -1.471266261739     1.007825032070
           H          0.352723073608     0.991518613504    -2.089230261739     1.007825032070
           C         -1.722894926392    -0.553955386496     0.260102738261    12.000000000000
           H         -1.865349926392     0.154767613504    -1.757094261739     1.007825032070
           H         -1.604042926392     1.419745613504    -0.592766261739     1.007825032070
           C         -3.234899926392    -0.576809386496     0.493164738261    12.000000000000
           H         -1.381837926392    -1.558481386496     0.014281738261     1.007825032070
           H         -1.228436926392    -0.282483386496     1.190041738261     1.007825032070
           C         -3.661398926392    -1.528873386496     1.612005738261    12.000000000000
           H         -3.736961926392    -0.860897386496    -0.430124261739     1.007825032070
           H         -3.578224926392     0.429394613504     0.728494738261     1.007825032070
           C         -5.173097926392    -1.548649386496     1.835779738261    12.000000000000
           H         -3.318242926392    -2.534639386496     1.378933738261     1.007825032070
           H         -3.163943926392    -1.243854386496     2.536712738261     1.007825032070
           H         -5.444019926392    -2.232233386496     2.634478738261     1.007825032070
           H         -5.698116926392    -1.863889386496     0.938464738261     1.007825032070
           H         -5.542608926392    -0.563003386496     2.104550738261     1.007825032070
           C          4.567136073608    -0.192815386496    -0.434368261739    12.000000000000
           H          4.721035073608    -0.117673386496    -1.501220261739     1.007825032070
           H          4.907229073608    -1.151235386496    -0.074125261739     1.007825032070
           H          5.104073073608     0.604628613504     0.058904738261     1.007825032070

  Charge       = 0
  Multiplicity = 1
  Basis Set: 6-31G*
  Basis Set:

    Orbital Energies (a.u.)
    -----------------------

    Doubly Occupied:

       1A    -20.603864     2A    -20.543038     3A    -11.370555
       4A    -11.279955     5A    -11.232420     6A    -11.229461
       7A    -11.222108     8A    -11.218125     9A    -11.217133
      10A    -11.216136    11A    -11.210008    12A     -1.468288
      13A     -1.360949    14A     -1.101598    15A     -1.069039
      16A     -1.020028    17A     -0.976400    18A     -0.930336
      19A     -0.865005    20A     -0.800976    21A     -0.791695
      22A     -0.771661    23A     -0.697235    24A     -0.678217
      25A     -0.672884    26A     -0.652417    27A     -0.625713
      28A     -0.607393    29A     -0.592510    30A     -0.579546
      31A     -0.567252    32A     -0.555606    33A     -0.536720
      34A     -0.529936    35A     -0.519552    36A     -0.515829
      37A     -0.499316    38A     -0.480253    39A     -0.473005
      40A     -0.464523    41A     -0.460927    42A     -0.454011
      43A     -0.446549    44A     -0.428294

  @DF-RHF Final Energy:  -501.04192016137620

   => Energetics <=

    Nuclear Repulsion Energy =            612.0917316963174244
    One-Electron Energy =               -1895.1945610921873140
    Two-Electron Energy =                 782.0609092344928968
    DFT Exchange-Correlation Energy =       0.0000000000000000
    Empirical Dispersion Energy =           0.0000000000000000
    PCM Polarization Energy =               0.0000000000000000
    EFP Energy =                            0.0000000000000000
    Total Energy =                       -501.0419201613768792

  Mulliken Charges: (a.u.)
   Center  Symbol    Alpha    Beta     Spin     Total
       1     O     4.28501  4.28501  0.00000 -0.57001
       2     C     2.61630  2.61630  0.00000  0.76741
       3     C     3.19803  3.19803  0.00000 -0.39606
       4     O     4.30221  4.30221  0.00000 -0.60443
       5     C     3.16480  3.16480  0.00000 -0.32960
       6     H     0.40160  0.40160  0.00000  0.19681
       7     H     0.40229  0.40229  0.00000  0.19541
       8     C     3.15566  3.15566  0.00000 -0.31131
       9     H     0.41344  0.41344  0.00000  0.17311
      10     H     0.40682  0.40682  0.00000  0.18637
      11     C     3.15483  3.15483  0.00000 -0.30965
      12     H     0.41801  0.41801  0.00000  0.16398
      13     H     0.42041  0.42041  0.00000  0.15918
      14     C     3.15074  3.15074  0.00000 -0.30147
      15     H     0.42237  0.42237  0.00000  0.15526
      16     H     0.42206  0.42206  0.00000  0.15588
      17     C     3.15155  3.15155  0.00000 -0.30310
      18     H     0.42347  0.42347  0.00000  0.15306
      19     H     0.42344  0.42344  0.00000  0.15312
      20     C     3.23944  3.23944  0.00000 -0.47887
      21     H     0.42277  0.42277  0.00000  0.15446
      22     H     0.42302  0.42302  0.00000  0.15397
      23     H     0.41900  0.41900  0.00000  0.16200
      24     H     0.42158  0.42158  0.00000  0.15684
      25     H     0.42156  0.42156  0.00000  0.15687
      26     C     3.09279  3.09279  0.00000 -0.18557
      27     H     0.40915  0.40915  0.00000  0.18170
      28     H     0.40885  0.40885  0.00000  0.18230
      29     H     0.40882  0.40882  0.00000  0.18236

   Total alpha = 44.00000, Total beta = 44.00000, Total charge =  0.00000
