                              Psi4 1.0.54 Driver

  ==> Input File <==

--------------------------------------------------------------------------
set {
	reference rhf
	basis cc-pvtz
}

set_num_threads( 4 )
memory 2 gb

molecule MOL {
0 1

O	 3.219313	 0.959291	 -0.614106
C	 2.698710	 0.058177	 -0.050237
C	 1.246364	 -0.005813	 0.348416
O	 3.344101	 -1.038700	 0.312317
C	 0.453207	 1.232821	 -0.049003
H	 0.839270	 -0.907818	 -0.092281
H	 1.216683	 -0.160521	 1.422434
C	 -0.998367	 1.217982	 0.432195
H	 0.481498	 1.345443	 -1.127236
H	 0.951413	 2.105557	 0.354893
C	 -1.882951	 0.151251	 -0.211235
H	 -1.429490	 2.193659	 0.228843
H	 -1.019755	 1.099323	 1.513279
C	 -2.240690	 -0.983403	 0.744992
H	 -2.796920	 0.616955	 -0.572695
H	 -1.389170	 -0.268393	 -1.082794
C	 -3.119331	 -2.058122	 0.111160
H	 -2.748632	 -0.573205	 1.614516
H	 -1.326929	 -1.441870	 1.116092
C	 -3.473898	 -3.187178	 1.073080
H	 -4.032867	 -1.601553	 -0.259944
H	 -2.611865	 -2.471103	 -0.756469
H	 -4.097250	 -3.932216	 0.592109
H	 -4.014074	 -2.811199	 1.935611
H	 -2.581790	 -3.686899	 1.435890
C	 4.720529	 -1.114346	 0.001449
H	 4.874321	 -1.055557	 -1.065852
H	 5.057824	 -2.067950	 0.373977
H	 5.264321	 -0.313596	 0.480350

	symmetry c1
}
set optking {
	frozen_dihedral = ("
		15 11 8 5
	")
}

ee,wfn = optimize('scf', return_wfn=True)
oeprop( wfn, 'DIPOLE', 'QUADRUPOLE', 'MULLIKEN_CHARGES')
f=open( 'psi4out.xyz', 'w' )
f.write( "29  " )
f.write( str(ee) + "\n" )
f.write( MOL.save_string_xyz() )
f.close()
--------------------------------------------------------------------------

    Molecular point group: c1
  Charge       = 0
  Multiplicity = 1
  Basis Set: CC-PVTZ
  Basis Set:
  @DF-RHF Final Energy:  -501.21964858360855
    Total Energy =                       -501.2196485836078637
    Molecular point group: c1
  Basis Set: CC-PVTZ
  Basis Set:
  Basis Set: CC-PVTZ
  Basis Set:
  @DF-RHF Final Energy:  -501.21996036732889
    Total Energy =                       -501.2199603673283264
  Basis Set: CC-PVTZ
  Basis Set:
  Basis Set: CC-PVTZ
  Basis Set:
  @DF-RHF Final Energy:  -501.22001395933887
    Total Energy =                       -501.2200139593387576
  Basis Set: CC-PVTZ
  Basis Set:
  Basis Set: CC-PVTZ
  Basis Set:
  @DF-RHF Final Energy:  -501.21998658291045
    Total Energy =                       -501.2199865829109058
  Basis Set: CC-PVTZ
  Basis Set:
  Basis Set: CC-PVTZ
  Basis Set:
  @DF-RHF Final Energy:  -501.22002474261205
    Total Energy =                       -501.2200247426111446
  Basis Set: CC-PVTZ
  Basis Set:
  Basis Set: CC-PVTZ
  Basis Set:
  @DF-RHF Final Energy:  -501.22004056414028
    Total Energy =                       -501.2200405641410725
  Basis Set: CC-PVTZ
  Basis Set:
  Charge       = 0
  Multiplicity = 1
  Basis Set: CC-PVTZ
  Basis Set:

    Orbital Energies (a.u.)
    -----------------------

    Doubly Occupied:

       1A    -20.596217     2A    -20.534064     3A    -11.364424
       4A    -11.278419     5A    -11.233200     6A    -11.217223
       7A    -11.215365     8A    -11.214575     9A    -11.214053
      10A    -11.213410    11A    -11.207896    12A     -1.472098
      13A     -1.365706    14A     -1.098777    15A     -1.067527
      16A     -1.019690    17A     -0.977683    18A     -0.931351
      19A     -0.862519    20A     -0.802666    21A     -0.789085
      22A     -0.766040    23A     -0.703746    24A     -0.685850
      25A     -0.675805    26A     -0.649165    27A     -0.629205
      28A     -0.607002    29A     -0.597083    30A     -0.576130
      31A     -0.565518    32A     -0.563123    33A     -0.536950
      34A     -0.527768    35A     -0.515271    36A     -0.507117
      37A     -0.502440    38A     -0.477318    39A     -0.473952
      40A     -0.463689    41A     -0.460107    42A     -0.456830
      43A     -0.439735    44A     -0.438267

  @DF-RHF Final Energy:  -501.22004068003264

   => Energetics <=

    Nuclear Repulsion Energy =            624.1615839338027172
    One-Electron Energy =               -1919.7751378774914883
    Two-Electron Energy =                 794.3935132636562457
    DFT Exchange-Correlation Energy =       0.0000000000000000
    Empirical Dispersion Energy =           0.0000000000000000
    PCM Polarization Energy =               0.0000000000000000
    EFP Energy =                            0.0000000000000000
    Total Energy =                       -501.2200406800324117
    Molecular point group: c1
  Basis Set: CC-PVTZ
  Basis Set:

  -Total Gradient:
     Atom            X                  Y                   Z
    ------   -----------------  -----------------  -----------------
       1       -0.000007612824    -0.000008684735    -0.000002563199
       2        0.000024130783     0.000026616776     0.000014143623
       3       -0.000004773516    -0.000006596865     0.000005115471
       4       -0.000006797187    -0.000025082883    -0.000002328921
       5       -0.000169501052     0.000417885589    -0.000482472407
       6       -0.000004692531     0.000002080620     0.000004619210
       7        0.000010795044    -0.000000808879     0.000003876034
       8        0.000312267661    -0.000529329875     0.000506171211
       9        0.000001508388     0.000009117490    -0.000014673765
      10       -0.000006106656    -0.000015083460     0.000001646104
      11       -0.000545656106    -0.000012931054     0.000735692540
      12        0.000018157888     0.000000333274     0.000005310247
      13       -0.000000926126     0.000008621989     0.000004060790
      14        0.000006130680    -0.000037280937     0.000005713592
      15        0.000384250718     0.000139056999    -0.000788100905
      16       -0.000006460082     0.000004432741    -0.000002032435
      17       -0.000010030073     0.000002879941     0.000000832175
      18        0.000004906968    -0.000005983815     0.000005733605
      19        0.000003762670    -0.000005504236    -0.000001389169
      20        0.000001235606     0.000011857045     0.000008712364
      21       -0.000003039451     0.000002073782    -0.000008101686
      22        0.000005029249     0.000000043103     0.000005104235
      23        0.000001291673     0.000008859486    -0.000004832386
      24       -0.000001266179    -0.000000138111     0.000003470018
      25        0.000001892360    -0.000001283696    -0.000000581768
      26        0.000004100755     0.000014096852    -0.000007153612
      27       -0.000002811006    -0.000000379835    -0.000000574470
      28       -0.000009968104     0.000000230998     0.000003084616
      29        0.000000180457     0.000000901694     0.000001518888

  **** Optimization is complete! (in 7 steps) ****
    Final optimized geometry and variables:
    Molecular point group: c1

    Geometry (in Angstrom), charge = 0, multiplicity = 1:

    O            2.793364451446     1.397986970060    -0.877077120147
    C            2.286934108997     0.507992918515    -0.283507026666
    C            0.852480166239     0.465706968478     0.178258309942
    O            2.934055666720    -0.594064269709     0.059757621851
    C            0.058854084505     1.711781428069    -0.192069636030
    H            0.413343196411    -0.432464431136    -0.240187629516
    H            0.867100249822     0.315923280717     1.253023712291
    C           -1.388951033823     1.694336227169     0.302793162932
    H            0.073101094901     1.837380464788    -1.268875292307
    H            0.563916734505     2.578711135266     0.216678567104
    C           -2.286184183187     0.609682184092    -0.328342392963
    H           -1.811793544428     2.670674609911     0.095402223632
    H           -1.398534578971     1.592295740821     1.384711127398
    C           -2.646910887172    -0.538909376070     0.612463326066
    H           -3.204272646107     1.065638459177    -0.684168188935
    H           -1.802735967796     0.207001737620    -1.214553139567
    C           -3.515644302303    -1.608211496303    -0.043144078851
    H           -3.167491285197    -0.136528162276     1.478170152736
    H           -1.740413218952    -1.000648531427     0.995426957575
    C           -3.889422155068    -2.742488520549     0.905361368121
    H           -4.421357457069    -1.147447196028    -0.427981052402
    H           -2.993762240055    -2.016684518685    -0.904405484750
    H           -4.505279453436    -3.483315768649     0.408568574546
    H           -4.444491282511    -2.370812370141     1.760279920830
    H           -3.005007750007    -3.246341709209     1.281134370728
    C            4.294757790835    -0.689153937715    -0.309696848678
    H            4.402842670574    -0.640441466540    -1.383097657590
    H            4.636364426637    -1.643978882112     0.055709433175
    H            4.868356384867     0.108461747133     0.138683824007

  Mulliken Charges: (a.u.)
   Center  Symbol    Alpha    Beta     Spin     Total
       1     O     4.19664  4.19664  0.00000 -0.39328
       2     C     2.80509  2.80509  0.00000  0.38983
       3     C     3.10481  3.10481  0.00000 -0.20962
       4     O     4.14727  4.14727  0.00000 -0.29453
       5     C     3.08790  3.08790  0.00000 -0.17579
       6     H     0.43896  0.43896  0.00000  0.12208
       7     H     0.43828  0.43828  0.00000  0.12344
       8     C     3.10969  3.10969  0.00000 -0.21938
       9     H     0.44607  0.44607  0.00000  0.10785
      10     H     0.44098  0.44098  0.00000  0.11804
      11     C     3.10891  3.10891  0.00000 -0.21781
      12     H     0.43983  0.43983  0.00000  0.12034
      13     H     0.45367  0.45367  0.00000  0.09266
      14     C     3.08786  3.08786  0.00000 -0.17572
      15     H     0.44300  0.44300  0.00000  0.11399
      16     H     0.45175  0.45175  0.00000  0.09650
      17     C     3.08482  3.08482  0.00000 -0.16965
      18     H     0.45230  0.45230  0.00000  0.09540
      19     H     0.45347  0.45347  0.00000  0.09306
      20     C     3.14993  3.14993  0.00000 -0.29986
      21     H     0.45361  0.45361  0.00000  0.09278
      22     H     0.45465  0.45465  0.00000  0.09070
      23     H     0.44810  0.44810  0.00000  0.10380
      24     H     0.45503  0.45503  0.00000  0.08994
      25     H     0.45516  0.45516  0.00000  0.08969
      26     C     3.03846  3.03846  0.00000 -0.07692
      27     H     0.45436  0.45436  0.00000  0.09128
      28     H     0.44523  0.44523  0.00000  0.10954
      29     H     0.45418  0.45418  0.00000  0.09164

   Total alpha = 44.00000, Total beta = 44.00000, Total charge = -0.00000

*** Psi4 exiting successfully. Buy a developer a beer!
