                              Psi4 1.0.54 Driver

  ==> Input File <==

--------------------------------------------------------------------------
set {
	reference rhf
	basis cc-pvtz
}

set_num_threads( 4 )
memory 2 gb

molecule MOL {
0 1

H	 1.851405	 0.749983	 0.678328
C	 0.998680	 0.826000	 0.019699
O	 0.000000	 0.000000	 0.518769
H	 0.675848	 1.864417	 -0.016701
H	 1.301427	 0.525311	 -0.981193
C	 -1.165153	 0.000000	 -0.236961
H	 -1.229451	 0.882440	 -0.870223
H	 -2.002557	 0.000000	 0.445289
H	 -1.229451	 -0.882440	 -0.870223

	symmetry c1
}
set optking {
	frozen_dihedral = ("
		2 3 6 7
	")
}

ee,wfn = optimize('scf', return_wfn=True)
oeprop( wfn, 'DIPOLE', 'QUADRUPOLE', 'MULLIKEN_CHARGES')
f=open( 'psi4out.xyz', 'w' )
f.write( "9  " )
f.write( str(ee) + "\n" )
f.write( MOL.save_string_xyz() )
f.close()
--------------------------------------------------------------------------

    Molecular point group: c1
  Charge       = 0
  Multiplicity = 1
  Basis Set: CC-PVTZ
  Basis Set:
  @DF-RHF Final Energy:  -154.12411660023844
    Total Energy =                       -154.1241166002385512
    Molecular point group: c1
  Basis Set: CC-PVTZ
  Basis Set:
  Basis Set: CC-PVTZ
  Basis Set:
  @DF-RHF Final Energy:  -154.12430300277691
    Total Energy =                       -154.1243030027767986
  Basis Set: CC-PVTZ
  Basis Set:
  Basis Set: CC-PVTZ
  Basis Set:
  @DF-RHF Final Energy:  -154.12436887763116
    Total Energy =                       -154.1243688776312126
  Basis Set: CC-PVTZ
  Basis Set:
  Charge       = 0
  Multiplicity = 1
  Basis Set: CC-PVTZ
  Basis Set:

    Orbital Energies (a.u.)
    -----------------------

    Doubly Occupied:

       1A    -20.547513     2A    -11.263567     3A    -11.262803
       4A     -1.378914     5A     -0.975839     6A     -0.872701
       7A     -0.659918     8A     -0.655217     9A     -0.645428
      10A     -0.556944    11A     -0.528506    12A     -0.475918
      13A     -0.415887

  @DF-RHF Final Energy:  -154.12436935336666

   => Energetics <=

    Nuclear Repulsion Energy =             84.6447129587390208
    One-Electron Energy =                -377.0598613686449312
    Two-Electron Energy =                 138.2907790565393213
    DFT Exchange-Correlation Energy =       0.0000000000000000
    Empirical Dispersion Energy =           0.0000000000000000
    PCM Polarization Energy =               0.0000000000000000
    EFP Energy =                            0.0000000000000000
    Total Energy =                       -154.1243693533665748
    Molecular point group: c1
  Basis Set: CC-PVTZ
  Basis Set:

  -Total Gradient:
     Atom            X                  Y                   Z
    ------   -----------------  -----------------  -----------------
       1        0.000029975863     0.000017336302    -0.000006737512
       2       -0.000581445253     0.001582354480     0.001099521238
       3        0.001221558725    -0.002581219141    -0.002186354926
       4       -0.000027391620    -0.000028096954     0.000001828131
       5       -0.000029225381     0.000000714608     0.000018152153
       6       -0.001784776155     0.002264066525     0.002909783629
       7        0.001192306974    -0.001265376500    -0.001833700215
       8       -0.000037036474     0.000006581520    -0.000000948007
       9        0.000016033320     0.000003639158    -0.000001544491

  **** Optimization is complete! (in 4 steps) ****
    Final optimized geometry and variables:
    Molecular point group: c1

    Geometry (in Angstrom), charge = 0, multiplicity = 1:

    H            1.922016764997     0.447404480208     0.577080542827
    C            1.070342254893     0.532481751600    -0.082437361012
    O            0.059503202091    -0.273399157560     0.426664817504
    H            0.764534605911     1.575098679724    -0.125424049266
    H            1.372446581950     0.220658089468    -1.080189934374
    C           -1.125329401377    -0.282918473282    -0.306617294886
    H           -1.206498666231     0.584809384863    -0.954422622167
    H           -1.962621152267    -0.292218699543     0.378253028279
    H           -1.179514598953    -1.168216104039    -0.934370105746

  Mulliken Charges: (a.u.)
   Center  Symbol    Alpha    Beta     Spin     Total
       1     H     0.44951  0.44951  0.00000  0.10098
       2     C     3.02106  3.02106  0.00000 -0.04213
       3     O     4.17162  4.17162  0.00000 -0.34325
       4     H     0.47248  0.47248  0.00000  0.05503
       5     H     0.47354  0.47354  0.00000  0.05292
       6     C     3.01753  3.01753  0.00000 -0.03507
       7     H     0.47519  0.47519  0.00000  0.04962
       8     H     0.45424  0.45424  0.00000  0.09153
       9     H     0.46482  0.46482  0.00000  0.07036

   Total alpha = 13.00000, Total beta = 13.00000, Total charge = -0.00000

*** Psi4 exiting successfully. Buy a developer a beer!
