  ==> Input File <==

--------------------------------------------------------------------------
set {
	reference rhf
	basis 6-31G*
}

set_num_threads( 4 )
memory 2 gb

molecule MOL {
0 1

H	 -0.755066	 -2.106937	 -4.309614
C	 -0.223048	 -1.788010	 -3.431938
C	 -0.520383	 -2.335812	 -2.188664
C	 0.765081	 -0.829274	 -3.520702
H	 -1.287665	 -3.084367	 -2.100515
C	 0.159680	 -1.929351	 -1.061055
H	 1.008599	 -0.394471	 -4.473976
C	 1.460704	 -0.408180	 -2.392320
H	 -0.059904	 -2.344147	 -0.094845
C	 1.156401	 -0.960673	 -1.158128
H	 2.223595	 0.339052	 -2.493854
O	 1.765256	 -0.628444	 0.000000
C	 2.778419	 0.335181	 0.000000
H	 2.731280	 0.961222	 -0.884976
H	 3.711703	 -0.207767	 0.000000
H	 2.731280	 0.961222	 0.884976

	symmetry c1
}
set optking {
	frozen_dihedral = ("
		10 12 13 14
	")
}

ee = optimize('scf')
oeprop('DIPOLE', 'QUADRUPOLE', 'MULLIKEN_CHARGES')
f=open( 'psi4out.xyz', 'w' )
f.write( "16  " )
f.write( str(ee) + "\n" )
f.write( MOL.save_string_xyz() )
f.close()
--------------------------------------------------------------------------

    Molecular point group: c1
  Charge       = 0
  Multiplicity = 1
  Basis Set: 6-31G*
  Basis Set:
  @DF-RHF Final Energy:  -344.57550356426697
    Total Energy =                       -344.5755035642669668
    Molecular point group: c1
  Basis Set: 6-31G*
  Basis Set:
  Basis Set: 6-31G*
  Basis Set:
  @DF-RHF Final Energy:  -344.57584134540332
    Total Energy =                       -344.5758413454035463
  Basis Set: 6-31G*
  Basis Set:
  Basis Set: 6-31G*
  Basis Set:
  @DF-RHF Final Energy:  -344.57871967603575
    Total Energy =                       -344.5787196760355755
  Basis Set: 6-31G*
  Basis Set:
  Basis Set: 6-31G*
  Basis Set:
  @DF-RHF Final Energy:  -344.57923812319058
    Total Energy =                       -344.5792381231907484
  Basis Set: 6-31G*
  Basis Set:
  @DF-RHF Final Energy:  -344.57978970836228
    Total Energy =                       -344.5797897083625116
  Basis Set: 6-31G*
  Basis Set:
  @DF-RHF Final Energy:  -344.57984185450897
    Total Energy =                       -344.5798418545090271
  Basis Set: 6-31G*
  Basis Set:
  Basis Set: 6-31G*
  Basis Set:
  @DF-RHF Final Energy:  -344.57984990157138
    Total Energy =                       -344.5798499015714924
  Basis Set: 6-31G*
  Basis Set:
  Basis Set: 6-31G*
  Basis Set:
  @DF-RHF Final Energy:  -344.57985113813254
    Total Energy =                       -344.5798511381324261
  Basis Set: 6-31G*
  Basis Set:
  Charge       = 0
  Multiplicity = 1
  Basis Set: 6-31G*
  Basis Set:

    Orbital Energies (a.u.)
    -----------------------

    Doubly Occupied:

       1A    -20.579497     2A    -11.292422     3A    -11.278674
       4A    -11.233116     5A    -11.231543     6A    -11.224371
       7A    -11.220704     8A    -11.219835     9A     -1.408076
      10A     -1.145999    11A     -1.020280    12A     -1.013091
      13A     -0.939545    14A     -0.831434    15A     -0.804889
      16A     -0.718896    17A     -0.664013    18A     -0.661589
      19A     -0.649547    20A     -0.615213    21A     -0.589163
      22A     -0.580213    23A     -0.525036    24A     -0.514717
      25A     -0.507876    26A     -0.479414    27A     -0.452424
      28A     -0.334448    29A     -0.307588

  @DF-RHF Final Energy:  -344.57985149582146

   => Energetics <=

    Nuclear Repulsion Energy =            347.7688455179311404
    One-Electron Energy =               -1156.6101637942597335
    Two-Electron Energy =                 464.2614667805073623
    DFT Exchange-Correlation Energy =       0.0000000000000000
    Empirical Dispersion Energy =           0.0000000000000000
    PCM Polarization Energy =               0.0000000000000000
    EFP Energy =                            0.0000000000000000
    Total Energy =                       -344.5798514958212309
    Molecular point group: c1
  Basis Set: 6-31G*
  Basis Set:

  -Total Gradient:
     Atom            X                  Y                   Z
    ------   -----------------  -----------------  -----------------
       1       -0.000008165935    -0.000000549886     0.000002861152
       2        0.000022617043     0.000024915333    -0.000013808551
       3        0.000013868512    -0.000023211146     0.000014961502
       4       -0.000026451915    -0.000022836246    -0.000025995820
       5       -0.000001677931     0.000004879599    -0.000008858772
       6       -0.000010319701     0.000010271383     0.000029156015
       7       -0.000002838212     0.000001048703     0.000002587146
       8        0.000013631297     0.000006120072     0.000042049094
       9        0.000003501174     0.000000230538    -0.000002473327
      10       -0.002100792577     0.000973612439     0.001062300979
      11       -0.000004758474    -0.000007732652     0.000000790052
      12        0.003613414053    -0.001679867486    -0.002299936136
      13       -0.003383064838     0.001461453834     0.003352563992
      14        0.001892776884    -0.000764493238    -0.002161583245
      15       -0.000011221434     0.000009259302     0.000006237556
      16       -0.000010517948     0.000006899450    -0.000000851638

  **** Optimization is complete! (in 9 steps) ****
    Final optimized geometry and variables:
    Molecular point group: c1

    Geometry (in Angstrom), charge = 0, multiplicity = 1:

    H           -1.929824712883    -0.903718365890    -2.583748178427
    C           -1.316727717517    -0.656565054438    -1.736218927623
    C           -1.614450790208    -1.167845183285    -0.479793267753
    C           -0.219210111688     0.170576730262    -1.882898408642
    H           -2.464214105247    -1.814371716296    -0.350216518424
    C           -0.832883595954    -0.848345711127     0.612927431746
    H            0.030506171034     0.566846486248    -2.851201968760
    C            0.579864298212     0.493106573715    -0.794282986201
    H           -1.054094863988    -1.233076336162     1.591089628309
    C            0.266378147085    -0.011457010843     0.458911511053
    H            1.442780120374     1.117766063349    -0.931628057866
    O            1.005227011708     0.229229205302     1.565676891842
    C            1.666276797719     1.458005922359     1.718741325012
    H            1.239591632528     2.224926318017     1.084991613952
    H            2.717420833656     1.353250480534     1.471554729844
    H            1.576156451259     1.748216958119     2.756186912083

  Mulliken Charges: (a.u.)
   Center  Symbol    Alpha    Beta     Spin     Total
       1     H     0.40098  0.40098  0.00000  0.19804
       2     C     3.11097  3.11097  0.00000 -0.22194
       3     C     3.09290  3.09290  0.00000 -0.18580
       4     C     3.09226  3.09226  0.00000 -0.18452
       5     H     0.39873  0.39873  0.00000  0.20254
       6     C     3.12495  3.12495  0.00000 -0.24989
       7     H     0.39938  0.39938  0.00000  0.20124
       8     C     3.13756  3.13756  0.00000 -0.27512
       9     H     0.39318  0.39318  0.00000  0.21364
      10     C     2.78719  2.78719  0.00000  0.42562
      11     H     0.39751  0.39751  0.00000  0.20498
      12     O     4.32998  4.32998  0.00000 -0.65996
      13     C     3.08765  3.08765  0.00000 -0.17529
      14     H     0.41944  0.41944  0.00000  0.16113
      15     H     0.41855  0.41855  0.00000  0.16290
      16     H     0.40879  0.40879  0.00000  0.18243

   Total alpha = 29.00000, Total beta = 29.00000, Total charge =  0.00000
