  ==> Input File <==

--------------------------------------------------------------------------
set {
	reference rhf
	basis 6-31G*
}

set_num_threads( 4 )
memory 2 gb

molecule MOL {
0 1

H	 3.445888	 0.449050	 -0.697055
C	 2.734749	 0.237690	 0.093220
C	 1.322923	 0.120767	 -0.479465
H	 3.042759	 -0.683066	 0.578723
H	 2.800494	 1.040232	 0.821366
C	 0.306652	 -0.176050	 0.621399
H	 1.284104	 -0.674585	 -1.216578
H	 1.041039	 1.041301	 -0.976879
N	 -1.068537	 -0.011044	 0.085269
H	 0.372515	 -1.192590	 0.973735
H	 0.391664	 0.520566	 1.441230
O	 -1.656956	 -0.997225	 -0.235017
O	 -1.478635	 1.104830	 -0.018026

	symmetry c1
}
set optking {
	frozen_dihedral = ("
		7 3 6 9
	")
}

ee = optimize('scf')
oeprop('DIPOLE', 'QUADRUPOLE', 'MULLIKEN_CHARGES')
f=open( 'psi4out.xyz', 'w' )
f.write( "13  " )
f.write( str(ee) + "\n" )
f.write( MOL.save_string_xyz() )
f.close()
--------------------------------------------------------------------------

    Molecular point group: c1
  Charge       = 0
  Multiplicity = 1
  Basis Set: 6-31G*
  Basis Set:
  @DF-RHF Final Energy:  -321.73503165084526
    Total Energy =                       -321.7350316508453716
    Molecular point group: c1
  Basis Set: 6-31G*
  Basis Set:
  Basis Set: 6-31G*
  Basis Set:
  @DF-RHF Final Energy:  -321.72980459420023
    Total Energy =                       -321.7298045942004592
  Basis Set: 6-31G*
  Basis Set:
  Basis Set: 6-31G*
  Basis Set:
  @DF-RHF Final Energy:  -321.73490609085798
    Total Energy =                       -321.7349060908581464
  Basis Set: 6-31G*
  Basis Set:
  Basis Set: 6-31G*
  Basis Set:
  @DF-RHF Final Energy:  -321.73509716552815
    Total Energy =                       -321.7350971655283161
  Basis Set: 6-31G*
  Basis Set:
  @DF-RHF Final Energy:  -321.73509893570406
    Total Energy =                       -321.7350989357041158
  @DF-RHF Final Energy:  -321.73510564159761
    Total Energy =                       -321.7351056415976700
  @DF-RHF Final Energy:  -321.73511544785299
    Total Energy =                       -321.7351154478531043
  @DF-RHF Final Energy:  -321.73511959223538
    Total Energy =                       -321.7351195922353781
  Basis Set: 6-31G*
  Basis Set:
  @DF-RHF Final Energy:  -321.73511857581991
    Total Energy =                       -321.7351185758199108
  Basis Set: 6-31G*
  Basis Set:
  Basis Set: 6-31G*
  Basis Set:
  @DF-RHF Final Energy:  -321.73512575231939
    Total Energy =                       -321.7351257523193340
  Basis Set: 6-31G*
  Basis Set:
  Basis Set: 6-31G*
  Basis Set:
  @DF-RHF Final Energy:  -321.73512948708469
    Total Energy =                       -321.7351294870846914
  Basis Set: 6-31G*
  Basis Set:
  Charge       = 0
  Multiplicity = 1
  Basis Set: 6-31G*
  Basis Set:

    Orbital Energies (a.u.)
    -----------------------

    Doubly Occupied:

       1A    -20.601761     2A    -20.599141     3A    -15.846774
       4A    -11.299230     5A    -11.257302     6A    -11.239810
       7A     -1.630423     8A     -1.415911     9A     -1.135332
      10A     -1.028508    11A     -0.883891    12A     -0.833047
      13A     -0.758408    14A     -0.734976    15A     -0.723115
      16A     -0.671158    17A     -0.604749    18A     -0.590419
      19A     -0.548743    20A     -0.521975    21A     -0.515288
      22A     -0.483372    23A     -0.473437    24A     -0.447968

  @DF-RHF Final Energy:  -321.73512996021088

   => Energetics <=

    Nuclear Repulsion Energy =            247.4574354640341198
    One-Electron Energy =                -928.6956526264027616
    Two-Electron Energy =                 359.5030872021576442
    DFT Exchange-Correlation Energy =       0.0000000000000000
    Empirical Dispersion Energy =           0.0000000000000000
    PCM Polarization Energy =               0.0000000000000000
    EFP Energy =                            0.0000000000000000
    Total Energy =                       -321.7351299602109975
    Molecular point group: c1
  Basis Set: 6-31G*
  Basis Set:

  -Total Gradient:
     Atom            X                  Y                   Z
    ------   -----------------  -----------------  -----------------
       1        0.000001780354     0.000003034281    -0.000001060631
       2       -0.000007978693    -0.000002171768    -0.000001996851
       3       -0.002001231314     0.001918315787    -0.001416712089
       4       -0.000003571394     0.000000977142    -0.000003425317
       5       -0.000003430544    -0.000000434330     0.000001486480
       6        0.000339924429    -0.002496708046    -0.000192466752
       7        0.001640111159    -0.001121600990     0.001243838444
       8       -0.000003506476    -0.000006162581     0.000002213587
       9        0.000033687050     0.001773319324     0.000419114470
      10        0.000007851627    -0.000000989272    -0.000002107663
      11       -0.000003044384     0.000002799098    -0.000004145126
      12       -0.000007977965    -0.000033632690    -0.000025838593
      13        0.000007386153    -0.000036745954    -0.000018899961

  **** Optimization is complete! (in 12 steps) ****
    Final optimized geometry and variables:
    Molecular point group: c1

    Geometry (in Angstrom), charge = 0, multiplicity = 1:

    H            3.456825292711     0.311314216056    -0.728276877332
    C            2.739250802768     0.174729113442     0.072637973378
    C            1.326078352310     0.043496740112    -0.495793566423
    H            3.027220599010    -0.714263977732     0.625741838758
    H            2.819752417238     1.026634406527     0.740284021454
    C            0.309119085106    -0.187013871779     0.621706077459
    H            1.285705513857    -0.790241722606    -1.186254094368
    H            1.059832056158     0.943562490683    -1.039580616170
    N           -1.066141027209    -0.048849078171     0.079154509315
    H            0.375896424242    -1.184631261288     1.027705934404
    H            0.392691292689     0.549932318583     1.403869575048
    O           -1.483127318183    -0.957211710784    -0.573038764632
    O           -1.647819149246     0.967594601624     0.301633603407

  Mulliken Charges: (a.u.)
   Center  Symbol    Alpha    Beta     Spin     Total
       1     H     0.40751  0.40751  0.00000  0.18498
       2     C     3.24849  3.24849  0.00000 -0.49697
       3     C     3.17187  3.17187  0.00000 -0.34374
       4     H     0.41542  0.41542  0.00000  0.16917
       5     H     0.41395  0.41395  0.00000  0.17211
       6     C     3.08360  3.08360  0.00000 -0.16721
       7     H     0.39787  0.39787  0.00000  0.20425
       8     H     0.40050  0.40050  0.00000  0.19900
       9     N     3.22371  3.22371  0.00000  0.55257
      10     H     0.38827  0.38827  0.00000  0.22346
      11     H     0.38793  0.38793  0.00000  0.22414
      12     O     4.23145  4.23145  0.00000 -0.46290
      13     O     4.22943  4.22943  0.00000 -0.45886

   Total alpha = 24.00000, Total beta = 24.00000, Total charge = -0.00000
