  ==> Input File <==

--------------------------------------------------------------------------
set {
	reference rhf
	basis 6-31G*
}

set_num_threads( 4 )
memory 2 gb

molecule MOL {
0 1

O	 -0.682937	 1.318834	 -0.186099
C	 -0.860635	 0.152188	 -0.042321
C	 -2.173363	 -0.477127	 0.338347
O	 0.083258	 -0.765189	 -0.202595
H	 -2.477673	 -1.180929	 -0.427595
H	 -2.923125	 0.290956	 0.455536
H	 -2.058825	 -1.029004	 1.264191
C	 0.260303	 -1.337178	 -1.496535
C	 1.140428	 -0.466589	 -2.374090
H	 -0.706576	 -1.498982	 -1.948315
H	 0.726275	 -2.293740	 -1.308498
H	 1.318574	 -0.963179	 -3.322980
H	 0.665411	 0.485907	 -2.572779
H	 2.098320	 -0.289376	 -1.897169

	symmetry c1
}
set optking {
	frozen_dihedral = ("
		8 4 2 1
	")
}

ee = optimize('scf')
oeprop('DIPOLE', 'QUADRUPOLE', 'MULLIKEN_CHARGES')
f=open( 'psi4out.xyz', 'w' )
f.write( "14  " )
f.write( str(ee) + "\n" )
f.write( MOL.save_string_xyz() )
f.close()
--------------------------------------------------------------------------

    Molecular point group: c1
  Charge       = 0
  Multiplicity = 1
  Basis Set: 6-31G*
  Basis Set:
  @DF-RHF Final Energy:  -305.85397344287776
    Total Energy =                       -305.8539734428777592
    Molecular point group: c1
  Basis Set: 6-31G*
  Basis Set:
  Basis Set: 6-31G*
  Basis Set:
  @DF-RHF Final Energy:  -305.85256242750802
    Total Energy =                       -305.8525624275079622
  Basis Set: 6-31G*
  Basis Set:
  Basis Set: 6-31G*
  Basis Set:
  @DF-RHF Final Energy:  -305.85500172568482
    Total Energy =                       -305.8550017256846445
  Basis Set: 6-31G*
  Basis Set:
  Basis Set: 6-31G*
  Basis Set:
  @DF-RHF Final Energy:  -305.85548161474662
    Total Energy =                       -305.8554816147465658
  Basis Set: 6-31G*
  Basis Set:
  Basis Set: 6-31G*
  Basis Set:
  @DF-RHF Final Energy:  -305.85549693201750
    Total Energy =                       -305.8554969320173882
  Basis Set: 6-31G*
  Basis Set:
  Basis Set: 6-31G*
  Basis Set:
  @DF-RHF Final Energy:  -305.85550064079257
    Total Energy =                       -305.8555006407926271
  Basis Set: 6-31G*
  Basis Set:
  Charge       = 0
  Multiplicity = 1
  Basis Set: 6-31G*
  Basis Set:

    Orbital Energies (a.u.)
    -----------------------

    Doubly Occupied:

       1A    -20.583479     2A    -20.557378     3A    -11.378393
       4A    -11.297331     5A    -11.237701     6A    -11.218908
       7A     -1.458042     8A     -1.367152     9A     -1.046892
      10A     -1.006544    11A     -0.883125    12A     -0.769495
      13A     -0.692071    14A     -0.680509    15A     -0.667762
      16A     -0.605398    17A     -0.593597    18A     -0.581957
      19A     -0.553776    20A     -0.541409    21A     -0.516269
      22A     -0.485369    23A     -0.452278    24A     -0.437083

  @DF-RHF Final Energy:  -305.85550141156966

   => Energetics <=

    Nuclear Repulsion Energy =            247.7957326349643665
    One-Electron Energy =                -908.0786372015695633
    Two-Electron Energy =                 354.4274031550354493
    DFT Exchange-Correlation Energy =       0.0000000000000000
    Empirical Dispersion Energy =           0.0000000000000000
    PCM Polarization Energy =               0.0000000000000000
    EFP Energy =                            0.0000000000000000
    Total Energy =                       -305.8555014115697759
    Molecular point group: c1
  Basis Set: 6-31G*
  Basis Set:

  -Total Gradient:
     Atom            X                  Y                   Z
    ------   -----------------  -----------------  -----------------
       1        0.000568092424     0.000092101989     0.002436073928
       2       -0.001592568827    -0.000747440847    -0.003416369456
       3        0.000033858020    -0.000002374356     0.000074494770
       4        0.002341302058     0.002110403732     0.000546958538
       5       -0.000011644898     0.000002846480    -0.000025860747
       6       -0.000010940965    -0.000014767039    -0.000009207657
       7       -0.000003053968    -0.000010135368    -0.000019895913
       8       -0.001328484338    -0.001414598297     0.000465599920
       9       -0.000005285638    -0.000000331405    -0.000013431739
      10        0.000006066228     0.000001095736    -0.000012517729
      11        0.000002478606    -0.000015296190    -0.000020473353
      12        0.000004338632    -0.000000542751    -0.000007263849
      13       -0.000000447251     0.000001830470     0.000001364033
      14       -0.000003710081    -0.000002792157     0.000000529252

  **** Optimization is complete! (in 7 steps) ****
    Final optimized geometry and variables:
    Molecular point group: c1

    Geometry (in Angstrom), charge = 0, multiplicity = 1:

    O           -0.304029630606     1.557307220241     0.483162187250
    C           -0.514891105519     0.401405895503     0.609943408153
    C           -1.836529025548    -0.178713980190     1.040052313792
    O            0.453567369043    -0.528991957782     0.458025946730
    H           -2.169581230035    -0.930870100488     0.333093925267
    H           -2.577803423177     0.602137935611     1.124243847318
    H           -1.707770862792    -0.671636113288     1.997528412129
    C            0.656380922443    -1.070917390355    -0.841630565678
    C            1.527869178349    -0.174183235975    -1.702388978229
    H           -0.303352604015    -1.253714348865    -1.316596297434
    H            1.129969583466    -2.027850307096    -0.677130395315
    H            1.699712812836    -0.643656497112    -2.666690837934
    H            1.061141330846     0.789256712101    -1.865264782012
    H            2.484876878540    -0.010131359314    -1.221534074427

  Mulliken Charges: (a.u.)
   Center  Symbol    Alpha    Beta     Spin     Total
       1     O     4.25060  4.25060  0.00000 -0.50121
       2     C     2.62897  2.62897  0.00000  0.74205
       3     C     3.28482  3.28482  0.00000 -0.56964
       4     O     4.31684  4.31684  0.00000 -0.63369
       5     H     0.40729  0.40729  0.00000  0.18542
       6     H     0.39714  0.39714  0.00000  0.20573
       7     H     0.39719  0.39719  0.00000  0.20563
       8     C     3.00682  3.00682  0.00000 -0.01363
       9     C     3.24782  3.24782  0.00000 -0.49564
      10     H     0.42350  0.42350  0.00000  0.15300
      11     H     0.40621  0.40621  0.00000  0.18759
      12     H     0.42114  0.42114  0.00000  0.15772
      13     H     0.40371  0.40371  0.00000  0.19259
      14     H     0.40795  0.40795  0.00000  0.18409

   Total alpha = 24.00000, Total beta = 24.00000, Total charge =  0.00000
