  ==> Input File <==

--------------------------------------------------------------------------
set {
	reference rhf
	basis 6-31G*
}

set_num_threads( 4 )
memory 2 gb

molecule MOL {
0 1

H	 -2.499100	 -0.730091	 -0.745082
O	 -2.347518	 -0.290803	 0.079804
C	 -1.184022	 0.487508	 -0.006784
C	 0.062599	 -0.378592	 0.031606
H	 -1.176523	 1.099369	 -0.904519
H	 -1.187323	 1.153111	 0.844927
O	 0.705978	 -0.261318	 -1.198065
H	 -0.209344	 -1.418210	 0.224535
H	 0.707917	 -0.054136	 0.845779
C	 1.893624	 -0.981320	 -1.299240
H	 1.724544	 -2.048335	 -1.166876
H	 2.296061	 -0.810423	 -2.288048
H	 2.621374	 -0.652874	 -0.560122

	symmetry c1
}
set optking {
	frozen_dihedral = ("
		8 4 3 5
	")
}

ee = optimize('scf')
oeprop('DIPOLE', 'QUADRUPOLE', 'MULLIKEN_CHARGES')
f=open( 'psi4out.xyz', 'w' )
f.write( "13  " )
f.write( str(ee) + "\n" )
f.write( MOL.save_string_xyz() )
f.close()
--------------------------------------------------------------------------

    Molecular point group: c1
  Charge       = 0
  Multiplicity = 1
  Basis Set: 6-31G*
  Basis Set:
  @DF-RHF Final Energy:  -267.94501491953559
    Total Energy =                       -267.9450149195357085
    Molecular point group: c1
  Basis Set: 6-31G*
  Basis Set:
  Basis Set: 6-31G*
  Basis Set:
  @DF-RHF Final Energy:  -267.94572112585513
    Total Energy =                       -267.9457211258550160
  Basis Set: 6-31G*
  Basis Set:
  Basis Set: 6-31G*
  Basis Set:
  @DF-RHF Final Energy:  -267.94595982312876
    Total Energy =                       -267.9459598231288169
  Basis Set: 6-31G*
  Basis Set:
  Basis Set: 6-31G*
  Basis Set:
  @DF-RHF Final Energy:  -267.94596585650720
    Total Energy =                       -267.9459658565072004
  Basis Set: 6-31G*
  Basis Set:
  Charge       = 0
  Multiplicity = 1
  Basis Set: 6-31G*
  Basis Set:

    Orbital Energies (a.u.)
    -----------------------

    Doubly Occupied:

       1A    -20.562042     2A    -20.554645     3A    -11.271291
       4A    -11.270319     5A    -11.269114     6A     -1.387492
       7A     -1.359587     8A     -1.015852     9A     -0.915030
      10A     -0.840985    11A     -0.703663    12A     -0.679388
      13A     -0.656215    14A     -0.629562    15A     -0.604267
      16A     -0.565891    17A     -0.537392    18A     -0.491792
      19A     -0.484188    20A     -0.437463    21A     -0.419956

  @DF-RHF Final Energy:  -267.94596661883537

   => Energetics <=

    Nuclear Repulsion Energy =            190.8827971873178626
    One-Electron Energy =                -744.3452596217914561
    Two-Electron Energy =                 285.5164958156381090
    DFT Exchange-Correlation Energy =       0.0000000000000000
    Empirical Dispersion Energy =           0.0000000000000000
    PCM Polarization Energy =               0.0000000000000000
    EFP Energy =                            0.0000000000000000
    Total Energy =                       -267.9459666188354277
    Molecular point group: c1
  Basis Set: 6-31G*
  Basis Set:

  -Total Gradient:
     Atom            X                  Y                   Z
    ------   -----------------  -----------------  -----------------
       1       -0.000022538643    -0.000026952041    -0.000007683069
       2        0.000054734815     0.000031036279    -0.000028952887
       3        0.001765477275     0.002857643905     0.001325963172
       4        0.000022939708     0.000123760566     0.003606995066
       5       -0.001573969654    -0.002412692344    -0.001674265464
       6        0.000028004444    -0.000005840945    -0.000001448243
       7       -0.000046981030    -0.000014912977     0.000079661613
       8       -0.000253894451    -0.000530619701    -0.003274937869
       9       -0.000015335882    -0.000006355405    -0.000002445130
      10        0.000038558340    -0.000016803091    -0.000022127997
      11       -0.000000568090     0.000000573228    -0.000001747298
      12        0.000001453351    -0.000000101817     0.000003788867
      13        0.000002119823     0.000001264345    -0.000002800761

  **** Optimization is complete! (in 5 steps) ****
    Final optimized geometry and variables:
    Molecular point group: c1

    Geometry (in Angstrom), charge = 0, multiplicity = 1:

    H           -2.265580229884    -0.453612378227    -0.280772910840
    O           -2.173198002291     0.010239443577     0.540131409336
    C           -1.001606650004     0.784609988257     0.501357138394
    C            0.273703736298    -0.062688889321     0.530090436716
    H           -0.982157136570     1.392736586738    -0.396652649573
    H           -1.052520894887     1.436175448773     1.362296047664
    O            0.911809305542     0.044095652953    -0.711971868968
    H            0.004241097795    -1.100718196223     0.713344309701
    H            0.948436999854     0.260152205256     1.320982780280
    C            2.085024170887    -0.698079670807    -0.815389539127
    H            1.897865853825    -1.761534241162    -0.677511144566
    H            2.487103458152    -0.538498741436    -1.806426751085
    H            2.822754524101    -0.380913895965    -0.080592905856

  Mulliken Charges: (a.u.)
   Center  Symbol    Alpha    Beta     Spin     Total
       1     H     0.28069  0.28069  0.00000  0.43862
       2     O     4.37130  4.37130  0.00000 -0.74259
       3     C     3.00759  3.00759  0.00000 -0.01518
       4     C     3.00894  3.00894  0.00000 -0.01789
       5     H     0.41216  0.41216  0.00000  0.17568
       6     H     0.41319  0.41319  0.00000  0.17362
       7     O     4.30900  4.30900  0.00000 -0.61801
       8     H     0.42043  0.42043  0.00000  0.15913
       9     H     0.42689  0.42689  0.00000  0.14621
      10     C     3.08071  3.08071  0.00000 -0.16143
      11     H     0.42922  0.42922  0.00000  0.14156
      12     H     0.41114  0.41114  0.00000  0.17771
      13     H     0.42872  0.42872  0.00000  0.14256

   Total alpha = 21.00000, Total beta = 21.00000, Total charge =  0.00000
