                              Psi4 1.0.54 Driver

  ==> Input File <==

--------------------------------------------------------------------------
set {
	reference rhf
	basis cc-pvtz
}

set_num_threads( 4 )
memory 2 gb

molecule MOL {
0 1

O	 1.216069	 1.304886	 0.000821
C	 1.121787	 0.124983	 0.000110
C	 -0.170912	 -0.649867	 -0.000147
O	 2.167739	 -0.685178	 -0.000678
C	 -1.413045	 0.229353	 0.001137
H	 -0.152877	 -1.303435	 -0.866175
H	 -0.152278	 -1.305116	 0.864586
C	 -1.522075	 1.083190	 -1.258777
H	 -1.399008	 0.867781	 0.877352
H	 -2.293881	 -0.395239	 0.098898
C	 -2.762366	 1.970040	 -1.266902
H	 -0.635212	 1.704341	 -1.353046
H	 -1.535522	 0.438043	 -2.133329
H	 -2.761031	 2.651124	 -0.422682
H	 -2.813588	 2.564221	 -2.171889
H	 -3.667866	 1.375675	 -1.208758
C	 3.449556	 -0.089977	 -0.000570
H	 3.585694	 0.522473	 -0.879546
H	 4.155805	 -0.904274	 -0.001389
H	 3.586173	 0.521118	 0.879272

	symmetry c1
}
set optking {
	frozen_dihedral = ("
		9 5 3 6
	")
}

ee,wfn = optimize('scf', return_wfn=True)
oeprop( wfn, 'DIPOLE', 'QUADRUPOLE', 'MULLIKEN_CHARGES')
f=open( 'psi4out.xyz', 'w' )
f.write( "20  " )
f.write( str(ee) + "\n" )
f.write( MOL.save_string_xyz() )
f.close()
--------------------------------------------------------------------------

    Molecular point group: c1
  Charge       = 0
  Multiplicity = 1
  Basis Set: CC-PVTZ
  Basis Set:
  @DF-RHF Final Energy:  -384.08075452937368
    Total Energy =                       -384.0807545293741896
    Molecular point group: c1
  Basis Set: CC-PVTZ
  Basis Set:
  Basis Set: CC-PVTZ
  Basis Set:
  @DF-RHF Final Energy:  -384.08202930122928
    Total Energy =                       -384.0820293012294542
  Basis Set: CC-PVTZ
  Basis Set:
  Basis Set: CC-PVTZ
  Basis Set:
  @DF-RHF Final Energy:  -384.08023480492540
    Total Energy =                       -384.0802348049255670
  Basis Set: CC-PVTZ
  Basis Set:
  Basis Set: CC-PVTZ
  Basis Set:
  @DF-RHF Final Energy:  -384.08238137949752
    Total Energy =                       -384.0823813794969510
  Basis Set: CC-PVTZ
  Basis Set:
  @DF-RHF Final Energy:  -384.08250347916493
    Total Energy =                       -384.0825034791650978
  Basis Set: CC-PVTZ
  Basis Set:
  @DF-RHF Final Energy:  -384.08256260782917
    Total Energy =                       -384.0825626078290043
  Basis Set: CC-PVTZ
  Basis Set:
  Basis Set: CC-PVTZ
  Basis Set:
  @DF-RHF Final Energy:  -384.08257439260558
    Total Energy =                       -384.0825743926058067
  Basis Set: CC-PVTZ
  Basis Set:
  Basis Set: CC-PVTZ
  Basis Set:
  @DF-RHF Final Energy:  -384.08257597418236
    Total Energy =                       -384.0825759741825323
  Basis Set: CC-PVTZ
  Basis Set:
  Charge       = 0
  Multiplicity = 1
  Basis Set: CC-PVTZ
  Basis Set:

    Orbital Energies (a.u.)
    -----------------------

    Doubly Occupied:

       1A    -20.597568     2A    -20.534230     3A    -11.365512
       4A    -11.279064     5A    -11.234239     6A    -11.218699
       7A    -11.212257     8A    -11.205468     9A     -1.473221
      10A     -1.366380    11A     -1.088041    12A     -1.023190
      13A     -0.970010    14A     -0.885045    15A     -0.806658
      16A     -0.768137    17A     -0.703376    18A     -0.683944
      19A     -0.675800    20A     -0.633586    21A     -0.606549
      22A     -0.588878    23A     -0.581748    24A     -0.541648
      25A     -0.535080    26A     -0.518561    27A     -0.512789
      28A     -0.477626    29A     -0.472325    30A     -0.464440
      31A     -0.459203    32A     -0.438613

  @DF-RHF Final Energy:  -384.08257607153570

   => Energetics <=

    Nuclear Repulsion Energy =            389.5028432097178097
    One-Electron Energy =               -1295.3270698215619632
    Two-Electron Energy =                 521.7416505403080009
    DFT Exchange-Correlation Energy =       0.0000000000000000
    Empirical Dispersion Energy =           0.0000000000000000
    PCM Polarization Energy =               0.0000000000000000
    EFP Energy =                            0.0000000000000000
    Total Energy =                       -384.0825760715360957
    Molecular point group: c1
  Basis Set: CC-PVTZ
  Basis Set:

  -Total Gradient:
     Atom            X                  Y                   Z
    ------   -----------------  -----------------  -----------------
       1        0.000009398761    -0.000061314599    -0.000021548251
       2       -0.000007182175     0.000074596221     0.000027780437
       3        0.000624581279     0.000900296780    -0.000714077254
       4        0.000025499897     0.000000202581    -0.000006855985
       5        0.000582458835     0.000846526998    -0.000642248396
       6       -0.000599495576    -0.000880832745     0.000690721673
       7        0.000007500346    -0.000001695334     0.000002446545
       8        0.000000650651     0.000006480857    -0.000007380574
       9       -0.000596746225    -0.000874791100     0.000675399641
      10        0.000002242007     0.000001362731    -0.000004377199
      11        0.000000449219    -0.000000471786    -0.000004510251
      12       -0.000006748721    -0.000004732904    -0.000000461199
      13       -0.000006645593     0.000001925161     0.000002475267
      14       -0.000000714723    -0.000004885298    -0.000001201150
      15       -0.000001002493     0.000001818519     0.000001501604
      16        0.000003321158     0.000004962758    -0.000002272523
      17       -0.000009158806    -0.000003844806     0.000009227213
      18       -0.000011124130    -0.000008528412     0.000002930834
      19       -0.000006379717     0.000008143626     0.000001489855
      20       -0.000010903998    -0.000005219247    -0.000009040287

  **** Optimization is complete! (in 9 steps) ****
    Final optimized geometry and variables:
    Molecular point group: c1

    Geometry (in Angstrom), charge = 0, multiplicity = 1:

    O            0.999305474066     0.833129736231     0.685167005473
    C            0.866184540267    -0.294195548473     0.348158918061
    C           -0.438419504871    -1.050753281602     0.327249161220
    O            1.876516910814    -1.061664943913    -0.024022203083
    C           -1.682700235352    -0.171135313197     0.370004141176
    H           -0.445242170056    -1.710717708746    -0.531443803700
    H           -0.411004457638    -1.700916173199     1.197286015065
    C           -1.901063914313     0.667495408628    -0.886864962411
    H           -1.636025051723     0.471455281754     1.241298181958
    H           -2.540533528061    -0.821914296187     0.513069053577
    C           -3.172296429019     1.506836702695    -0.817280836511
    H           -1.049364332046     1.319392520587    -1.039926946262
    H           -1.952154749800     0.008809666720    -1.750539372434
    H           -3.135640241655     2.199343377285     0.016646283300
    H           -3.307900472092     2.086966911888    -1.722646264194
    H           -4.050351321173     0.881923318084    -0.690138045316
    C            3.169782591481    -0.492162738294     0.007178422767
    H            3.226819618860     0.359879172213    -0.653702831705
    H            3.843511508519    -1.265739665820    -0.323645056810
    H            3.424369628310    -0.179011192382     1.008850608504

  Mulliken Charges: (a.u.)
   Center  Symbol    Alpha    Beta     Spin     Total
       1     O     4.20045  4.20045  0.00000 -0.40090
       2     C     2.80354  2.80354  0.00000  0.39292
       3     C     3.10958  3.10958  0.00000 -0.21916
       4     O     4.14576  4.14576  0.00000 -0.29152
       5     C     3.08807  3.08807  0.00000 -0.17613
       6     H     0.43738  0.43738  0.00000  0.12524
       7     H     0.43478  0.43478  0.00000  0.13045
       8     C     3.08679  3.08679  0.00000 -0.17358
       9     H     0.44600  0.44600  0.00000  0.10801
      10     H     0.44779  0.44779  0.00000  0.10442
      11     C     3.15099  3.15099  0.00000 -0.30198
      12     H     0.44432  0.44432  0.00000  0.11135
      13     H     0.45699  0.45699  0.00000  0.08602
      14     H     0.45236  0.45236  0.00000  0.09528
      15     H     0.44829  0.44829  0.00000  0.10342
      16     H     0.45672  0.45672  0.00000  0.08656
      17     C     3.03634  3.03634  0.00000 -0.07268
      18     H     0.45419  0.45419  0.00000  0.09161
      19     H     0.44525  0.44525  0.00000  0.10950
      20     H     0.45442  0.45442  0.00000  0.09116

   Total alpha = 32.00000, Total beta = 32.00000, Total charge =  0.00000

*** Psi4 exiting successfully. Buy a developer a beer!
