  ==> Input File <==

--------------------------------------------------------------------------
set {
	reference rhf
	basis 6-31G*
}

set_num_threads( 4 )
memory 2 gb

molecule MOL {
0 1

H	 -3.446403	 -0.253695	 -1.121164
O	 -3.517110	 -0.026191	 -0.205115
C	 -2.306886	 0.532354	 0.237577
C	 -1.177863	 -0.397191	 -0.171080
H	 -2.156308	 1.517575	 -0.201710
H	 -2.315015	 0.655684	 1.319734
C	 0.198102	 0.111031	 0.262842
H	 -1.208843	 -0.518759	 -1.250427
H	 -1.368741	 -1.376554	 0.258909
C	 1.331804	 -0.827780	 -0.158768
H	 0.361943	 1.100838	 -0.156218
H	 0.217265	 0.229072	 1.345532
C	 2.723619	 -0.410569	 0.329459
H	 1.342964	 -0.912588	 -1.244120
H	 1.116806	 -1.824343	 0.220779
C	 3.243875	 0.895854	 -0.272975
H	 3.424222	 -1.207124	 0.091250
H	 2.714788	 -0.329854	 1.414619
H	 3.251977	 0.848779	 -1.358681
H	 2.637085	 1.747371	 0.016682
H	 4.259473	 1.094070	 0.055697

	symmetry c1
}
set optking {
	frozen_dihedral = ("
		1 2 3 5
	")
}

ee = optimize('scf')
oeprop('DIPOLE', 'QUADRUPOLE', 'MULLIKEN_CHARGES')
f=open( 'psi4out.xyz', 'w' )
f.write( "21  " )
f.write( str(ee) + "\n" )
f.write( MOL.save_string_xyz() )
f.close()
--------------------------------------------------------------------------

    Molecular point group: c1
  Charge       = 0
  Multiplicity = 1
  Basis Set: 6-31G*
  Basis Set:
  @DF-RHF Final Energy:  -310.21056792675705
    Total Energy =                       -310.2105679267572214
    Molecular point group: c1
  Basis Set: 6-31G*
  Basis Set:
  Basis Set: 6-31G*
  Basis Set:
  @DF-RHF Final Energy:  -310.21227410497357
    Total Energy =                       -310.2122741049733463
  Basis Set: 6-31G*
  Basis Set:
  Basis Set: 6-31G*
  Basis Set:
  @DF-RHF Final Energy:  -310.21266446066551
    Total Energy =                       -310.2126644606655645
  Basis Set: 6-31G*
  Basis Set:
  Basis Set: 6-31G*
  Basis Set:
  @DF-RHF Final Energy:  -310.21266938306383
    Total Energy =                       -310.2126693830640534
  Basis Set: 6-31G*
  Basis Set:
  Basis Set: 6-31G*
  Basis Set:
  @DF-RHF Final Energy:  -310.21266412420937
    Total Energy =                       -310.2126641242093115
  Basis Set: 6-31G*
  Basis Set:
  Basis Set: 6-31G*
  Basis Set:
  @DF-RHF Final Energy:  -310.21267057743654
    Total Energy =                       -310.2126705774365973
  Basis Set: 6-31G*
  Basis Set:
  Charge       = 0
  Multiplicity = 1
  Basis Set: 6-31G*
  Basis Set:

    Orbital Energies (a.u.)
    -----------------------

    Doubly Occupied:

       1A    -20.551827     2A    -11.266560     3A    -11.220423
       4A    -11.218548     5A    -11.218255     6A    -11.217638
       7A    -11.210715     8A     -1.358855     9A     -1.090226
      10A     -1.035801    11A     -0.955914    12A     -0.880224
      13A     -0.821228    14A     -0.782103    15A     -0.689203
      16A     -0.644383    17A     -0.624445    18A     -0.617065
      19A     -0.591097    20A     -0.571507    21A     -0.551514
      22A     -0.524040    23A     -0.504617    24A     -0.502500
      25A     -0.479297    26A     -0.464734    27A     -0.459600
      28A     -0.457072    29A     -0.423235

  @DF-RHF Final Energy:  -310.21267051481175

   => Energetics <=

    Nuclear Repulsion Energy =            312.3018847319502811
    One-Electron Energy =               -1039.1638559523953518
    Two-Electron Energy =                 416.6493007056334932
    DFT Exchange-Correlation Energy =       0.0000000000000000
    Empirical Dispersion Energy =           0.0000000000000000
    PCM Polarization Energy =               0.0000000000000000
    EFP Energy =                            0.0000000000000000
    Total Energy =                       -310.2126705148115775
    Molecular point group: c1
  Basis Set: 6-31G*
  Basis Set:

  -Total Gradient:
     Atom            X                  Y                   Z
    ------   -----------------  -----------------  -----------------
       1        0.000297948573    -0.000936740950     0.000201100400
       2       -0.000500401317     0.001219486336    -0.000072455208
       3        0.000506749384    -0.000660664599    -0.000853399612
       4        0.000022199897     0.000000444860     0.000012807046
       5       -0.000332037807     0.000364941499     0.000725880718
       6        0.000015356996     0.000006517102     0.000001366620
       7        0.000012092778     0.000001626389    -0.000014097930
       8       -0.000000953263     0.000007813239     0.000000736403
       9        0.000000594020    -0.000003665659    -0.000004152755
      10       -0.000002585512    -0.000010624204     0.000007474218
      11        0.000002801453     0.000006920742    -0.000007457319
      12        0.000001791634     0.000001390763    -0.000005872360
      13       -0.000005591071    -0.000000811108     0.000007745420
      14        0.000002205934     0.000000390821    -0.000000180380
      15       -0.000012492021    -0.000001706135     0.000000327649
      16       -0.000005514321     0.000002971560     0.000001253947
      17       -0.000006911564     0.000002508491    -0.000006426147
      18        0.000008253892    -0.000005310810     0.000003817589
      19        0.000002486060    -0.000001661108     0.000002488777
      20       -0.000005089578     0.000003437825    -0.000003359284
      21       -0.000000904162     0.000002734948     0.000002402208

  **** Optimization is complete! (in 7 steps) ****
    Final optimized geometry and variables:
    Molecular point group: c1

    Geometry (in Angstrom), charge = 0, multiplicity = 1:

    H           -3.580910805099    -0.183807433367    -1.062466424081
    O           -3.572990465634     0.021450417590    -0.137820346062
    C           -2.310820582590     0.522823529804     0.217218468448
    C           -1.172584084130    -0.408904383714    -0.179496439241
    H           -2.158860887863     1.512784466110    -0.211241412726
    H           -2.335178093951     0.643411241183     1.293196156181
    C            0.200242349543     0.107442886092     0.255582580863
    H           -1.182117386331    -0.541933144845    -1.261758319811
    H           -1.361241276380    -1.386887907863     0.255290320306
    C            1.341560166130    -0.827719892542    -0.153195082691
    H            0.359901529193     1.095761149199    -0.168122821296
    H            0.210528083088     0.232051430854     1.337280616071
    C            2.727142796467    -0.400855025979     0.344355985052
    H            1.362401466372    -0.917030315535    -1.238236484201
    H            1.128714993218    -1.823686904090     0.229129770464
    C            3.243557189917     0.907589655779    -0.256933534364
    H            3.434074936484    -1.193685554895     0.112832316062
    H            2.709623556687    -0.318216406735     1.429153246491
    H            3.260426929728     0.858357435235    -1.342476706464
    H            2.629518977750     1.755975387609     0.026495703288
    H            4.255291846812     1.112669603007     0.079048662572

  Mulliken Charges: (a.u.)
   Center  Symbol    Alpha    Beta     Spin     Total
       1     H     0.28350  0.28350  0.00000  0.43300
       2     O     4.37165  4.37165  0.00000 -0.74329
       3     C     2.98439  2.98439  0.00000  0.03122
       4     C     3.17150  3.17150  0.00000 -0.34301
       5     H     0.43165  0.43165  0.00000  0.13670
       6     H     0.41721  0.41721  0.00000  0.16558
       7     C     3.16117  3.16117  0.00000 -0.32234
       8     H     0.42868  0.42868  0.00000  0.14265
       9     H     0.41382  0.41382  0.00000  0.17235
      10     C     3.15193  3.15193  0.00000 -0.30386
      11     H     0.42037  0.42037  0.00000  0.15925
      12     H     0.42141  0.42141  0.00000  0.15718
      13     C     3.15272  3.15272  0.00000 -0.30544
      14     H     0.42400  0.42400  0.00000  0.15200
      15     H     0.42072  0.42072  0.00000  0.15855
      16     C     3.24147  3.24147  0.00000 -0.48295
      17     H     0.42023  0.42023  0.00000  0.15954
      18     H     0.42265  0.42265  0.00000  0.15471
      19     H     0.42227  0.42227  0.00000  0.15545
      20     H     0.42014  0.42014  0.00000  0.15972
      21     H     0.41851  0.41851  0.00000  0.16299

   Total alpha = 29.00000, Total beta = 29.00000, Total charge =  0.00000
