  ==> Input File <==

--------------------------------------------------------------------------
set {
	reference rhf
	basis 6-31G*
}

set_num_threads( 4 )
memory 2 gb

molecule MOL {
0 1

H	 2.845955	 -0.323208	 0.022310
C	 1.900140	 0.071967	 -0.330070
C	 0.778463	 -0.508087	 0.517968
H	 1.782469	 -0.206877	 -1.370777
H	 1.922247	 1.149867	 -0.254252
N	 -0.540928	 0.005139	 0.058438
H	 0.716718	 -1.581298	 0.454712
H	 0.859711	 -0.198647	 1.550086
O	 -0.550134	 0.761365	 -0.862057
O	 -1.504738	 -0.380429	 0.647426

	symmetry c1
}
set optking {
	frozen_dihedral = ("
		9 6 3 2
	")
}

ee = optimize('scf')
oeprop('DIPOLE', 'QUADRUPOLE', 'MULLIKEN_CHARGES')
f=open( 'psi4out.xyz', 'w' )
f.write( "10  " )
f.write( str(ee) + "\n" )
f.write( MOL.save_string_xyz() )
f.close()
--------------------------------------------------------------------------

    Molecular point group: c1
  Charge       = 0
  Multiplicity = 1
  Basis Set: 6-31G*
  Basis Set:
  @DF-RHF Final Energy:  -282.69942553008696
    Total Energy =                       -282.6994255300868417
    Molecular point group: c1
  Basis Set: 6-31G*
  Basis Set:
  Basis Set: 6-31G*
  Basis Set:
  @DF-RHF Final Energy:  -282.70008193296911
    Total Energy =                       -282.7000819329692831
  Basis Set: 6-31G*
  Basis Set:
  Basis Set: 6-31G*
  Basis Set:
  @DF-RHF Final Energy:  -282.69835930053125
    Total Energy =                       -282.6983593005311945
  Basis Set: 6-31G*
  Basis Set:
  Basis Set: 6-31G*
  Basis Set:
  @DF-RHF Final Energy:  -282.70019192930886
    Total Energy =                       -282.7001919293087440
  Basis Set: 6-31G*
  Basis Set:
  Basis Set: 6-31G*
  Basis Set:
  @DF-RHF Final Energy:  -282.70004844172308
    Total Energy =                       -282.7000484417231974
  Basis Set: 6-31G*
  Basis Set:
  Basis Set: 6-31G*
  Basis Set:
  @DF-RHF Final Energy:  -282.70036499856417
    Total Energy =                       -282.7003649985639413
  Basis Set: 6-31G*
  Basis Set:
  Charge       = 0
  Multiplicity = 1
  Basis Set: 6-31G*
  Basis Set:

    Orbital Energies (a.u.)
    -----------------------

    Doubly Occupied:

       1A    -20.606131     2A    -20.599080     3A    -15.850254
       4A    -11.305294     5A    -11.246161     6A     -1.633404
       7A     -1.418977     8A     -1.125489     9A     -0.967348
      10A     -0.833231    11A     -0.759627    12A     -0.751049
      13A     -0.727126    14A     -0.636927    15A     -0.595192
      16A     -0.564222    17A     -0.539433    18A     -0.487463
      19A     -0.478375    20A     -0.450252

  @DF-RHF Final Energy:  -282.70036649846571

   => Energetics <=

    Nuclear Repulsion Energy =            186.0852825526763468
    One-Electron Energy =                -754.4212245203545990
    Two-Electron Energy =                 285.6355754692127675
    DFT Exchange-Correlation Energy =       0.0000000000000000
    Empirical Dispersion Energy =           0.0000000000000000
    PCM Polarization Energy =               0.0000000000000000
    EFP Energy =                            0.0000000000000000
    Total Energy =                       -282.7003664984655416
    Molecular point group: c1
  Basis Set: 6-31G*
  Basis Set:

  -Total Gradient:
     Atom            X                  Y                   Z
    ------   -----------------  -----------------  -----------------
       1        0.000043268579     0.000014459193    -0.000027765403
       2        0.000038364586     0.000036422154     0.000011128638
       3       -0.000052112266    -0.000010557796    -0.000030817344
       4       -0.000001271142     0.000000574277     0.000014834147
       5        0.000016967364    -0.000018562738    -0.000007563355
       6       -0.000139424856     0.000026891931    -0.000002149530
       7       -0.000026023251    -0.000005816782    -0.000005639196
       8       -0.000010686357     0.000022380814    -0.000005597952
       9        0.000129880118     0.000008983105    -0.000033805042
      10        0.000001037232    -0.000074774160     0.000087375039

  **** Optimization is complete! (in 7 steps) ****
    Final optimized geometry and variables:
    Molecular point group: c1

    Geometry (in Angstrom), charge = 0, multiplicity = 1:

    H            2.863529515058    -0.334364222886     0.048579478901
    C            1.935154329410     0.073911138951    -0.336065467782
    C            0.793165725426    -0.479627811923     0.490548697703
    H            1.840813344301    -0.205220056286    -1.376658954858
    H            1.981090237828     1.152644071504    -0.273962872458
    N           -0.547258069907     0.011663484292     0.054931461811
    H            0.716957396495    -1.555962969610     0.435947578249
    H            0.855998073409    -0.203649019630     1.533220492536
    O           -0.609638647694     0.764702405379    -0.865019676394
    O           -1.478497295654    -0.398285979534     0.677897291055

  Mulliken Charges: (a.u.)
   Center  Symbol    Alpha    Beta     Spin     Total
       1     H     0.41000  0.41000  0.00000  0.17999
       2     C     3.24939  3.24939  0.00000 -0.49878
       3     C     3.09548  3.09548  0.00000 -0.19095
       4     H     0.39986  0.39986  0.00000  0.20027
       5     H     0.39987  0.39987  0.00000  0.20026
       6     N     3.22053  3.22053  0.00000  0.55894
       7     H     0.38442  0.38442  0.00000  0.23117
       8     H     0.38442  0.38442  0.00000  0.23116
       9     O     4.22693  4.22693  0.00000 -0.45385
      10     O     4.22910  4.22910  0.00000 -0.45820

   Total alpha = 20.00000, Total beta = 20.00000, Total charge =  0.00000
