  ==> Input File <==

--------------------------------------------------------------------------
set {
	reference rhf
	basis 6-31G*
}

set_num_threads( 4 )
memory 2 gb

molecule MOL {
0 1

H	 -0.068173	 -0.212332	 -2.675884
C	 -0.720227	 0.413181	 -2.073622
O	 -0.774054	 0.001095	 -0.743181
H	 -1.725934	 0.328120	 -2.463044
H	 -0.402184	 1.446461	 -2.175470
C	 0.406953	 0.000033	 0.038965
C	 1.527284	 -0.003667	 -0.998752
C	 0.498933	 1.262172	 0.902524
C	 0.494271	 -1.259566	 0.906664
H	 1.452513	 0.873252	 -1.631882
H	 1.448863	 -0.881882	 -1.629595
H	 2.502020	 -0.005104	 -0.521731
H	 0.364280	 2.147110	 0.289513
H	 1.472180	 1.321775	 1.378800
H	 -0.247853	 1.275162	 1.689097
H	 0.356778	 -2.146106	 0.296587
H	 1.467182	 -1.320941	 1.383330
H	 -0.252763	 -1.267328	 1.693119

	symmetry c1
}
set optking {
	frozen_dihedral = ("
		2 3 6 7
	")
}

ee = optimize('scf')
oeprop('DIPOLE', 'QUADRUPOLE', 'MULLIKEN_CHARGES')
f=open( 'psi4out.xyz', 'w' )
f.write( "18  " )
f.write( str(ee) + "\n" )
f.write( MOL.save_string_xyz() )
f.close()
--------------------------------------------------------------------------

    Molecular point group: c1
  Charge       = 0
  Multiplicity = 1
  Basis Set: 6-31G*
  Basis Set:
  @DF-RHF Final Energy:  -271.15801149968360
    Total Energy =                       -271.1580114996834254
    Molecular point group: c1
  Basis Set: 6-31G*
  Basis Set:
  Basis Set: 6-31G*
  Basis Set:
  @DF-RHF Final Energy:  -271.16404703817631
    Total Energy =                       -271.1640470381764203
  Basis Set: 6-31G*
  Basis Set:
  Basis Set: 6-31G*
  Basis Set:
  @DF-RHF Final Energy:  -271.16976777141872
    Total Energy =                       -271.1697677714187193
  Basis Set: 6-31G*
  Basis Set:
  Basis Set: 6-31G*
  Basis Set:
  @DF-RHF Final Energy:  -271.17179670012621
    Total Energy =                       -271.1717967001259808
  Basis Set: 6-31G*
  Basis Set:
  @DF-RHF Final Energy:  -271.17224373067575
    Total Energy =                       -271.1722437306758025
  Basis Set: 6-31G*
  Basis Set:
  @DF-RHF Final Energy:  -271.17240769528030
    Total Energy =                       -271.1724076952801283
  Basis Set: 6-31G*
  Basis Set:
  Basis Set: 6-31G*
  Basis Set:
  @DF-RHF Final Energy:  -271.17245575665862
    Total Energy =                       -271.1724557566586213
  Basis Set: 6-31G*
  Basis Set:
  Basis Set: 6-31G*
  Basis Set:
  @DF-RHF Final Energy:  -271.17246079272377
    Total Energy =                       -271.1724607927237685
  Basis Set: 6-31G*
  Basis Set:
  Charge       = 0
  Multiplicity = 1
  Basis Set: 6-31G*
  Basis Set:

    Orbital Energies (a.u.)
    -----------------------

    Doubly Occupied:

       1A    -20.544341     2A    -11.281687     3A    -11.261996
       4A    -11.213362     5A    -11.203991     6A    -11.203517
       7A     -1.367157     8A     -1.073739     9A     -0.950583
      10A     -0.934830    11A     -0.911840    12A     -0.751428
      13A     -0.656405    14A     -0.645754    15A     -0.637035
      16A     -0.584379    17A     -0.575713    18A     -0.549990
      19A     -0.539289    20A     -0.525855    21A     -0.514963
      22A     -0.490442    23A     -0.483428    24A     -0.441703
      25A     -0.397210

  @DF-RHF Final Energy:  -271.17246152297810

   => Energetics <=

    Nuclear Repulsion Energy =            271.9069398015852812
    One-Electron Energy =                -906.6775294971038193
    Two-Electron Energy =                 363.5981281725406120
    DFT Exchange-Correlation Energy =       0.0000000000000000
    Empirical Dispersion Energy =           0.0000000000000000
    PCM Polarization Energy =               0.0000000000000000
    EFP Energy =                            0.0000000000000000
    Total Energy =                       -271.1724615229779261
    Molecular point group: c1
  Basis Set: 6-31G*
  Basis Set:

  -Total Gradient:
     Atom            X                  Y                   Z
    ------   -----------------  -----------------  -----------------
       1       -0.000006464926     0.000003770026     0.000001546463
       2        0.000491036979    -0.002881407658    -0.000902285189
       3       -0.000751933872     0.005490459105     0.001333493398
       4        0.000000334005     0.000000332284    -0.000003587053
       5        0.000002653064     0.000001355268    -0.000000531630
       6        0.000263082809    -0.005198900113    -0.000435642924
       7        0.000013267946     0.002595257264    -0.000044202832
       8       -0.000010407134    -0.000011407130     0.000009045780
       9       -0.000001826591     0.000003135992     0.000020140960
      10       -0.000002748886     0.000004490012    -0.000018098316
      11        0.000014333108    -0.000004763561     0.000010603288
      12       -0.000011882617     0.000006951891    -0.000002220941
      13       -0.000000857098    -0.000012775627     0.000005054608
      14        0.000005036180     0.000005352811     0.000001074726
      15        0.000000081578     0.000008975717     0.000007619194
      16        0.000003531437     0.000014428793     0.000002819237
      17       -0.000003067552    -0.000008588811     0.000009853691
      18       -0.000004168429    -0.000016666262     0.000005317538

  **** Optimization is complete! (in 9 steps) ****
    Final optimized geometry and variables:
    Molecular point group: c1

    Geometry (in Angstrom), charge = 0, multiplicity = 1:

    H           -0.572054259520    -0.330955160037    -2.344405311787
    C           -1.117815485097     0.322474913059    -1.671276081018
    O           -1.013794183846    -0.073300729820    -0.340332447565
    H           -2.168673588669     0.270212431456    -1.923542767270
    H           -0.781719983051     1.344374642496    -1.831060824679
    C            0.238210421560    -0.067298168022     0.333350299631
    C            1.446563526240    -0.075551179230    -0.607986345492
    C            0.274817741055     1.189003379794     1.208112971144
    C            0.233860146547    -1.324827390351     1.198727418935
    H            1.491727548319     0.814679136154    -1.224763349758
    H            1.441834578789    -0.944524985707    -1.257565285158
    H            2.356346425597    -0.110856249884    -0.018538836431
    H            0.229165661082     2.083416633827     0.594217298153
    H            1.183014226607     1.233502414646     1.801740788792
    H           -0.576799639399     1.199683084123     1.878910484573
    H            0.201970599115    -2.211817256739     0.575091274935
    H            1.119145580062    -1.373888079493     1.825263161189
    H           -0.641725508040    -1.332028450002     1.837782418085

  Mulliken Charges: (a.u.)
   Center  Symbol    Alpha    Beta     Spin     Total
       1     H     0.42881  0.42881  0.00000  0.14237
       2     C     3.07597  3.07597  0.00000 -0.15194
       3     O     4.32406  4.32406  0.00000 -0.64812
       4     H     0.41245  0.41245  0.00000  0.17510
       5     H     0.43204  0.43204  0.00000  0.13592
       6     C     2.84013  2.84013  0.00000  0.31974
       7     C     3.25755  3.25755  0.00000 -0.51510
       8     C     3.23345  3.23345  0.00000 -0.46690
       9     C     3.23170  3.23170  0.00000 -0.46340
      10     H     0.41667  0.41667  0.00000  0.16667
      11     H     0.41491  0.41491  0.00000  0.17018
      12     H     0.41469  0.41469  0.00000  0.17061
      13     H     0.42155  0.42155  0.00000  0.15690
      14     H     0.42560  0.42560  0.00000  0.14881
      15     H     0.41373  0.41373  0.00000  0.17254
      16     H     0.41814  0.41814  0.00000  0.16371
      17     H     0.42571  0.42571  0.00000  0.14859
      18     H     0.41284  0.41284  0.00000  0.17431

   Total alpha = 25.00000, Total beta = 25.00000, Total charge = -0.00000
