                              Psi4 1.0.54 Driver

  ==> Input File <==

--------------------------------------------------------------------------
set {
	reference rhf
	basis cc-pvtz
}

set_num_threads( 4 )
memory 2 gb

molecule MOL {
0 1

O	 0.990054	 0.832452	 -0.865924
C	 0.576499	 0.134701	 -0.003900
C	 -0.765656	 -0.550508	 -0.002152
O	 1.253689	 -0.132382	 1.100660
C	 -1.945526	 0.411052	 0.000603
H	 -0.794329	 -1.203792	 -0.868145
H	 -0.791555	 -1.205429	 0.862701
C	 -3.282915	 -0.321280	 0.002596
H	 -1.880300	 1.059126	 -0.864925
H	 -1.877207	 1.057892	 0.866807
H	 -3.388495	 -0.952755	 -0.873419
H	 -4.107811	 0.380864	 0.004116
H	 -3.385717	 -0.953283	 0.878571
C	 2.533793	 0.451974	 1.234352
H	 3.185609	 0.128255	 0.436608
H	 2.914948	 0.117752	 2.185512
H	 2.464511	 1.529459	 1.217947

	symmetry c1
}
set optking {
	frozen_dihedral = ("
		1 2 3 6
	")
}

ee,wfn = optimize('scf', return_wfn=True)
oeprop( wfn, 'DIPOLE', 'QUADRUPOLE', 'MULLIKEN_CHARGES')
f=open( 'psi4out.xyz', 'w' )
f.write( "17  " )
f.write( str(ee) + "\n" )
f.write( MOL.save_string_xyz() )
f.close()
--------------------------------------------------------------------------

    Molecular point group: c1
  Charge       = 0
  Multiplicity = 1
  Basis Set: CC-PVTZ
  Basis Set:
  @DF-RHF Final Energy:  -345.03329014884969
    Total Energy =                       -345.0332901488496873
    Molecular point group: c1
  Basis Set: CC-PVTZ
  Basis Set:
  Basis Set: CC-PVTZ
  Basis Set:
  @DF-RHF Final Energy:  -345.03396544950999
    Total Energy =                       -345.0339654495099921
  Basis Set: CC-PVTZ
  Basis Set:
  Basis Set: CC-PVTZ
  Basis Set:
  @DF-RHF Final Energy:  -345.03393468034449
    Total Energy =                       -345.0339346803445437
  Basis Set: CC-PVTZ
  Basis Set:
  Basis Set: CC-PVTZ
  Basis Set:
  @DF-RHF Final Energy:  -345.03396696932964
    Total Energy =                       -345.0339669693292421
  Basis Set: CC-PVTZ
  Basis Set:
  Basis Set: CC-PVTZ
  Basis Set:
  @DF-RHF Final Energy:  -345.03401323915358
    Total Energy =                       -345.0340132391534667
  Basis Set: CC-PVTZ
  Basis Set:
  Charge       = 0
  Multiplicity = 1
  Basis Set: CC-PVTZ
  Basis Set:

    Orbital Energies (a.u.)
    -----------------------

    Doubly Occupied:

       1A    -20.599087     2A    -20.531572     3A    -11.364356
       4A    -11.278812     5A    -11.232801     6A    -11.226872
       7A    -11.215052     8A     -1.472878     9A     -1.364953
      10A     -1.083145    11A     -1.001520    12A     -0.942104
      13A     -0.828998    14A     -0.774095    15A     -0.700971
      16A     -0.683969    17A     -0.676147    18A     -0.637771
      19A     -0.596152    20A     -0.583128    21A     -0.561077
      22A     -0.536326    23A     -0.526975    24A     -0.504455
      25A     -0.485442    26A     -0.483134    27A     -0.458577
      28A     -0.437904

  @DF-RHF Final Energy:  -345.03401458523376

   => Energetics <=

    Nuclear Repulsion Energy =            313.4790073256397136
    One-Electron Energy =               -1091.4495007437917593
    Two-Electron Energy =                 432.9364788329179419
    DFT Exchange-Correlation Energy =       0.0000000000000000
    Empirical Dispersion Energy =           0.0000000000000000
    PCM Polarization Energy =               0.0000000000000000
    EFP Energy =                            0.0000000000000000
    Total Energy =                       -345.0340145852341038
    Molecular point group: c1
  Basis Set: CC-PVTZ
  Basis Set:

  -Total Gradient:
     Atom            X                  Y                   Z
    ------   -----------------  -----------------  -----------------
       1        0.000076858577    -0.000254200805    -0.000058985249
       2       -0.000202552572     0.000434375142    -0.000045736528
       3        0.000174061843    -0.000362499178     0.000133653298
       4        0.000082159396    -0.000020099010     0.000127945304
       5       -0.000016266445     0.000006044967    -0.000025137740
       6       -0.000111276396     0.000191441658    -0.000129219465
       7        0.000008524581     0.000020446391    -0.000018078141
       8       -0.000000280450     0.000002450660     0.000007057038
       9       -0.000010012830     0.000006884497    -0.000003303613
      10       -0.000009376837    -0.000008964889     0.000001955182
      11        0.000011978404     0.000002581157     0.000006026574
      12        0.000007714376     0.000002908933     0.000000115509
      13       -0.000004871030    -0.000000734500     0.000002509915
      14       -0.000011047872    -0.000029215132    -0.000015948122
      15        0.000002894052     0.000003102115     0.000006046172
      16        0.000005460825     0.000002802190     0.000007866161
      17       -0.000003967627     0.000002675805     0.000003233706

  **** Optimization is complete! (in 6 steps) ****
    Final optimized geometry and variables:
    Molecular point group: c1

    Geometry (in Angstrom), charge = 0, multiplicity = 1:

    O            0.987610435227     0.728216690262    -1.049476546220
    C            0.627410772968     0.003412445294    -0.184432009343
    C           -0.701271012928    -0.710128236262    -0.178488072424
    O            1.356275427194    -0.265150713114     0.884569871385
    C           -1.872313645100     0.274187203623    -0.223921322205
    H           -0.722689149655    -1.337651620289    -1.062643797196
    H           -0.767336221115    -1.349240491490     0.690496100719
    C           -3.219533570873    -0.436204056878    -0.279691978508
    H           -1.755193982288     0.918074408116    -1.086172212049
    H           -1.836019035553     0.914508288891     0.652195299879
    H           -3.295970756323    -1.059683190991    -1.164051164059
    H           -4.032515333973     0.279331773364    -0.307941812003
    H           -3.367146937542    -1.071265079685     0.587280161313
    C            2.624899121074     0.352624447381     0.974278654452
    H            3.249619641245     0.060943501792     0.143251049741
    H            3.055943971210     0.013215086984     1.902093087921
    H            2.525107812585     1.427786109300     0.979777390324

  Mulliken Charges: (a.u.)
   Center  Symbol    Alpha    Beta     Spin     Total
       1     O     4.20469  4.20469  0.00000 -0.40939
       2     C     2.81201  2.81201  0.00000  0.37598
       3     C     3.08073  3.08073  0.00000 -0.16146
       4     O     4.14394  4.14394  0.00000 -0.28789
       5     C     3.08764  3.08764  0.00000 -0.17528
       6     H     0.44499  0.44499  0.00000  0.11002
       7     H     0.44037  0.44037  0.00000  0.11925
       8     C     3.15133  3.15133  0.00000 -0.30266
       9     H     0.43991  0.43991  0.00000  0.12019
      10     H     0.45174  0.45174  0.00000  0.09652
      11     H     0.45363  0.45363  0.00000  0.09273
      12     H     0.44601  0.44601  0.00000  0.10798
      13     H     0.45505  0.45505  0.00000  0.08991
      14     C     3.03467  3.03467  0.00000 -0.06934
      15     H     0.45405  0.45405  0.00000  0.09190
      16     H     0.44516  0.44516  0.00000  0.10967
      17     H     0.45407  0.45407  0.00000  0.09186

   Total alpha = 28.00000, Total beta = 28.00000, Total charge =  0.00000

*** Psi4 exiting successfully. Buy a developer a beer!
