                              Psi4 1.0.54 Driver

  ==> Input File <==

--------------------------------------------------------------------------
set {
	reference rhf
	basis cc-pvtz
}

set_num_threads( 4 )
memory 2 gb

molecule MOL {
0 1

H	 -1.939834	 2.225611	 2.655207
O	 -1.137010	 1.727377	 2.686078
C	 -0.788082	 1.413586	 1.441602
C	 0.485778	 0.613625	 1.404528
O	 -1.432565	 1.741256	 0.506057
C	 0.926581	 0.227233	 0.000178
H	 0.330163	 -0.263231	 2.024719
H	 1.246080	 1.200767	 1.909427
C	 2.220156	 -0.582071	 -0.000088
H	 0.137248	 -0.340985	 -0.478901
H	 1.054292	 1.124812	 -0.594350
C	 3.466689	 0.296012	 -0.000457
H	 2.239073	 -1.234095	 -0.869382
H	 2.239505	 -1.233985	 0.869270
H	 3.493549	 0.935857	 -0.875887
H	 4.368821	 -0.304526	 -0.001199
H	 3.494559	 0.935166	 0.875458

	symmetry c1
}
set optking {
	frozen_dihedral = ("
		10 6 9 13
	")
}

ee,wfn = optimize('scf', return_wfn=True)
oeprop( wfn, 'DIPOLE', 'QUADRUPOLE', 'MULLIKEN_CHARGES')
f=open( 'psi4out.xyz', 'w' )
f.write( "17  " )
f.write( str(ee) + "\n" )
f.write( MOL.save_string_xyz() )
f.close()
--------------------------------------------------------------------------

    Molecular point group: c1
  Charge       = 0
  Multiplicity = 1
  Basis Set: CC-PVTZ
  Basis Set:
  @DF-RHF Final Energy:  -345.04579986878622
    Total Energy =                       -345.0457998687859344
    Molecular point group: c1
  Basis Set: CC-PVTZ
  Basis Set:
  Basis Set: CC-PVTZ
  Basis Set:
  @DF-RHF Final Energy:  -345.04603824695039
    Total Energy =                       -345.0460382469506158
  Basis Set: CC-PVTZ
  Basis Set:
  Basis Set: CC-PVTZ
  Basis Set:
  @DF-RHF Final Energy:  -345.04579517335890
    Total Energy =                       -345.0457951733588402
  Basis Set: CC-PVTZ
  Basis Set:
  Basis Set: CC-PVTZ
  Basis Set:
  @DF-RHF Final Energy:  -345.04608100679457
    Total Energy =                       -345.0460810067945090
  Basis Set: CC-PVTZ
  Basis Set:
  Charge       = 0
  Multiplicity = 1
  Basis Set: CC-PVTZ
  Basis Set:

    Orbital Energies (a.u.)
    -----------------------

    Doubly Occupied:

       1A    -20.604170     2A    -20.540778     3A    -11.373726
       4A    -11.239517     5A    -11.221212     6A    -11.220609
       7A    -11.212664     8A     -1.477654     9A     -1.369234
      10A     -1.092255    11A     -1.017926    12A     -0.918074
      13A     -0.830304    14A     -0.784941    15A     -0.703875
      16A     -0.692799    17A     -0.667188    18A     -0.617299
      19A     -0.614496    20A     -0.587566    21A     -0.563144
      22A     -0.539397    23A     -0.522813    24A     -0.484838
      25A     -0.478980    26A     -0.475702    27A     -0.469547
      28A     -0.446593

  @DF-RHF Final Energy:  -345.04608512091374

   => Energetics <=

    Nuclear Repulsion Energy =            307.2666346100594410
    One-Electron Energy =               -1079.0908429315807098
    Two-Electron Energy =                 426.7781232006076380
    DFT Exchange-Correlation Energy =       0.0000000000000000
    Empirical Dispersion Energy =           0.0000000000000000
    PCM Polarization Energy =               0.0000000000000000
    EFP Energy =                            0.0000000000000000
    Total Energy =                       -345.0460851209136308
    Molecular point group: c1
  Basis Set: CC-PVTZ
  Basis Set:

  -Total Gradient:
     Atom            X                  Y                   Z
    ------   -----------------  -----------------  -----------------
       1       -0.000051302896     0.000034818245     0.000025896405
       2        0.000058959059    -0.000004565086     0.000083599767
       3        0.000045714272    -0.000104980699     0.000090263699
       4        0.000022501687     0.000037902408     0.000071911712
       5       -0.000055788516     0.000046211468    -0.000201816372
       6       -0.001053857330    -0.002066573941     0.003662911562
       7       -0.000005601662    -0.000005922171    -0.000008623715
       8       -0.000011393077    -0.000015807996    -0.000008094830
       9        0.001674971606     0.002975602492    -0.002639051612
      10        0.000652295441     0.001295339648    -0.002693480258
      11       -0.000011405742    -0.000013546467    -0.000021812456
      12        0.000018180341     0.000089909349    -0.000005329085
      13       -0.001242343391    -0.002221894841     0.001662822456
      14       -0.000010746524    -0.000017312783    -0.000019262109
      15       -0.000014913166    -0.000001033434    -0.000009333547
      16       -0.000025730740    -0.000025469741     0.000007390178
      17        0.000010460638    -0.000002676452     0.000002008209

  **** Optimization is complete! (in 5 steps) ****
    Final optimized geometry and variables:
    Molecular point group: c1

    Geometry (in Angstrom), charge = 0, multiplicity = 1:

    H           -2.414079135037     1.390700259443     1.834203425078
    O           -1.609176057224     0.894851884998     1.844366876224
    C           -1.287163092629     0.589327254347     0.590411826170
    C           -0.010995988637    -0.204894178791     0.520766755326
    O           -1.952461033887     0.921736678235    -0.328833036554
    C            0.394112567222    -0.587919037698    -0.895802678864
    H           -0.149318893795    -1.084828763839     1.140340593002
    H            0.755614480532     0.384680638169     1.011720798817
    C            1.721737113881    -1.352528666523    -0.957623612724
    H           -0.393233377780    -1.173627313624    -1.353455738692
    H            0.464909908439     0.310464408228    -1.499060968551
    C            2.956072583121    -0.455991784926    -0.964964794242
    H            1.723643961183    -1.985663009338    -1.837908210789
    H            1.781686151437    -2.037615539391    -0.115372641222
    H            2.959356242018     0.191541145095    -1.834889796214
    H            3.865244413905    -1.045522556596    -0.986419698702
    H            2.998389789074     0.175907644620    -0.084292778340

  Mulliken Charges: (a.u.)
   Center  Symbol    Alpha    Beta     Spin     Total
       1     H     0.38236  0.38236  0.00000  0.23529
       2     O     4.16023  4.16023  0.00000 -0.32046
       3     C     2.80396  2.80396  0.00000  0.39209
       4     C     3.11003  3.11003  0.00000 -0.22006
       5     O     4.19109  4.19109  0.00000 -0.38219
       6     C     3.08895  3.08895  0.00000 -0.17789
       7     H     0.43764  0.43764  0.00000  0.12472
       8     H     0.43825  0.43825  0.00000  0.12350
       9     C     3.09316  3.09316  0.00000 -0.18633
      10     H     0.44070  0.44070  0.00000  0.11860
      11     H     0.44756  0.44756  0.00000  0.10489
      12     C     3.14762  3.14762  0.00000 -0.29524
      13     H     0.44470  0.44470  0.00000  0.11060
      14     H     0.45759  0.45759  0.00000  0.08481
      15     H     0.45274  0.45274  0.00000  0.09452
      16     H     0.44689  0.44689  0.00000  0.10623
      17     H     0.45654  0.45654  0.00000  0.08693

   Total alpha = 28.00000, Total beta = 28.00000, Total charge = -0.00000

*** Psi4 exiting successfully. Buy a developer a beer!
