  ==> Input File <==

--------------------------------------------------------------------------
set {
	reference rhf
	basis cc-pvtz
}

set_num_threads( 4 )
memory 2 gb

molecule MOL {
0 1

H	 -0.939693	 0.000281	 1.681345
O	 -0.046262	 -0.000157	 1.387678
C	 -0.000837	 0.000006	 -0.025491
C	 0.735549	 1.246171	 -0.513300
C	 0.697072	 -1.267522	 -0.514820
C	 -1.454976	 0.022550	 -0.476225
H	 0.755030	 1.292549	 -1.596011
H	 1.763442	 1.247532	 -0.163294
H	 0.250922	 2.139044	 -0.138631
H	 0.715087	 -1.313185	 -1.597584
H	 1.724460	 -1.300744	 -0.164902
H	 0.185376	 -2.145605	 -0.141186
H	 -1.524432	 0.024231	 -1.557641
H	 -1.951103	 0.906928	 -0.096824
H	 -1.977981	 -0.846639	 -0.097820

	symmetry c1
}
set optking {
	frozen_dihedral = ("
		4 3 2 1
	")
}

ee = optimize('scf')
oeprop('DIPOLE', 'QUADRUPOLE', 'MULLIKEN_CHARGES')
f=open( 'psi4out.xyz', 'w' )
f.write( "15  " )
f.write( str(ee) + "\n" )
f.write( MOL.save_string_xyz() )
f.close()
--------------------------------------------------------------------------

    Molecular point group: c1
  Charge       = 0
  Multiplicity = 1
  Basis Set: CC-PVTZ
  Basis Set:
  @DF-RHF Final Energy:  -232.24279843138754
    Total Energy =                       -232.2427984313874845
    Molecular point group: c1
  Basis Set: CC-PVTZ
  Basis Set:
  Basis Set: CC-PVTZ
  Basis Set:
  @DF-RHF Final Energy:  -232.24426857781890
    Total Energy =                       -232.2442685778191276
  Basis Set: CC-PVTZ
  Basis Set:
  Basis Set: CC-PVTZ
  Basis Set:
  @DF-RHF Final Energy:  -232.24470626558957
    Total Energy =                       -232.2447062655893433
  Basis Set: CC-PVTZ
  Basis Set:
  Basis Set: CC-PVTZ
  Basis Set:
  @DF-RHF Final Energy:  -232.24470765400454
    Total Energy =                       -232.2447076540045146
  Basis Set: CC-PVTZ
  Basis Set:
  Charge       = 0
  Multiplicity = 1
  Basis Set: CC-PVTZ
  Basis Set:

    Orbital Energies (a.u.)
    -----------------------

    Doubly Occupied:

       1A    -20.540236     2A    -11.281110     3A    -11.216398
       4A    -11.203344     5A    -11.203328     6A     -1.362796
       7A     -1.065803     8A     -0.946463     9A     -0.936549
      10A     -0.778597    11A     -0.671871    12A     -0.624607
      13A     -0.622858    14A     -0.576484    15A     -0.557396
      16A     -0.534883    17A     -0.517065    18A     -0.511390
      19A     -0.503089    20A     -0.458322    21A     -0.426407

  @DF-RHF Final Energy:  -232.24472275891026

   => Energetics <=

    Nuclear Repulsion Energy =            200.5808368265438162
    One-Electron Energy =                -712.5731280300567505
    Two-Electron Energy =                 279.7475684446029618
    DFT Exchange-Correlation Energy =       0.0000000000000000
    Empirical Dispersion Energy =           0.0000000000000000
    PCM Polarization Energy =               0.0000000000000000
    EFP Energy =                            0.0000000000000000
    Total Energy =                       -232.2447227589099725
    Molecular point group: c1
  Basis Set: CC-PVTZ
  Basis Set:

  -Total Gradient:
     Atom            X                  Y                   Z
    ------   -----------------  -----------------  -----------------
       1       -0.000031753368    -0.000046629574    -0.000050739997
       2        0.000059145677     0.000108726188    -0.000077744893
       3       -0.000089255871    -0.000040842913     0.000132985349
       4        0.000034913913    -0.000119597968     0.000007709252
       5        0.000032901567     0.000099676796    -0.000060874680
       6       -0.000098104974     0.000019142303     0.000063211897
       7       -0.000000630764    -0.000000508848     0.000005008219
       8        0.000041350426     0.000012209393     0.000004029799
       9       -0.000031001061    -0.000058068092     0.000011750154
      10        0.000015710154    -0.000029230693    -0.000018655397
      11        0.000033655336    -0.000013537505     0.000003293675
      12       -0.000026101582     0.000069502847     0.000012006232
      13        0.000035361278    -0.000001322801    -0.000042412180
      14        0.000008861247    -0.000040310234     0.000005355429
      15        0.000014948022     0.000040791103     0.000005077145

  **** Optimization is complete! (in 5 steps) ****
    Final optimized geometry and variables:
    Molecular point group: c1

    Geometry (in Angstrom), charge = 0, multiplicity = 1:

    H           -0.811244528659     0.016422160980     1.758006298627
    O            0.052281925396    -0.003768733933     1.391925459911
    C            0.001364682416     0.000033437979    -0.025081259289
    C            0.742625935642     1.244098355694    -0.504761700781
    C            0.705186953367    -1.263867864346    -0.509278200426
    C           -1.449911243406     0.022515646612    -0.495855467601
    H            0.786935397250     1.282698523178    -1.587453968121
    H            1.754572018028     1.244188327684    -0.119444037940
    H            0.247937105612     2.139618940546    -0.148127626255
    H            0.749096880964    -1.299637053437    -1.592098223464
    H            1.716424016492    -1.295876625470    -0.123429404950
    H            0.183556917991    -2.145373119156    -0.156264239220
    H           -1.507296670199     0.025213367464    -1.577234951570
    H           -1.957388222574     0.910269663384    -0.132672348840
    H           -1.983609304412    -0.850807577274    -0.135444898245

  Mulliken Charges: (a.u.)
   Center  Symbol    Alpha    Beta     Spin     Total
       1     H     0.39168  0.39168  0.00000  0.21665
       2     O     4.21541  4.21541  0.00000 -0.43082
       3     C     2.88054  2.88054  0.00000  0.23892
       4     C     3.13958  3.13958  0.00000 -0.27916
       5     C     3.13955  3.13955  0.00000 -0.27911
       6     C     3.16362  3.16362  0.00000 -0.32725
       7     H     0.45956  0.45956  0.00000  0.08089
       8     H     0.44796  0.44796  0.00000  0.10408
       9     H     0.45372  0.45372  0.00000  0.09255
      10     H     0.45955  0.45955  0.00000  0.08090
      11     H     0.44793  0.44793  0.00000  0.10414
      12     H     0.45364  0.45364  0.00000  0.09272
      13     H     0.45023  0.45023  0.00000  0.09954
      14     H     0.44861  0.44861  0.00000  0.10278
      15     H     0.44842  0.44842  0.00000  0.10317

   Total alpha = 21.00000, Total beta = 21.00000, Total charge =  0.00000
