                              Psi4 1.0.54 Driver

  ==> Input File <==

--------------------------------------------------------------------------
set {
	reference rhf
	basis cc-pvtz
}

set_num_threads( 4 )
memory 2 gb

molecule MOL {
0 1

O	 -0.988175	 -1.402891	 0.050086
C	 -0.675048	 -0.248293	 -0.009686
C	 -1.742492	 0.826599	 -0.011538
N	 0.622280	 0.144970	 -0.099307
H	 -1.692153	 1.431066	 -0.908439
H	 -2.698310	 0.331559	 0.031353
H	 -1.642148	 1.483784	 0.843455
C	 1.643955	 -0.667757	 0.526475
C	 1.037703	 1.474383	 -0.478568
H	 2.525341	 -0.687692	 -0.102798
H	 1.277779	 -1.669489	 0.659241
H	 1.926774	 -0.268395	 1.497122
H	 1.982067	 1.415614	 -1.004266
H	 0.326594	 1.941016	 -1.138473
H	 1.178008	 2.118255	 0.386757

	symmetry c1
}
set optking {
	frozen_dihedral = ("
		8 4 2 3
	")
}

ee,wfn = optimize('scf', return_wfn=True)
oeprop( wfn, 'DIPOLE', 'QUADRUPOLE', 'MULLIKEN_CHARGES')
f=open( 'psi4out.xyz', 'w' )
f.write( "15  " )
f.write( str(ee) + "\n" )
f.write( MOL.save_string_xyz() )
f.close()
--------------------------------------------------------------------------

    Molecular point group: c1
  Charge       = 0
  Multiplicity = 1
  Basis Set: CC-PVTZ
  Basis Set:
  @DF-RHF Final Energy:  -286.12964370592715
    Total Energy =                       -286.1296437059272080
    Molecular point group: c1
  Basis Set: CC-PVTZ
  Basis Set:
  Basis Set: CC-PVTZ
  Basis Set:
  @DF-RHF Final Energy:  -286.12953105346543
    Total Energy =                       -286.1295310534654845
  Basis Set: CC-PVTZ
  Basis Set:
  Basis Set: CC-PVTZ
  Basis Set:
  @DF-RHF Final Energy:  -286.13193621282244
    Total Energy =                       -286.1319362128224952
  Basis Set: CC-PVTZ
  Basis Set:
  Basis Set: CC-PVTZ
  Basis Set:
  @DF-RHF Final Energy:  -286.13215120720656
    Total Energy =                       -286.1321512072066753
  Basis Set: CC-PVTZ
  Basis Set:
  @DF-RHF Final Energy:  -286.13219874893309
    Total Energy =                       -286.1321987489332059
  Basis Set: CC-PVTZ
  Basis Set:
  @DF-RHF Final Energy:  -286.13221352687697
    Total Energy =                       -286.1322135268769671
  Basis Set: CC-PVTZ
  Basis Set:
  Basis Set: CC-PVTZ
  Basis Set:
  @DF-RHF Final Energy:  -286.13221886855791
    Total Energy =                       -286.1322188685577999
  Basis Set: CC-PVTZ
  Basis Set:
  Basis Set: CC-PVTZ
  Basis Set:
  @DF-RHF Final Energy:  -286.13222009926295
    Total Energy =                       -286.1322200992628382
  Basis Set: CC-PVTZ
  Basis Set:
  Charge       = 0
  Multiplicity = 1
  Basis Set: CC-PVTZ
  Basis Set:

    Orbital Energies (a.u.)
    -----------------------

    Doubly Occupied:

       1A    -20.508692     2A    -15.576261     3A    -11.336903
       4A    -11.262090     5A    -11.247915     6A    -11.227974
       7A     -1.391012     8A     -1.245647     9A     -1.015063
      10A     -0.970731    11A     -0.919535    12A     -0.738397
      13A     -0.684038    14A     -0.662224    15A     -0.653024
      16A     -0.590170    17A     -0.577223    18A     -0.571057
      19A     -0.561746    20A     -0.550237    21A     -0.529133
      22A     -0.507101    23A     -0.416891    24A     -0.372273

  @DF-RHF Final Energy:  -286.13221983407965

   => Energetics <=

    Nuclear Repulsion Energy =            253.1501416797380557
    One-Electron Energy =                -890.3340496495877687
    Two-Electron Energy =                 351.0516881357699503
    DFT Exchange-Correlation Energy =       0.0000000000000000
    Empirical Dispersion Energy =           0.0000000000000000
    PCM Polarization Energy =               0.0000000000000000
    EFP Energy =                            0.0000000000000000
    Total Energy =                       -286.1322198340798195
    Molecular point group: c1
  Basis Set: CC-PVTZ
  Basis Set:

  -Total Gradient:
     Atom            X                  Y                   Z
    ------   -----------------  -----------------  -----------------
       1       -0.000222850357    -0.000184691802    -0.000077345373
       2       -0.000695518188     0.000603144938    -0.006180115722
       3        0.000518635306     0.000799572215     0.005710871973
       4        0.000492026226    -0.005185102197    -0.004242011453
       5       -0.000035835212     0.000023339700    -0.000022783866
       6       -0.000037163162     0.000008201971    -0.000004257629
       7        0.000060738928    -0.000019025300     0.000004886110
       8       -0.000208752923     0.003953163991     0.004751600534
       9        0.000212123220    -0.000031943022     0.000106092765
      10       -0.000030253839     0.000006052263    -0.000018101938
      11       -0.000040484764     0.000007211258    -0.000001605323
      12        0.000013095546    -0.000009037354     0.000014666972
      13       -0.000026782229     0.000001372683     0.000023173931
      14       -0.000003118942    -0.000012131461    -0.000017314833
      15        0.000004140391     0.000039872117    -0.000047756148

  **** Optimization is complete! (in 9 steps) ****
    Final optimized geometry and variables:
    Molecular point group: c1

    Geometry (in Angstrom), charge = 0, multiplicity = 1:

    O           -1.025459900137    -1.369881568546     0.244747062851
    C           -0.675906019470    -0.259437073270    -0.026377986535
    C           -1.695745987021     0.856724303080    -0.114089215396
    N            0.643274870894     0.059513288430    -0.199848303782
    H           -1.739035179639     1.291707590271    -1.104801233572
    H           -2.658385034894     0.437772313368     0.127673137594
    H           -1.454687281518     1.646773487797     0.586221359005
    C            1.628376429288    -0.747957428867     0.494354019022
    C            1.072976548486     1.417002499173    -0.450091077971
    H            2.538752659716    -0.798680719092    -0.089286056034
    H            1.246697505180    -1.743065820488     0.635308422041
    H            1.867261135866    -0.317889234690     1.464537267738
    H            2.056676574995     1.390808688020    -0.898820876118
    H            0.415729570924     1.917224233613    -1.142465316370
    H            1.138203465538     2.011463823415     0.459569785918

  Mulliken Charges: (a.u.)
   Center  Symbol    Alpha    Beta     Spin     Total
       1     O     4.21339  4.21339  0.00000 -0.42678
       2     C     2.84155  2.84155  0.00000  0.31690
       3     C     3.16044  3.16044  0.00000 -0.32088
       4     N     3.57007  3.57007  0.00000 -0.14013
       5     H     0.44706  0.44706  0.00000  0.10588
       6     H     0.42867  0.42867  0.00000  0.14265
       7     H     0.44975  0.44975  0.00000  0.10050
       8     C     3.09878  3.09878  0.00000 -0.19755
       9     C     3.10169  3.10169  0.00000 -0.20337
      10     H     0.45479  0.45479  0.00000  0.09043
      11     H     0.42674  0.42674  0.00000  0.14653
      12     H     0.46043  0.46043  0.00000  0.07913
      13     H     0.44433  0.44433  0.00000  0.11135
      14     H     0.44503  0.44503  0.00000  0.10994
      15     H     0.45729  0.45729  0.00000  0.08541

   Total alpha = 24.00000, Total beta = 24.00000, Total charge = -0.00000

*** Psi4 exiting successfully. Buy a developer a beer!
