  ==> Input File <==

--------------------------------------------------------------------------
set {
	reference rhf
	basis 6-31G*
}

set_num_threads( 1 )
memory 2 gb

molecule MOL {
0 1

H	 -1.515444	 -0.248312	 0.150114
N	 -0.626943	 -0.667432	 -0.000092
C	 -0.571806	 -2.096371	 -0.209400
C	 0.469286	 0.129090	 0.000148
H	 -0.967319	 -2.630131	 0.648316
H	 0.459284	 -2.376608	 -0.350990
H	 -1.138513	 -2.382718	 -1.089105
C	 1.788933	 -0.616240	 -0.000037
O	 0.411098	 1.327768	 -0.000049
H	 1.872803	 -1.245775	 -0.880381
H	 2.595421	 0.101576	 0.003713
H	 1.870096	 -1.252171	 0.875943

	symmetry c1
}
set optking {
	frozen_dihedral = ("
		4 2 3 5
	")
}

ee = energy('scf')
oeprop('DIPOLE', 'QUADRUPOLE', 'MULLIKEN_CHARGES')
f=open( 'psi4out.xyz', 'w' )
f.write( "12  " )
f.write( str(ee) + "\n" )
f.write( MOL.save_string_xyz() )
f.close()
--------------------------------------------------------------------------

    Molecular point group: c1

    Geometry (in Angstrom), charge = 0, multiplicity = 1:

       Center              X                  Y                   Z               Mass
    ------------   -----------------  -----------------  -----------------  -----------------
           H         -1.806117287829     0.151720398699     0.193383502609     1.007825032070
           N         -0.917616287829    -0.267399601301     0.043177502609    14.003074004780
           C         -0.862479287829    -1.696338601301    -0.166130497391    12.000000000000
           C          0.178612712171     0.529122398699     0.043417502609    12.000000000000
           H         -1.257992287829    -2.230098601301     0.691585502609     1.007825032070
           H          0.168610712171    -1.976575601301    -0.307720497391     1.007825032070
           H         -1.429186287829    -1.982685601301    -1.045835497391     1.007825032070
           C          1.498259712171    -0.216207601301     0.043232502609    12.000000000000
           O          0.120424712171     1.727800398699     0.043220502609    15.994914619560
           H          1.582129712171    -0.845742601301    -0.837111497391     1.007825032070
           H          2.304747712171     0.501608398699     0.046982502609     1.007825032070
           H          1.579422712171    -0.852138601301     0.919212502609     1.007825032070

  Charge       = 0
  Multiplicity = 1
  Basis Set: 6-31G*
  Basis Set:

    Orbital Energies (a.u.)
    -----------------------

    Doubly Occupied:

       1A    -20.515000     2A    -15.580651     3A    -11.343921
       4A    -11.268145     5A    -11.229748     6A     -1.382385
       7A     -1.233786     8A     -1.005753     9A     -0.957199
      10A     -0.789508    11A     -0.675100    12A     -0.667496
      13A     -0.641113    14A     -0.589921    15A     -0.578707
      16A     -0.568668    17A     -0.547312    18A     -0.511855
      19A     -0.410869    20A     -0.382847

  @DF-RHF Final Energy:  -246.99482113525804

   => Energetics <=

    Nuclear Repulsion Energy =            182.4473614911537140
    One-Electron Energy =                -697.1243003540142809
    Two-Electron Energy =                 267.6821177276024173
    DFT Exchange-Correlation Energy =       0.0000000000000000
    Empirical Dispersion Energy =           0.0000000000000000
    PCM Polarization Energy =               0.0000000000000000
    EFP Energy =                            0.0000000000000000
    Total Energy =                       -246.9948211352581211

  Mulliken Charges: (a.u.)
   Center  Symbol    Alpha    Beta     Spin     Total
       1     H     0.30516  0.30516  0.00000  0.38968
       2     N     3.88807  3.88807  0.00000 -0.77615
       3     C     3.14012  3.14012  0.00000 -0.28025
       4     C     2.62570  2.62570  0.00000  0.74861
       5     H     0.41312  0.41312  0.00000  0.17376
       6     H     0.40595  0.40595  0.00000  0.18811
       7     H     0.41093  0.41093  0.00000  0.17813
       8     C     3.30994  3.30994  0.00000 -0.61988
       9     O     4.30002  4.30002  0.00000 -0.60004
      10     H     0.40634  0.40634  0.00000  0.18731
      11     H     0.38993  0.38993  0.00000  0.22013
      12     H     0.40471  0.40471  0.00000  0.19058

   Total alpha = 20.00000, Total beta = 20.00000, Total charge =  0.00000
