  ==> Input File <==

--------------------------------------------------------------------------
set {
	reference rhf
	basis 6-31G*
}

set_num_threads( 4 )
memory 2 gb

molecule MOL {
0 1

H	 -1.836216	 1.387520	 -0.000064
C	 -1.301823	 0.443321	 -0.000031
O	 -0.003969	 0.658512	 0.000451
O	 -1.829879	 -0.616434	 -0.000857
C	 0.747153	 0.141252	 -1.097477
C	 2.196424	 0.514094	 -0.871817
H	 0.361262	 0.565215	 -2.014353
H	 0.609743	 -0.930464	 -1.140331
H	 2.313832	 1.590628	 -0.823618
H	 2.804484	 0.138299	 -1.688073
H	 2.563671	 0.087780	 0.054613

	symmetry c1
}
set optking {
	frozen_dihedral = ("
		5 3 2 4
	")
}

ee = optimize('scf')
oeprop('DIPOLE', 'QUADRUPOLE', 'MULLIKEN_CHARGES')
f=open( 'psi4out.xyz', 'w' )
f.write( "11  " )
f.write( str(ee) + "\n" )
f.write( MOL.save_string_xyz() )
f.close()
--------------------------------------------------------------------------

    Molecular point group: c1
  Charge       = 0
  Multiplicity = 1
  Basis Set: 6-31G*
  Basis Set:
  @DF-RHF Final Energy:  -266.81334367577540
    Total Energy =                       -266.8133436757753998
    Molecular point group: c1
  Basis Set: 6-31G*
  Basis Set:
  Basis Set: 6-31G*
  Basis Set:
  @DF-RHF Final Energy:  -266.80723792138389
    Total Energy =                       -266.8072379213840577
  Basis Set: 6-31G*
  Basis Set:
  Basis Set: 6-31G*
  Basis Set:
  @DF-RHF Final Energy:  -266.81413926090482
    Total Energy =                       -266.8141392609048808
  Basis Set: 6-31G*
  Basis Set:
  Basis Set: 6-31G*
  Basis Set:
  @DF-RHF Final Energy:  -266.81442061651404
    Total Energy =                       -266.8144206165139849
  Basis Set: 6-31G*
  Basis Set:
  Basis Set: 6-31G*
  Basis Set:
  @DF-RHF Final Energy:  -266.81442624499192
    Total Energy =                       -266.8144262449920916
  Basis Set: 6-31G*
  Basis Set:
  Basis Set: 6-31G*
  Basis Set:
  @DF-RHF Final Energy:  -266.81442867839996
    Total Energy =                       -266.8144286784000769
  Basis Set: 6-31G*
  Basis Set:
  Charge       = 0
  Multiplicity = 1
  Basis Set: 6-31G*
  Basis Set:

    Orbital Energies (a.u.)
    -----------------------

    Doubly Occupied:

       1A    -20.597092     2A    -20.566616     3A    -11.380346
       4A    -11.297682     5A    -11.227409     6A     -1.467428
       7A     -1.376152     8A     -1.050104     9A     -0.894289
      10A     -0.816100    11A     -0.739891    12A     -0.686740
      13A     -0.658417    14A     -0.625278    15A     -0.563377
      16A     -0.543863    17A     -0.531444    18A     -0.506998
      19A     -0.463340    20A     -0.449735

  @DF-RHF Final Energy:  -266.81442876415690

   => Energetics <=

    Nuclear Repulsion Energy =            177.7504001964628344
    One-Electron Energy =                -716.2450514659794862
    Two-Electron Energy =                 271.6802225053598931
    DFT Exchange-Correlation Energy =       0.0000000000000000
    Empirical Dispersion Energy =           0.0000000000000000
    PCM Polarization Energy =               0.0000000000000000
    EFP Energy =                            0.0000000000000000
    Total Energy =                       -266.8144287641567871
    Molecular point group: c1
  Basis Set: 6-31G*
  Basis Set:

  -Total Gradient:
     Atom            X                  Y                   Z
    ------   -----------------  -----------------  -----------------
       1       -0.000011177073     0.000005848231    -0.000007060234
       2       -0.000958736921     0.001677486086    -0.015362801573
       3        0.002079945020    -0.007903680828     0.010314860475
       4        0.000207836716     0.000734752505     0.008906079280
       5       -0.001313467945     0.005467939407    -0.003877694958
       6        0.000004490077     0.000000023886     0.000005211343
       7       -0.000008698414     0.000011008373     0.000014224052
       8        0.000000170063     0.000002621200     0.000008280298
       9        0.000002368574     0.000001426543    -0.000000354138
      10       -0.000003532186     0.000002995221    -0.000000470436
      11        0.000000802090    -0.000000420626    -0.000000274110

  **** Optimization is complete! (in 7 steps) ****
    Final optimized geometry and variables:
    Molecular point group: c1

    Geometry (in Angstrom), charge = 0, multiplicity = 1:

    H           -1.892835390212     1.109154375876     0.421222225234
    C           -1.288714953336     0.206831950132     0.385635683825
    O            0.013409216958     0.490311340376     0.336915258977
    O           -1.745648356832    -0.876557004631     0.481856831966
    C            0.779645631138    -0.069026480474    -0.728933954236
    C            2.233970862103     0.262407887701    -0.475374552467
    H            0.438504444511     0.363489262921    -1.663191107461
    H            0.616716331833    -1.137618766709    -0.762135483881
    H            2.378932266565     1.335344330290    -0.427922053574
    H            2.849298539193    -0.134548177213    -1.276197292932
    H            2.563168880999    -0.171093924853     0.461513511075

  Mulliken Charges: (a.u.)
   Center  Symbol    Alpha    Beta     Spin     Total
       1     H     0.41908  0.41908  0.00000  0.16185
       2     C     2.72797  2.72797  0.00000  0.54405
       3     O     4.30244  4.30244  0.00000 -0.60489
       4     O     4.24026  4.24026  0.00000 -0.48052
       5     C     3.00548  3.00548  0.00000 -0.01096
       6     C     3.24825  3.24825  0.00000 -0.49650
       7     H     0.41848  0.41848  0.00000  0.16305
       8     H     0.40468  0.40468  0.00000  0.19063
       9     H     0.41012  0.41012  0.00000  0.17976
      10     H     0.41594  0.41594  0.00000  0.16811
      11     H     0.40729  0.40729  0.00000  0.18542

   Total alpha = 20.00000, Total beta = 20.00000, Total charge =  0.00000
