  ==> Input File <==

--------------------------------------------------------------------------
set {
	reference rhf
	basis 6-31G*
}

set_num_threads( 4 )
memory 2 gb

molecule MOL {
0 1

H	 -1.515444	 -0.248312	 0.150114
N	 -0.626943	 -0.667432	 -0.000092
C	 -0.571806	 -2.096371	 -0.209400
C	 0.469286	 0.129090	 0.000148
H	 -0.967319	 -2.630131	 0.648316
H	 0.459284	 -2.376608	 -0.350990
H	 -1.138513	 -2.382718	 -1.089105
C	 1.788933	 -0.616240	 -0.000037
O	 0.411098	 1.327768	 -0.000049
H	 1.872803	 -1.245775	 -0.880381
H	 2.595421	 0.101576	 0.003713
H	 1.870096	 -1.252171	 0.875943

	symmetry c1
}
set optking {
	frozen_dihedral = ("
		3 2 4 9
	")
}

ee = optimize('scf')
oeprop('DIPOLE', 'QUADRUPOLE', 'MULLIKEN_CHARGES')
f=open( 'psi4out.xyz', 'w' )
f.write( "12  " )
f.write( str(ee) + "\n" )
f.write( MOL.save_string_xyz() )
f.close()
--------------------------------------------------------------------------

    Molecular point group: c1
  Charge       = 0
  Multiplicity = 1
  Basis Set: 6-31G*
  Basis Set:
  @DF-RHF Final Energy:  -246.99482114141998
    Total Energy =                       -246.9948211414200046
    Molecular point group: c1
  Basis Set: 6-31G*
  Basis Set:
  Basis Set: 6-31G*
  Basis Set:
  @DF-RHF Final Energy:  -246.99687842187652
    Total Energy =                       -246.9968784218767723
  Basis Set: 6-31G*
  Basis Set:
  Basis Set: 6-31G*
  Basis Set:
  @DF-RHF Final Energy:  -247.00003913225618
    Total Energy =                       -247.0000391322561200
  Basis Set: 6-31G*
  Basis Set:
  Basis Set: 6-31G*
  Basis Set:
  @DF-RHF Final Energy:  -247.00066816306088
    Total Energy =                       -247.0006681630610501
  Basis Set: 6-31G*
  Basis Set:
  @DF-RHF Final Energy:  -247.00080253423627
    Total Energy =                       -247.0008025342361861
  @DF-RHF Final Energy:  -247.00083150287409
    Total Energy =                       -247.0008315028741208
  @DF-RHF Final Energy:  -247.00087043063326
    Total Energy =                       -247.0008704306333129
  @DF-RHF Final Energy:  -247.00092286987706
    Total Energy =                       -247.0009228698768879
  @DF-RHF Final Energy:  -247.00097938344072
    Total Energy =                       -247.0009793834406082
  @DF-RHF Final Energy:  -247.00114421343847
    Total Energy =                       -247.0011442134383515
  @DF-RHF Final Energy:  -247.00091508277882
    Total Energy =                       -247.0009150827788744
  @DF-RHF Final Energy:  -246.97784802498839
    Total Energy =                       -246.9778480249885888
  @DF-RHF Final Energy:  -246.99934581251287
    Total Energy =                       -246.9993458125128427
  @DF-RHF Final Energy:  -247.00171706481939
    Total Energy =                       -247.0017170648193314
  @DF-RHF Final Energy:  -247.00172090362761
    Total Energy =                       -247.0017209036275290
  Basis Set: 6-31G*
  Basis Set:
  @DF-RHF Final Energy:  -247.00133504197953
    Total Energy =                       -247.0013350419794165
  Basis Set: 6-31G*
  Basis Set:
  Basis Set: 6-31G*
  Basis Set:
  @DF-RHF Final Energy:  -247.00183656611904
    Total Energy =                       -247.0018365661189819
  Basis Set: 6-31G*
  Basis Set:
  Basis Set: 6-31G*
  Basis Set:
  @DF-RHF Final Energy:  -247.00183915414203
    Total Energy =                       -247.0018391541419760
  Basis Set: 6-31G*
  Basis Set:
  Charge       = 0
  Multiplicity = 1
  Basis Set: 6-31G*
  Basis Set:

    Orbital Energies (a.u.)
    -----------------------

    Doubly Occupied:

       1A    -20.514977     2A    -15.579641     3A    -11.343013
       4A    -11.271857     5A    -11.229426     6A     -1.383960
       7A     -1.228937     8A     -1.005254     9A     -0.957323
      10A     -0.782293    11A     -0.673358    12A     -0.666942
      13A     -0.640860    14A     -0.584917    15A     -0.577162
      16A     -0.561670    17A     -0.555923    18A     -0.514289
      19A     -0.411993    20A     -0.383301

  @DF-RHF Final Energy:  -247.00183973517517

   => Energetics <=

    Nuclear Repulsion Energy =            181.3298647073751226
    One-Electron Energy =                -694.9292177396911256
    Two-Electron Energy =                 266.5975132971409494
    DFT Exchange-Correlation Energy =       0.0000000000000000
    Empirical Dispersion Energy =           0.0000000000000000
    PCM Polarization Energy =               0.0000000000000000
    EFP Energy =                            0.0000000000000000
    Total Energy =                       -247.0018397351750536
    Molecular point group: c1
  Basis Set: 6-31G*
  Basis Set:

  -Total Gradient:
     Atom            X                  Y                   Z
    ------   -----------------  -----------------  -----------------
       1        0.000024105381     0.000006728163    -0.000003363328
       2       -0.000004594206    -0.000048261443     0.000164579680
       3        0.000001168495     0.000010185557    -0.000132055039
       4        0.000025997648     0.000028890522     0.000159091390
       5        0.000001986930     0.000019442981     0.000000518861
       6       -0.000003635879    -0.000020856940    -0.000015214351
       7       -0.000001808273     0.000015112969    -0.000001063094
       8       -0.000000134175    -0.000004062329     0.000021218140
       9       -0.000036481500     0.000004335827    -0.000184502824
      10       -0.000008126151    -0.000006533519    -0.000005018449
      11       -0.000007692846    -0.000002175082    -0.000003213969
      12        0.000009214575    -0.000002806713    -0.000000977018

  **** Optimization is complete! (in 19 steps) ****
    Final optimized geometry and variables:
    Molecular point group: c1

    Geometry (in Angstrom), charge = 0, multiplicity = 1:

    H           -1.743260078826     0.167674732812     0.223665850872
    N           -0.874183712264    -0.312545757235     0.145436849965
    C           -0.906724856756    -1.723499921009    -0.164825832075
    C            0.195174271690     0.520817841151     0.051569438819
    H           -1.864691681271    -2.117563465937     0.146025900276
    H           -0.140132163415    -2.262549050617     0.377235708391
    H           -0.786535445733    -1.925730912472    -1.225804521534
    C            1.545042293412    -0.124596245635    -0.177059465838
    O            0.070480757075     1.709028167496     0.164409630495
    H            1.555589801926    -0.701007620785    -1.096328873966
    H            2.286942380215     0.657343858488    -0.236360797858
    H            1.795478142211    -0.795388907695     0.638257251770

  Mulliken Charges: (a.u.)
   Center  Symbol    Alpha    Beta     Spin     Total
       1     H     0.30559  0.30559  0.00000  0.38882
       2     N     3.88799  3.88799  0.00000 -0.77599
       3     C     3.13934  3.13934  0.00000 -0.27869
       4     C     2.63157  2.63157  0.00000  0.73686
       5     H     0.40686  0.40686  0.00000  0.18628
       6     H     0.41023  0.41023  0.00000  0.17954
       7     H     0.41506  0.41506  0.00000  0.16988
       8     C     3.29873  3.29873  0.00000 -0.59745
       9     O     4.29998  4.29998  0.00000 -0.59996
      10     H     0.40805  0.40805  0.00000  0.18391
      11     H     0.39100  0.39100  0.00000  0.21799
      12     H     0.40560  0.40560  0.00000  0.18881

   Total alpha = 20.00000, Total beta = 20.00000, Total charge =  0.00000
