  ==> Input File <==

--------------------------------------------------------------------------
set {
	reference rhf
	basis 6-31G*
}

set_num_threads( 1 )
memory 2 gb

molecule MOL {
0 1

H	 2.591676	 2.013956	 0.335017
O	 3.341076	 1.666752	 -0.126416
C	 3.569581	 0.339145	 0.272707
C	 2.539767	 -0.640285	 -0.279495
H	 4.553106	 0.084646	 -0.100901
H	 3.608576	 0.269204	 1.359154
C	 1.115811	 -0.397273	 0.226630
H	 2.556196	 -0.582511	 -1.364741
H	 2.852081	 -1.648031	 -0.010655
C	 1.054523	 0.655277	 1.337126
H	 0.701638	 -1.333365	 0.590715
H	 0.486042	 -0.077478	 -0.603709
C	 -0.358926	 0.999040	 1.821203
H	 1.652534	 0.319219	 2.182285
H	 1.526005	 1.566960	 0.976239
C	 -1.089156	 -0.139616	 2.538634
H	 -0.291213	 1.848204	 2.498072
H	 -0.956873	 1.334583	 0.975209
C	 -2.450765	 0.282430	 3.094814
H	 -0.467576	 -0.507387	 3.353798
H	 -1.231259	 -0.978424	 1.861501
C	 -3.184606	 -0.854034	 3.805864
H	 -2.315971	 1.112219	 3.785297
H	 -3.069802	 0.659271	 2.283229
H	 -2.605068	 -1.231218	 4.643773
H	 -4.144521	 -0.523207	 4.190249
H	 -3.367735	 -1.685698	 3.131208

	symmetry c1
}
set optking {
	frozen_dihedral = ("
		14 10 7 4,
		14 10 13 16,
		8 4 3 2,
		10 13 16 20,
		20 16 19 22,
		4 3 2 1
	")
}

ee = energy('scf')
oeprop('DIPOLE', 'QUADRUPOLE', 'MULLIKEN_CHARGES')
f=open( 'psi4out.xyz', 'w' )
f.write( "27  " )
f.write( str(ee) + "\n" )
f.write( MOL.save_string_xyz() )
f.close()
--------------------------------------------------------------------------

    Molecular point group: c1

    Geometry (in Angstrom), charge = 0, multiplicity = 1:

       Center              X                  Y                   Z               Mass
    ------------   -----------------  -----------------  -----------------  -----------------
           H          2.054628644993     1.781570058397    -1.064359600878     1.007825032070
           O          2.804028644993     1.434366058397    -1.525792600878    15.994914619560
           C          3.032533644993     0.106759058397    -1.126669600878    12.000000000000
           C          2.002719644993    -0.872670941603    -1.678871600878    12.000000000000
           H          4.016058644993    -0.147739941603    -1.500277600878     1.007825032070
           H          3.071528644993     0.036818058397    -0.040222600878     1.007825032070
           C          0.578763644993    -0.629658941603    -1.172746600878    12.000000000000
           H          2.019148644993    -0.814896941603    -2.764117600878     1.007825032070
           H          2.315033644993    -1.880416941603    -1.410031600878     1.007825032070
           C          0.517475644993     0.422891058397    -0.062250600878    12.000000000000
           H          0.164590644993    -1.565750941603    -0.808661600878     1.007825032070
           H         -0.051005355007    -0.309863941603    -2.003085600878     1.007825032070
           C         -0.895973355007     0.766654058397     0.421826399122    12.000000000000
           H          1.115486644993     0.086833058397     0.782908399122     1.007825032070
           H          0.988957644993     1.334574058397    -0.423137600878     1.007825032070
           C         -1.626203355007    -0.372001941603     1.139257399122    12.000000000000
           H         -0.828260355007     1.615818058397     1.098695399122     1.007825032070
           H         -1.493920355007     1.102197058397    -0.424167600878     1.007825032070
           C         -2.987812355007     0.050044058397     1.695437399122    12.000000000000
           H         -1.004623355007    -0.739772941603     1.954421399122     1.007825032070
           H         -1.768306355007    -1.210809941603     0.462124399122     1.007825032070
           C         -3.721653355007    -1.086419941603     2.406487399122    12.000000000000
           H         -2.853018355007     0.879833058397     2.385920399122     1.007825032070
           H         -3.606849355007     0.426885058397     0.883852399122     1.007825032070
           H         -3.142115355007    -1.463603941603     3.244396399122     1.007825032070
           H         -4.681568355007    -0.755592941603     2.790872399122     1.007825032070
           H         -3.904782355007    -1.918083941603     1.731831399122     1.007825032070

  Charge       = 0
  Multiplicity = 1
  Basis Set: 6-31G*
  Basis Set:

    Orbital Energies (a.u.)
    -----------------------

    Doubly Occupied:

       1A    -20.544204     2A    -11.264011     3A    -11.227069
       4A    -11.220447     5A    -11.219599     6A    -11.218385
       7A    -11.217494     8A    -11.213797     9A    -11.211140
      10A     -1.357701    11A     -1.100353    12A     -1.063910
      13A     -1.013796    14A     -0.950135    15A     -0.893444
      16A     -0.830723    17A     -0.802636    18A     -0.782207
      19A     -0.690447    20A     -0.658729    21A     -0.644436
      22A     -0.619300    23A     -0.597342    24A     -0.584447
      25A     -0.571216    26A     -0.558892    27A     -0.545722
      28A     -0.535340    29A     -0.522951    30A     -0.497847
      31A     -0.480653    32A     -0.479116    33A     -0.467668
      34A     -0.463362    35A     -0.450936    36A     -0.436614
      37A     -0.419233

  @DF-RHF Final Energy:  -388.25470525609711

   => Energetics <=

    Nuclear Repulsion Energy =            472.1826473489185787
    One-Electron Energy =               -1462.1639399194662019
    Two-Electron Energy =                 601.7265873144530133
    DFT Exchange-Correlation Energy =       0.0000000000000000
    Empirical Dispersion Energy =           0.0000000000000000
    PCM Polarization Energy =               0.0000000000000000
    EFP Energy =                            0.0000000000000000
    Total Energy =                       -388.2547052560945531

  Mulliken Charges: (a.u.)
   Center  Symbol    Alpha    Beta     Spin     Total
       1     H     0.26278  0.26278  0.00000  0.47444
       2     O     4.38130  4.38130  0.00000 -0.76260
       3     C     3.00360  3.00360  0.00000 -0.00719
       4     C     3.16516  3.16516  0.00000 -0.33032
       5     H     0.41240  0.41240  0.00000  0.17519
       6     H     0.42902  0.42902  0.00000  0.14197
       7     C     3.15853  3.15853  0.00000 -0.31706
       8     H     0.41218  0.41218  0.00000  0.17564
       9     H     0.42234  0.42234  0.00000  0.15531
      10     C     3.15786  3.15786  0.00000 -0.31572
      11     H     0.41507  0.41507  0.00000  0.16985
      12     H     0.41701  0.41701  0.00000  0.16598
      13     C     3.14844  3.14844  0.00000 -0.29688
      14     H     0.41659  0.41659  0.00000  0.16682
      15     H     0.45695  0.45695  0.00000  0.08610
      16     C     3.15397  3.15397  0.00000 -0.30795
      17     H     0.42127  0.42127  0.00000  0.15746
      18     H     0.42187  0.42187  0.00000  0.15626
      19     C     3.15156  3.15156  0.00000 -0.30313
      20     H     0.42432  0.42432  0.00000  0.15137
      21     H     0.42121  0.42121  0.00000  0.15758
      22     C     3.23941  3.23941  0.00000 -0.47882
      23     H     0.42272  0.42272  0.00000  0.15455
      24     H     0.42242  0.42242  0.00000  0.15517
      25     H     0.42167  0.42167  0.00000  0.15666
      26     H     0.41869  0.41869  0.00000  0.16262
      27     H     0.42166  0.42166  0.00000  0.15668

   Total alpha = 37.00000, Total beta = 37.00000, Total charge =  0.00000
