  ==> Input File <==

--------------------------------------------------------------------------
set {
	reference rhf
	basis 6-31G*
}

set_num_threads( 1 )
memory 2 gb

molecule MOL {
0 1

H	 -1.853510	 1.025046	 0.440067
N	 -1.852125	 0.165761	 -0.074816
C	 -0.563778	 -0.502042	 0.037919
H	 -2.043832	 0.400326	 -1.030318
C	 0.575259	 0.508231	 -0.048326
H	 -0.482092	 -1.204004	 -0.786564
H	 -0.460411	 -1.085169	 0.956626
C	 1.954651	 -0.143624	 0.035137
H	 0.475158	 1.060484	 -0.977307
H	 0.469181	 1.234488	 0.755973
H	 2.103292	 -0.853109	 -0.774172
H	 2.742821	 0.599562	 -0.030094
H	 2.083613	 -0.679371	 0.971560

	symmetry c1
}
set optking {
	frozen_dihedral = ("
		6 3 5 9
	")
}

ee = energy('scf')
oeprop('DIPOLE', 'QUADRUPOLE', 'MULLIKEN_CHARGES')
f=open( 'psi4out.xyz', 'w' )
f.write( "13  " )
f.write( str(ee) + "\n" )
f.write( MOL.save_string_xyz() )
f.close()
--------------------------------------------------------------------------

    Molecular point group: c1

    Geometry (in Angstrom), charge = 0, multiplicity = 1:

       Center              X                  Y                   Z               Mass
    ------------   -----------------  -----------------  -----------------  -----------------
           H         -1.865632244937     1.005170837535     0.460868778404     1.007825032070
           N         -1.864247244937     0.145885837535    -0.054014221596    14.003074004780
           C         -0.575900244937    -0.521917162465     0.058720778404    12.000000000000
           H         -2.055954244937     0.380450837535    -1.009516221596     1.007825032070
           C          0.563136755063     0.488355837535    -0.027524221596    12.000000000000
           H         -0.494214244937    -1.223879162465    -0.765762221596     1.007825032070
           H         -0.472533244937    -1.105044162465     0.977427778404     1.007825032070
           C          1.942528755063    -0.163499162465     0.055938778404    12.000000000000
           H          0.463035755063     1.040608837535    -0.956505221596     1.007825032070
           H          0.457058755063     1.214612837535     0.776774778404     1.007825032070
           H          2.091169755063    -0.872984162465    -0.753370221596     1.007825032070
           H          2.730698755063     0.579686837535    -0.009292221596     1.007825032070
           H          2.071490755063    -0.699246162465     0.992361778404     1.007825032070

  Charge       = 0
  Multiplicity = 1
  Basis Set: 6-31G*
  Basis Set:

    Orbital Energies (a.u.)
    -----------------------

    Doubly Occupied:

       1A    -15.531453     2A    -11.241431     3A    -11.215550
       4A    -11.211597     5A     -1.178990     6A     -1.036500
       7A     -0.899282     8A     -0.808324     9A     -0.676641
      10A     -0.607641    11A     -0.606207    12A     -0.564262
      13A     -0.527858    14A     -0.511606    15A     -0.488658
      16A     -0.473261    17A     -0.374125

  @DF-RHF Final Energy:  -173.27949502743220

   => Energetics <=

    Nuclear Repulsion Energy =            132.2293111451407128
    One-Electron Energy =                -495.1108330474906438
    Two-Electron Energy =                 189.6020268749177831
    DFT Exchange-Correlation Energy =       0.0000000000000000
    Empirical Dispersion Energy =           0.0000000000000000
    PCM Polarization Energy =               0.0000000000000000
    EFP Energy =                            0.0000000000000000
    Total Energy =                       -173.2794950274321764

  Mulliken Charges: (a.u.)
   Center  Symbol    Alpha    Beta     Spin     Total
       1     H     0.33469  0.33469  0.00000  0.33062
       2     N     3.91909  3.91909  0.00000 -0.83817
       3     C     3.05842  3.05842  0.00000 -0.11684
       4     H     0.33360  0.33360  0.00000  0.33281
       5     C     3.15872  3.15872  0.00000 -0.31745
       6     H     0.42107  0.42107  0.00000  0.15786
       7     H     0.41920  0.41920  0.00000  0.16160
       8     C     3.24413  3.24413  0.00000 -0.48825
       9     H     0.42541  0.42541  0.00000  0.14918
      10     H     0.42573  0.42573  0.00000  0.14854
      11     H     0.42126  0.42126  0.00000  0.15747
      12     H     0.41831  0.41831  0.00000  0.16337
      13     H     0.42037  0.42037  0.00000  0.15926

   Total alpha = 17.00000, Total beta = 17.00000, Total charge = -0.00000
