                              Psi4 1.0.54 Driver

  ==> Input File <==

--------------------------------------------------------------------------
set {
	reference rhf
	basis cc-pvtz
}

set_num_threads( 4 )
memory 2 gb

molecule MOL {
0 1

H	 -2.816458	 -0.841657	 -0.064679
N	 -1.878861	 -0.711874	 0.250184
C	 -1.341419	 0.551458	 -0.220231
H	 -1.333674	 -1.468530	 -0.105118
C	 0.082190	 0.731516	 0.254705
H	 -1.357065	 0.652078	 -1.304747
H	 -1.939897	 1.357530	 0.189797
O	 0.881195	 -0.248324	 -0.336237
H	 0.440901	 1.722476	 -0.020063
H	 0.119896	 0.643586	 1.338114
C	 0.902292	 -0.214350	 -1.724625
H	 1.544630	 -1.012836	 -2.066979
H	 -0.091717	 -0.362982	 -2.141219
H	 1.291798	 0.731546	 -2.093581

	symmetry c1
}
set optking {
	frozen_dihedral = ("
		11 8 5 3
	")
}

ee,wfn = optimize('scf', return_wfn=True)
oeprop( wfn, 'DIPOLE', 'QUADRUPOLE', 'MULLIKEN_CHARGES')
f=open( 'psi4out.xyz', 'w' )
f.write( "14  " )
f.write( str(ee) + "\n" )
f.write( MOL.save_string_xyz() )
f.close()
--------------------------------------------------------------------------

    Molecular point group: c1
  Charge       = 0
  Multiplicity = 1
  Basis Set: CC-PVTZ
  Basis Set:
  @DF-RHF Final Energy:  -248.21603347043282
    Total Energy =                       -248.2160334704328761
    Molecular point group: c1
  Basis Set: CC-PVTZ
  Basis Set:
  Basis Set: CC-PVTZ
  Basis Set:
  @DF-RHF Final Energy:  -248.10257312106995
    Total Energy =                       -248.1025731210699519
  Basis Set: CC-PVTZ
  Basis Set:
  Basis Set: CC-PVTZ
  Basis Set:
  @DF-RHF Final Energy:  -248.18939526269460
    Total Energy =                       -248.1893952626948021
  Basis Set: CC-PVTZ
  Basis Set:
  Basis Set: CC-PVTZ
  Basis Set:
  @DF-RHF Final Energy:  -248.21706598841095
    Total Energy =                       -248.2170659884106954
  Basis Set: CC-PVTZ
  Basis Set:
  @DF-RHF Final Energy:  -248.22073486848035
    Total Energy =                       -248.2207348684802355
  @DF-RHF Final Energy:  -248.22143734430725
    Total Energy =                       -248.2214373443071622
  Basis Set: CC-PVTZ
  Basis Set:
  @DF-RHF Final Energy:  -248.22156383935553
    Total Energy =                       -248.2215638393554968
  Basis Set: CC-PVTZ
  Basis Set:
  Basis Set: CC-PVTZ
  Basis Set:
  @DF-RHF Final Energy:  -248.22159296973396
    Total Energy =                       -248.2215929697339334
  Basis Set: CC-PVTZ
  Basis Set:
  Basis Set: CC-PVTZ
  Basis Set:
  @DF-RHF Final Energy:  -248.22159591226327
    Total Energy =                       -248.2215959122632967
  Basis Set: CC-PVTZ
  Basis Set:
  Charge       = 0
  Multiplicity = 1
  Basis Set: CC-PVTZ
  Basis Set:

    Orbital Energies (a.u.)
    -----------------------

    Doubly Occupied:

       1A    -20.550588     2A    -15.528455     3A    -11.265504
       4A    -11.265392     5A    -11.243441     6A     -1.382106
       7A     -1.179647     8A     -0.999640     9A     -0.923289
      10A     -0.808120    11A     -0.690198    12A     -0.676729
      13A     -0.647976    14A     -0.620139    15A     -0.602297
      16A     -0.547825    17A     -0.531148    18A     -0.519820
      19A     -0.463494    20A     -0.419296    21A     -0.386311

  @DF-RHF Final Energy:  -248.22159615958239

   => Energetics <=

    Nuclear Repulsion Energy =            197.5150770929227235
    One-Electron Energy =                -728.9705153043646533
    Two-Electron Energy =                 283.2338420518594830
    DFT Exchange-Correlation Energy =       0.0000000000000000
    Empirical Dispersion Energy =           0.0000000000000000
    PCM Polarization Energy =               0.0000000000000000
    EFP Energy =                            0.0000000000000000
    Total Energy =                       -248.2215961595824183
    Molecular point group: c1
  Basis Set: CC-PVTZ
  Basis Set:

  -Total Gradient:
     Atom            X                  Y                   Z
    ------   -----------------  -----------------  -----------------
       1        0.000015959047     0.000006994523     0.000005121252
       2       -0.000027114672    -0.000035105173    -0.000010516469
       3        0.000156542686     0.000982467219    -0.002205305224
       4       -0.000003824069     0.000018501717     0.000005780290
       5       -0.001239929036    -0.001898785409     0.003556693355
       6        0.000004777139    -0.000005993349     0.000014176019
       7        0.000005817688    -0.000013171962    -0.000003767317
       8        0.003316223542     0.002200633102    -0.002123729060
       9        0.000001484487    -0.000014721744    -0.000007512871
      10        0.000003021445    -0.000007768281    -0.000005688121
      11       -0.002238893752    -0.001226858108     0.000783781793
      12       -0.000001529314    -0.000007089735    -0.000008646590
      13        0.000010767772     0.000002730126     0.000003562395
      14       -0.000003302964    -0.000001832925    -0.000003949453

  **** Optimization is complete! (in 10 steps) ****
    Final optimized geometry and variables:
    Molecular point group: c1

    Geometry (in Angstrom), charge = 0, multiplicity = 1:

    H           -2.528824417739    -0.163738665210     1.016637178466
    N           -1.536119746889    -0.175551119633     1.109997065410
    C           -0.909884687859     0.847214178469     0.292983381760
    H           -1.213588902835    -1.083923468268     0.852579709182
    C            0.601897145091     0.714936629320     0.337086878153
    H           -1.252119715426     0.847151380354    -0.740799525554
    H           -1.160008217266     1.820584189193     0.701219152225
    O            1.095856600631    -0.494685330927    -0.163558350165
    H            1.044243848370     1.545907023736    -0.211264674285
    H            0.936251416569     0.767183496631     1.363141553406
    C            0.804210317668    -0.789289377923    -1.490821000815
    H            1.408860157655    -1.639423527758    -1.772373599021
    H           -0.239875882535    -1.048110625933    -1.638181168156
    H            1.047968465348     0.042225487905    -2.149045330105

  Mulliken Charges: (a.u.)
   Center  Symbol    Alpha    Beta     Spin     Total
       1     H     0.42955  0.42955  0.00000  0.14091
       2     N     3.69176  3.69176  0.00000 -0.38353
       3     C     3.04719  3.04719  0.00000 -0.09438
       4     H     0.42288  0.42288  0.00000  0.15424
       5     C     2.98221  2.98221  0.00000  0.03559
       6     H     0.46425  0.46425  0.00000  0.07150
       7     H     0.44811  0.44811  0.00000  0.10378
       8     O     4.18044  4.18044  0.00000 -0.36088
       9     H     0.46516  0.46516  0.00000  0.06967
      10     H     0.44810  0.44810  0.00000  0.10380
      11     C     3.03895  3.03895  0.00000 -0.07789
      12     H     0.44306  0.44306  0.00000  0.11388
      13     H     0.46965  0.46965  0.00000  0.06070
      14     H     0.46869  0.46869  0.00000  0.06261

   Total alpha = 21.00000, Total beta = 21.00000, Total charge =  0.00000

*** Psi4 exiting successfully. Buy a developer a beer!
