  ==> Input File <==

--------------------------------------------------------------------------
set {
	reference rhf
	basis 6-31G*
}

set_num_threads( 1 )
memory 2 gb

molecule MOL {
0 1

H	 -3.420663	 1.227371	 -1.044276
O	 -3.452007	 0.283848	 -0.965577
C	 -3.181085	 -0.079926	 0.364119
C	 -1.765924	 0.277073	 0.805136
H	 -3.327791	 -1.152017	 0.410903
H	 -3.905698	 0.375695	 1.036898
C	 -0.677594	 -0.417312	 -0.014550
H	 -1.637766	 1.358238	 0.744969
H	 -1.659588	 0.017670	 1.857098
C	 0.738335	 -0.034840	 0.421385
H	 -0.814977	 -0.178223	 -1.064632
H	 -0.802730	 -1.495410	 0.071702
C	 0.780305	 0.591489	 1.817822
H	 1.368629	 -0.920449	 0.392323
H	 1.162011	 0.665134	 -0.297739
C	 2.165803	 1.072895	 2.263690
H	 0.398569	 -0.124027	 2.544465
H	 0.097482	 1.438298	 1.839866
C	 3.194218	 -0.042739	 2.458954
H	 2.057145	 1.613902	 3.200596
H	 2.546222	 1.792295	 1.541229
H	 2.835242	 -0.784362	 3.167665
H	 4.127497	 0.356417	 2.844314
H	 3.419563	 -0.555145	 1.529533

	symmetry c1
}
set optking {
	frozen_dihedral = ("
		20 16 13 17,
		17 13 10 7,
		11 7 4 3,
		1 2 3 5,
		7 4 3 2
	")
}

ee = energy('scf')
oeprop('DIPOLE', 'QUADRUPOLE', 'MULLIKEN_CHARGES')
f=open( 'psi4out.xyz', 'w' )
f.write( "24  " )
f.write( str(ee) + "\n" )
f.write( MOL.save_string_xyz() )
f.close()
--------------------------------------------------------------------------

    Molecular point group: c1

    Geometry (in Angstrom), charge = 0, multiplicity = 1:

       Center              X                  Y                   Z               Mass
    ------------   -----------------  -----------------  -----------------  -----------------
           H         -3.095968208883     1.015490065188    -1.912998688703     1.007825032070
           O         -3.127312208883     0.071967065188    -1.834299688703    15.994914619560
           C         -2.856390208883    -0.291806934812    -0.504603688703    12.000000000000
           C         -1.441229208883     0.065192065188    -0.063586688703    12.000000000000
           H         -3.003096208883    -1.363897934812    -0.457819688703     1.007825032070
           H         -3.581003208883     0.163814065188     0.168175311297     1.007825032070
           C         -0.352899208883    -0.629192934812    -0.883272688703    12.000000000000
           H         -1.313071208883     1.146357065188    -0.123753688703     1.007825032070
           H         -1.334893208883    -0.194210934812     0.988375311297     1.007825032070
           C          1.063029791117    -0.246720934812    -0.447337688703    12.000000000000
           H         -0.490282208883    -0.390103934812    -1.933354688703     1.007825032070
           H         -0.478035208883    -1.707290934812    -0.797020688703     1.007825032070
           C          1.104999791117     0.379608065188     0.949099311297    12.000000000000
           H          1.693323791117    -1.132329934812    -0.476399688703     1.007825032070
           H          1.486705791117     0.453253065188    -1.166461688703     1.007825032070
           C          2.490497791117     0.861014065188     1.394967311297    12.000000000000
           H          0.723263791117    -0.335907934812     1.675742311297     1.007825032070
           H          0.422176791117     1.226417065188     0.971143311297     1.007825032070
           C          3.518912791117    -0.254619934812     1.590231311297    12.000000000000
           H          2.381839791117     1.402021065188     2.331873311297     1.007825032070
           H          2.870916791117     1.580414065188     0.672506311297     1.007825032070
           H          3.159936791117    -0.996242934812     2.298942311297     1.007825032070
           H          4.452191791117     0.144536065188     1.975591311297     1.007825032070
           H          3.744257791117    -0.767025934812     0.660810311297     1.007825032070

  Charge       = 0
  Multiplicity = 1
  Basis Set: 6-31G*
  Basis Set:

    Orbital Energies (a.u.)
    -----------------------

    Doubly Occupied:

       1A    -20.552574     2A    -11.266320     3A    -11.215666
       4A    -11.214340     5A    -11.212073     6A    -11.211222
       7A    -11.210093     8A    -11.207467     9A     -1.359200
      10A     -1.093123    11A     -1.045016    12A     -0.982680
      13A     -0.916630    14A     -0.855794    15A     -0.813007
      16A     -0.759453    17A     -0.676823    18A     -0.650038
      19A     -0.633625    20A     -0.619507    21A     -0.599381
      22A     -0.580299    23A     -0.556180    24A     -0.546651
      25A     -0.517879    26A     -0.514929    27A     -0.499076
      28A     -0.480383    29A     -0.475117    30A     -0.451415
      31A     -0.443515    32A     -0.436395    33A     -0.424675

  @DF-RHF Final Energy:  -349.23482394445443

   => Energetics <=

    Nuclear Repulsion Energy =            392.1901175519535627
    One-Electron Energy =               -1250.8087794713987932
    Two-Electron Energy =                 509.3838379749917635
    DFT Exchange-Correlation Energy =       0.0000000000000000
    Empirical Dispersion Energy =           0.0000000000000000
    PCM Polarization Energy =               0.0000000000000000
    EFP Energy =                            0.0000000000000000
    Total Energy =                       -349.2348239444534670

  Mulliken Charges: (a.u.)
   Center  Symbol    Alpha    Beta     Spin     Total
       1     H     0.28357  0.28357  0.00000  0.43287
       2     O     4.36887  4.36887  0.00000 -0.73775
       3     C     2.99311  2.99311  0.00000  0.01378
       4     C     3.17832  3.17832  0.00000 -0.35664
       5     H     0.41698  0.41698  0.00000  0.16605
       6     H     0.42869  0.42869  0.00000  0.14262
       7     C     3.15361  3.15361  0.00000 -0.30723
       8     H     0.42723  0.42723  0.00000  0.14554
       9     H     0.41821  0.41821  0.00000  0.16357
      10     C     3.15647  3.15647  0.00000 -0.31294
      11     H     0.40929  0.40929  0.00000  0.18141
      12     H     0.42200  0.42200  0.00000  0.15599
      13     C     3.16026  3.16026  0.00000 -0.32051
      14     H     0.41814  0.41814  0.00000  0.16372
      15     H     0.42280  0.42280  0.00000  0.15440
      16     C     3.14941  3.14941  0.00000 -0.29882
      17     H     0.42406  0.42406  0.00000  0.15188
      18     H     0.41945  0.41945  0.00000  0.16110
      19     C     3.24123  3.24123  0.00000 -0.48247
      20     H     0.42217  0.42217  0.00000  0.15566
      21     H     0.42396  0.42396  0.00000  0.15209
      22     H     0.42276  0.42276  0.00000  0.15448
      23     H     0.41961  0.41961  0.00000  0.16078
      24     H     0.41978  0.41978  0.00000  0.16043

   Total alpha = 33.00000, Total beta = 33.00000, Total charge =  0.00000
