  ==> Input File <==

--------------------------------------------------------------------------
set {
	reference rhf
	basis 6-31G*
}

set_num_threads( 1 )
memory 2 gb

molecule MOL {
0 1

H	 2.719666	 -0.120213	 0.808742
O	 1.874755	 -0.557481	 0.850075
C	 1.050492	 0.053836	 0.000068
C	 -0.318135	 -0.576402	 0.000164
O	 1.394783	 0.980355	 -0.658736
C	 -1.454360	 0.441875	 -0.000474
H	 -0.374042	 -1.230163	 -0.866135
H	 -0.374274	 -1.229227	 0.867154
C	 -2.826123	 -0.230780	 0.000056
H	 -1.357605	 1.085198	 -0.868380
H	 -1.357504	 1.086451	 0.866496
H	 -2.959731	 -0.858053	 -0.876869
H	 -3.619374	 0.509403	 -0.000080
H	 -2.959371	 -0.857318	 0.877556

	symmetry c1
}
set optking {
	frozen_dihedral = ("
		7 4 6 10,
		1 2 3 5
	")
}

ee = energy('scf')
oeprop('DIPOLE', 'QUADRUPOLE', 'MULLIKEN_CHARGES')
f=open( 'psi4out.xyz', 'w' )
f.write( "14  " )
f.write( str(ee) + "\n" )
f.write( MOL.save_string_xyz() )
f.close()
--------------------------------------------------------------------------

    Molecular point group: c1

    Geometry (in Angstrom), charge = 0, multiplicity = 1:

       Center              X                  Y                   Z               Mass
    ------------   -----------------  -----------------  -----------------  -----------------
           H          2.726982375788    -0.136108422096     0.764756508585     1.007825032070
           O          1.882071375788    -0.573376422096     0.806089508585    15.994914619560
           C          1.057808375788     0.037940577904    -0.043917491415    12.000000000000
           C         -0.310818624212    -0.592297422096    -0.043821491415    12.000000000000
           O          1.402099375788     0.964459577904    -0.702721491415    15.994914619560
           C         -1.447043624212     0.425979577904    -0.044459491415    12.000000000000
           H         -0.366725624212    -1.246058422096    -0.910120491415     1.007825032070
           H         -0.366957624212    -1.245122422096     0.823168508585     1.007825032070
           C         -2.818806624212    -0.246675422096    -0.043929491415    12.000000000000
           H         -1.350288624212     1.069302577904    -0.912365491415     1.007825032070
           H         -1.350187624212     1.070555577904     0.822510508585     1.007825032070
           H         -2.952414624212    -0.873948422096    -0.920854491415     1.007825032070
           H         -3.612057624212     0.493507577904    -0.044065491415     1.007825032070
           H         -2.952054624212    -0.873213422096     0.833570508585     1.007825032070

  Charge       = 0
  Multiplicity = 1
  Basis Set: 6-31G*
  Basis Set:

    Orbital Energies (a.u.)
    -----------------------

    Doubly Occupied:

       1A    -20.614260     2A    -20.550611     3A    -11.381477
       4A    -11.240035     5A    -11.230217     6A    -11.219072
       7A     -1.475136     8A     -1.365726     9A     -1.084777
      10A     -0.980131    11A     -0.857206    12A     -0.797086
      13A     -0.702041    14A     -0.687171    15A     -0.657143
      16A     -0.622214    17A     -0.594478    18A     -0.572523
      19A     -0.546890    20A     -0.510943    21A     -0.495400
      22A     -0.484672    23A     -0.474577    24A     -0.442025

  @DF-RHF Final Energy:  -305.87924433095816

   => Energetics <=

    Nuclear Repulsion Energy =            239.8321845302402551
    One-Electron Energy =                -892.2511150632324188
    Two-Electron Energy =                 346.5396862020337494
    DFT Exchange-Correlation Energy =       0.0000000000000000
    Empirical Dispersion Energy =           0.0000000000000000
    PCM Polarization Energy =               0.0000000000000000
    EFP Energy =                            0.0000000000000000
    Total Energy =                       -305.8792443309583859

  Mulliken Charges: (a.u.)
   Center  Symbol    Alpha    Beta     Spin     Total
       1     H     0.26847  0.26847  0.00000  0.46305
       2     O     4.34936  4.34936  0.00000 -0.69873
       3     C     2.62320  2.62320  0.00000  0.75360
       4     C     3.21033  3.21033  0.00000 -0.42066
       5     O     4.27911  4.27911  0.00000 -0.55822
       6     C     3.15792  3.15792  0.00000 -0.31585
       7     H     0.39825  0.39825  0.00000  0.20351
       8     H     0.39901  0.39901  0.00000  0.20197
       9     C     3.24241  3.24241  0.00000 -0.48482
      10     H     0.40384  0.40384  0.00000  0.19231
      11     H     0.41464  0.41464  0.00000  0.17071
      12     H     0.41933  0.41933  0.00000  0.16135
      13     H     0.41433  0.41433  0.00000  0.17135
      14     H     0.41979  0.41979  0.00000  0.16042

   Total alpha = 24.00000, Total beta = 24.00000, Total charge =  0.00000
