                              Psi4 1.0.54 Driver

  ==> Input File <==

--------------------------------------------------------------------------
set {
	reference rhf
	basis cc-pvtz
}

set_num_threads( 4 )
memory 2 gb

molecule MOL {
0 1

H	 -1.576184	 -0.707182	 -3.352614
C	 -2.273618	 -0.706645	 -2.503808
C	 -1.872194	 -1.589360	 -1.353345
O	 -3.256835	 -0.051850	 -2.546637
C	 -0.439530	 -1.329313	 -0.878451
H	 -2.588131	 -1.458123	 -0.552380
H	 -1.950696	 -2.615004	 -1.707175
C	 -0.247837	 0.040196	 -0.230469
H	 -0.167064	 -2.104361	 -0.170353
H	 0.242734	 -1.434784	 -1.718442
C	 1.181757	 0.280428	 0.247371
H	 -0.930592	 0.133673	 0.609897
H	 -0.527168	 0.821805	 -0.932244
C	 2.151032	 -0.811012	 -0.202643
H	 1.515939	 1.247397	 -0.115449
H	 1.191514	 0.341223	 1.333422
C	 3.580021	 -0.656538	 0.320835
H	 2.170545	 -0.847575	 -1.289412
H	 1.766632	 -1.772905	 0.124928
C	 4.327657	 0.562694	 -0.213579
H	 4.138806	 -1.549270	 0.057813
H	 3.561991	 -0.620783	 1.406976
H	 4.355973	 0.557257	 -1.298551
H	 3.867136	 1.491650	 0.100501
H	 5.351524	 0.571613	 0.142204

	symmetry c1
}
set optking {
	frozen_dihedral = ("
		12 8 11 14
	")
}

ee,wfn = optimize('scf', return_wfn=True)
oeprop( wfn, 'DIPOLE', 'QUADRUPOLE', 'MULLIKEN_CHARGES')
f=open( 'psi4out.xyz', 'w' )
f.write( "25  " )
f.write( str(ee) + "\n" )
f.write( MOL.save_string_xyz() )
f.close()
--------------------------------------------------------------------------

    Molecular point group: c1
  Charge       = 0
  Multiplicity = 1
  Basis Set: CC-PVTZ
  Basis Set:
  @DF-RHF Final Energy:  -387.24504907910602
    Total Energy =                       -387.2450490791062521
    Molecular point group: c1
  Basis Set: CC-PVTZ
  Basis Set:
  Basis Set: CC-PVTZ
  Basis Set:
  @DF-RHF Final Energy:  -386.95572574014449
    Total Energy =                       -386.9557257401442030
  Basis Set: CC-PVTZ
  Basis Set:
  Basis Set: CC-PVTZ
  Basis Set:
  @DF-RHF Final Energy:  -387.10970524223330
    Total Energy =                       -387.1097052422335310
  Basis Set: CC-PVTZ
  Basis Set:
  Basis Set: CC-PVTZ
  Basis Set:
  @DF-RHF Final Energy:  -387.22487491100128
    Total Energy =                       -387.2248749110018480
  Basis Set: CC-PVTZ
  Basis Set:
  @DF-RHF Final Energy:  -387.24814454961012
    Total Energy =                       -387.2481445496099468
  @DF-RHF Final Energy:  -387.24989930236245
    Total Energy =                       -387.2498993023626781
  @DF-RHF Final Energy:  -387.24917200482963
    Total Energy =                       -387.2491720048294610
  @DF-RHF Final Energy:  -387.25016960488841
    Total Energy =                       -387.2501696048886970
  Basis Set: CC-PVTZ
  Basis Set:
  @DF-RHF Final Energy:  -387.25016863176387
    Total Energy =                       -387.2501686317636995
  Basis Set: CC-PVTZ
  Basis Set:
  Basis Set: CC-PVTZ
  Basis Set:
  @DF-RHF Final Energy:  -387.25017862853707
    Total Energy =                       -387.2501786285372418
  Basis Set: CC-PVTZ
  Basis Set:
  Basis Set: CC-PVTZ
  Basis Set:
  @DF-RHF Final Energy:  -387.25018661836918
    Total Energy =                       -387.2501866183697530
  Basis Set: CC-PVTZ
  Basis Set:
  Charge       = 0
  Multiplicity = 1
  Basis Set: CC-PVTZ
  Basis Set:

    Orbital Energies (a.u.)
    -----------------------

    Doubly Occupied:

       1A    -20.551011     2A    -11.320789     3A    -11.233311
       4A    -11.231990     5A    -11.222795     6A    -11.218311
       7A    -11.217690     8A    -11.216995     9A    -11.209444
      10A     -1.405973    11A     -1.103223    12A     -1.070277
      13A     -1.010927    14A     -0.941471    15A     -0.886258
      16A     -0.824419    17A     -0.793790    18A     -0.766609
      19A     -0.666878    20A     -0.660400    21A     -0.634691
      22A     -0.630369    23A     -0.605796    24A     -0.590240
      25A     -0.580317    26A     -0.551195    27A     -0.541605
      28A     -0.527492    29A     -0.517444    30A     -0.501447
      31A     -0.485140    32A     -0.480585    33A     -0.453139
      34A     -0.452769    35A     -0.449078    36A     -0.411061

  @DF-RHF Final Energy:  -387.25018681904334

   => Energetics <=

    Nuclear Repulsion Energy =            444.1669372556100939
    One-Electron Energy =               -1404.9043902595292366
    Two-Electron Energy =                 573.4872661848759208
    DFT Exchange-Correlation Energy =       0.0000000000000000
    Empirical Dispersion Energy =           0.0000000000000000
    PCM Polarization Energy =               0.0000000000000000
    EFP Energy =                            0.0000000000000000
    Total Energy =                       -387.2501868190432788
    Molecular point group: c1
  Basis Set: CC-PVTZ
  Basis Set:

  -Total Gradient:
     Atom            X                  Y                   Z
    ------   -----------------  -----------------  -----------------
       1        0.000041655671    -0.000024300332    -0.000214466085
       2        0.000037153491    -0.000126821633     0.000165933255
       3        0.000089169892     0.000037673465     0.000034706301
       4       -0.000195706966     0.000194020629     0.000021934209
       5        0.000046958649    -0.000140924575    -0.000087693198
       6       -0.000007602653    -0.000014059689    -0.000007524841
       7       -0.000019670112    -0.000025534817     0.000023856172
       8       -0.000432605735     0.003066311225    -0.000060335367
       9        0.000034168830    -0.000002743086     0.000001842879
      10       -0.000032581908     0.000030884841     0.000030531595
      11       -0.000640534671     0.000626179533    -0.002672119805
      12        0.000507693359    -0.002764873307     0.000807186164
      13        0.000045635749     0.000002518273    -0.000014082114
      14        0.000504219588    -0.000890644728     0.001951103139
      15       -0.000019321315     0.000010981743    -0.000010845844
      16       -0.000008579143    -0.000011960596    -0.000020129661
      17        0.000044068177    -0.000003011904     0.000024287066
      18        0.000029736127     0.000028487809     0.000032210743
      19       -0.000020120181    -0.000014942631     0.000016678938
      20        0.000014916050     0.000026156560    -0.000016992669
      21       -0.000000199520    -0.000006115015    -0.000003966067
      22       -0.000000830511    -0.000006026100    -0.000016526837
      23       -0.000013640557    -0.000004941115     0.000011007728
      24       -0.000004521748     0.000010659018    -0.000011048003
      25        0.000000539430     0.000003026430     0.000014452303

  **** Optimization is complete! (in 12 steps) ****
    Final optimized geometry and variables:
    Molecular point group: c1

    Geometry (in Angstrom), charge = 0, multiplicity = 1:

    H           -3.047021137850    -0.380846005755    -1.085282269062
    C           -3.186933156344    -0.147358685516    -0.020525384327
    C           -2.302791829427    -0.921672690094     0.919420805278
    O           -3.994691436606     0.650661757767     0.308524249939
    C           -0.824570404846    -0.881387381356     0.518750676324
    H           -2.456941888408    -0.547985663883     1.923422457180
    H           -2.651469833420    -1.951875488346     0.890677533949
    C           -0.214308638558     0.514095276753     0.679230208455
    H           -0.290101098309    -1.595025002974     1.133815511669
    H           -0.726444640969    -1.227873253521    -0.504824150133
    C            1.287224659290     0.675534919998     0.320271882560
    H           -0.353479803975     0.798751823695     1.716522212855
    H           -0.796788312474     1.216801435178     0.093161766605
    C            1.978993102911    -0.506809443599    -0.362573106360
    H            1.394545022452     1.556902841568    -0.299111747282
    H            1.836798678738     0.889634655607     1.231873186592
    C            3.471322334216    -0.281523225285    -0.619601288651
    H            1.492608337100    -0.732217600044    -1.308048017580
    H            1.874605278591    -1.392666988352     0.253723390822
    C            3.790623667411     0.799833007678    -1.649301250805
    H            3.902862143639    -1.218614225026    -0.957688629227
    H            3.964774298166    -0.043042175618     0.318877533372
    H            3.301224129808     0.592515070796    -2.595643603660
    H            3.473914415774     1.782262817571    -1.321390541422
    H            4.857493815505     0.848449976906    -1.834628052786

  Mulliken Charges: (a.u.)
   Center  Symbol    Alpha    Beta     Spin     Total
       1     H     0.46424  0.46424  0.00000  0.07152
       2     C     2.90550  2.90550  0.00000  0.18900
       3     C     3.08869  3.08869  0.00000 -0.17739
       4     O     4.16634  4.16634  0.00000 -0.33268
       5     C     3.12288  3.12288  0.00000 -0.24576
       6     H     0.44323  0.44323  0.00000  0.11354
       7     H     0.43948  0.43948  0.00000  0.12104
       8     C     3.09611  3.09611  0.00000 -0.19222
       9     H     0.44100  0.44100  0.00000  0.11801
      10     H     0.44628  0.44628  0.00000  0.10744
      11     C     3.10016  3.10016  0.00000 -0.20031
      12     H     0.44622  0.44622  0.00000  0.10755
      13     H     0.44512  0.44512  0.00000  0.10977
      14     C     3.10081  3.10081  0.00000 -0.20162
      15     H     0.44586  0.44586  0.00000  0.10829
      16     H     0.45019  0.45019  0.00000  0.09961
      17     C     3.09066  3.09066  0.00000 -0.18133
      18     H     0.45259  0.45259  0.00000  0.09481
      19     H     0.44594  0.44594  0.00000  0.10811
      20     C     3.15230  3.15230  0.00000 -0.30460
      21     H     0.44801  0.44801  0.00000  0.10399
      22     H     0.45413  0.45413  0.00000  0.09175
      23     H     0.45502  0.45502  0.00000  0.08997
      24     H     0.45332  0.45332  0.00000  0.09335
      25     H     0.44592  0.44592  0.00000  0.10817

   Total alpha = 36.00000, Total beta = 36.00000, Total charge =  0.00000

*** Psi4 exiting successfully. Buy a developer a beer!
