  ==> Input File <==

--------------------------------------------------------------------------
set {
	reference rhf
	basis 6-31G*
}

set_num_threads( 4 )
memory 2 gb

molecule MOL {
0 1

H	 -2.646374	 -0.642757	 1.268656
C	 -2.083525	 -0.384536	 0.393091
O	 -0.807605	 -0.127164	 0.768327
F	 -2.118945	 -1.383102	 -0.486752
F	 -2.621877	 0.670592	 -0.209486
C	 0.084052	 0.273579	 -0.209957
C	 1.434196	 0.462625	 0.469405
Cl	 -0.448614	 1.782223	 -0.969876
H	 0.196587	 -0.461595	 -0.987535
F	 2.342162	 0.833899	 -0.408030
F	 1.813023	 -0.688365	 0.988202
F	 1.384741	 1.354252	 1.428847

	symmetry c1
}
set optking {
	frozen_dihedral = ("
		9 6 3 2
	")
}

ee = optimize('scf')
oeprop('DIPOLE', 'QUADRUPOLE', 'MULLIKEN_CHARGES')
f=open( 'psi4out.xyz', 'w' )
f.write( "12  " )
f.write( str(ee) + "\n" )
f.write( MOL.save_string_xyz() )
f.close()
--------------------------------------------------------------------------

    Molecular point group: c1
  Charge       = 0
  Multiplicity = 1
  Basis Set: 6-31G*
  Basis Set:
  @DF-RHF Final Energy: -1146.30170881842764
    Total Energy =                      -1146.3017088184276417
    Molecular point group: c1
  Basis Set: 6-31G*
  Basis Set:
  Basis Set: 6-31G*
  Basis Set:
  @DF-RHF Final Energy: -1146.30821912366787
    Total Energy =                      -1146.3082191236685503
  Basis Set: 6-31G*
  Basis Set:
  Basis Set: 6-31G*
  Basis Set:
  @DF-RHF Final Energy: -1146.31001564730741
    Total Energy =                      -1146.3100156473071820
  Basis Set: 6-31G*
  Basis Set:
  Basis Set: 6-31G*
  Basis Set:
  @DF-RHF Final Energy: -1146.31064825881685
    Total Energy =                      -1146.3106482588173094
  Basis Set: 6-31G*
  Basis Set:
  @DF-RHF Final Energy: -1146.31083838071027
    Total Energy =                      -1146.3108383807102655
  @DF-RHF Final Energy: -1146.31093098622841
    Total Energy =                      -1146.3109309862279588
  Basis Set: 6-31G*
  Basis Set:
  @DF-RHF Final Energy: -1146.31097887132137
    Total Energy =                      -1146.3109788713222770
  Basis Set: 6-31G*
  Basis Set:
  Basis Set: 6-31G*
  Basis Set:
  @DF-RHF Final Energy: -1146.31099148875387
    Total Energy =                      -1146.3109914887540981
  Basis Set: 6-31G*
  Basis Set:
  Basis Set: 6-31G*
  Basis Set:
  @DF-RHF Final Energy: -1146.31099300126357
    Total Energy =                      -1146.3109930012624318
  Basis Set: 6-31G*
  Basis Set:
  Charge       = 0
  Multiplicity = 1
  Basis Set: 6-31G*
  Basis Set:

    Orbital Energies (a.u.)
    -----------------------

    Doubly Occupied:

       1A   -104.844055     2A    -26.359482     3A    -26.358034
       4A    -26.357012     5A    -26.348377     6A    -26.338907
       7A    -20.648082     8A    -11.527520     9A    -11.488315
      10A    -11.400811    11A    -10.579012    12A     -8.048371
      13A     -8.044811    14A     -8.044707    15A     -1.760747
      16A     -1.714994    17A     -1.657089    18A     -1.655619
      19A     -1.636927    20A     -1.482387    21A     -1.179655
      22A     -1.057008    23A     -0.983984    24A     -0.916995
      25A     -0.855765    26A     -0.850062    27A     -0.845302
      28A     -0.816371    29A     -0.810925    30A     -0.790765
      31A     -0.730079    32A     -0.724995    33A     -0.706512
      34A     -0.694223    35A     -0.679336    36A     -0.673996
      37A     -0.658838    38A     -0.657244    39A     -0.643898
      40A     -0.636195    41A     -0.596613    42A     -0.568787
      43A     -0.525466    44A     -0.476063    45A     -0.469009

  @DF-RHF Final Energy: -1146.31099314548464

   => Energetics <=

    Nuclear Repulsion Energy =            738.0682756098345862
    One-Electron Energy =               -3059.0718433972442654
    Two-Electron Energy =                1174.6925746419256029
    DFT Exchange-Correlation Energy =       0.0000000000000000
    Empirical Dispersion Energy =           0.0000000000000000
    PCM Polarization Energy =               0.0000000000000000
    EFP Energy =                            0.0000000000000000
    Total Energy =                      -1146.3109931454841899
    Molecular point group: c1
  Basis Set: 6-31G*
  Basis Set:

  -Total Gradient:
     Atom            X                  Y                   Z
    ------   -----------------  -----------------  -----------------
       1        0.000012066638    -0.000001830397    -0.000006722843
       2       -0.000832323255     0.002996116044     0.000149567383
       3        0.001995378327    -0.004906111350     0.000326060536
       4        0.000007207829    -0.000018833491     0.000024552506
       5        0.000002340709     0.000027468647     0.000017813118
       6       -0.003883009918     0.003207685145    -0.002541235876
       7        0.000030775510     0.000000104500    -0.000027954504
       8        0.000010354471    -0.000011822044     0.000000306741
       9        0.002697335069    -0.001279021918     0.002069153293
      10       -0.000009077551     0.000011544542     0.000000958734
      11       -0.000019237071    -0.000012920193     0.000009864891
      12       -0.000011810764    -0.000012379454    -0.000022364016

  **** Optimization is complete! (in 10 steps) ****
    Final optimized geometry and variables:
    Molecular point group: c1

    Geometry (in Angstrom), charge = 0, multiplicity = 1:

    H           -2.380633622702    -1.383965023308     1.189000937394
    C           -1.969880559479    -0.835031360659     0.363339187816
    O           -0.690607862456    -0.503869836012     0.678863286311
    F           -1.999772664510    -1.580024358730    -0.739730850669
    F           -2.707625713692     0.239861334599     0.134456963680
    C            0.228094421693    -0.183736594668    -0.301640321524
    C            1.543845282348     0.021770339264     0.442483251101
    CL          -0.174800633276     1.264938649004    -1.239096651756
    H            0.370868261814    -0.999356480696    -0.989830410620
    F            2.512646330592     0.275575074085    -0.411420369573
    F            1.851615399949    -1.085676906318     1.087609732051
    F            1.477946412444     1.002370712772     1.309227540254

  Mulliken Charges: (a.u.)
   Center  Symbol    Alpha    Beta     Spin     Total
       1     H     0.40466  0.40466  0.00000  0.19067
       2     C     2.55589  2.55589  0.00000  0.88822
       3     O     4.31200  4.31200  0.00000 -0.62400
       4     F     4.68783  4.68783  0.00000 -0.37566
       5     F     4.67753  4.67753  0.00000 -0.35507
       6     C     3.03492  3.03492  0.00000 -0.06985
       7     C     2.43409  2.43409  0.00000  1.13182
       8    CL     8.50268  8.50268  0.00000 -0.00535
       9     H     0.37006  0.37006  0.00000  0.25987
      10     F     4.67519  4.67519  0.00000 -0.35039
      11     F     4.67711  4.67711  0.00000 -0.35421
      12     F     4.66803  4.66803  0.00000 -0.33605

   Total alpha = 45.00000, Total beta = 45.00000, Total charge = -0.00000
