                              Psi4 1.0.54 Driver

  ==> Input File <==

--------------------------------------------------------------------------
set {
	reference rhf
	basis cc-pvtz
}

set_num_threads( 4 )
memory 2 gb

molecule MOL {
0 1

H	 1.836274	 -0.334976	 0.000000
N	 1.000791	 0.207741	 -0.000000
C	 0.021197	 -0.102644	 1.046696
C	 0.021197	 -0.102644	 -1.046696
H	 0.023059	 0.582091	 1.884836
H	 0.090305	 -1.118914	 1.426645
C	 -1.096373	 0.051283	 0.000000
H	 0.090305	 -1.118914	 -1.426645
H	 0.023059	 0.582091	 -1.884836
H	 -1.886175	 -0.685432	 0.000000
H	 -1.528811	 1.041628	 0.000000

	symmetry c1
}
ee,wfn = energy('scf', return_wfn=True)
oeprop( wfn, 'DIPOLE', 'QUADRUPOLE', 'MULLIKEN_CHARGES')
oeprop( wfn, 'GRID_ESP')
f=open( 'psi4out.xyz', 'w' )
f.write( "11  " )
f.write( str(ee) + "\n" )
f.write( MOL.save_string_xyz() )
f.close()
--------------------------------------------------------------------------

    Molecular point group: c1

    Geometry (in Angstrom), charge = 0, multiplicity = 1:

       Center              X                  Y                   Z               Mass
    ------------   -----------------  -----------------  -----------------  -----------------
           H          1.836206715337    -0.334981105864    -0.000000000000     1.007825032070
           N          1.000723715337     0.207735894136    -0.000000000000    14.003074004780
           C          0.021129715337    -0.102649105864     1.046696000000    12.000000000000
           C          0.021129715337    -0.102649105864    -1.046696000000    12.000000000000
           H          0.022991715337     0.582085894136     1.884836000000     1.007825032070
           H          0.090237715337    -1.118919105864     1.426645000000     1.007825032070
           C         -1.096440284663     0.051277894136    -0.000000000000    12.000000000000
           H          0.090237715337    -1.118919105864    -1.426645000000     1.007825032070
           H          0.022991715337     0.582085894136    -1.884836000000     1.007825032070
           H         -1.886242284663    -0.685437105864    -0.000000000000     1.007825032070
           H         -1.528878284663     1.041622894136    -0.000000000000     1.007825032070

  Charge       = 0
  Multiplicity = 1
  Basis Set: CC-PVTZ
  Basis Set:

    Orbital Energies (a.u.)
    -----------------------

    Doubly Occupied:

       1A    -15.528932     2A    -11.242079     3A    -11.242072
       4A    -11.216381     5A     -1.232559     6A     -0.971780
       7A     -0.912573     8A     -0.765822     9A     -0.693121
      10A     -0.655491    11A     -0.552996    12A     -0.532938
      13A     -0.518339    14A     -0.470620    15A     -0.452820
      16A     -0.366715

  @DF-RHF Final Energy:  -172.14227549759249

   => Energetics <=

    Nuclear Repulsion Energy =            129.7074303407479761
    One-Electron Energy =                -488.9890865152711967
    Two-Electron Energy =                 187.1393806769307844
    DFT Exchange-Correlation Energy =       0.0000000000000000
    Empirical Dispersion Energy =           0.0000000000000000
    PCM Polarization Energy =               0.0000000000000000
    EFP Energy =                            0.0000000000000000
    Total Energy =                       -172.1422754975924363

  Mulliken Charges: (a.u.)
   Center  Symbol    Alpha    Beta     Spin     Total
       1     H     0.44532  0.44532  0.00000  0.10936
       2     N     3.63222  3.63222  0.00000 -0.26444
       3     C     3.04491  3.04491  0.00000 -0.08982
       4     C     3.04491  3.04491  0.00000 -0.08982
       5     H     0.45669  0.45669  0.00000  0.08661
       6     H     0.46070  0.46070  0.00000  0.07860
       7     C     3.10134  3.10134  0.00000 -0.20267
       8     H     0.46070  0.46070  0.00000  0.07860
       9     H     0.45669  0.45669  0.00000  0.08661
      10     H     0.44861  0.44861  0.00000  0.10279
      11     H     0.44791  0.44791  0.00000  0.10419

   Total alpha = 16.00000, Total beta = 16.00000, Total charge =  0.00000

*** Psi4 exiting successfully. Buy a developer a beer!
