  ==> Input File <==

--------------------------------------------------------------------------
set {
	reference rhf
	basis 6-31G*
}

set_num_threads( 4 )
memory 2 gb

molecule MOL {
0 1

H	 -0.367348	 2.047014	 -0.308205
C	 0.352277	 1.337084	 0.083769
N	 -0.000016	 0.000074	 -0.335546
H	 1.328359	 1.600444	 -0.307950
H	 0.381933	 1.450534	 1.172486
C	 0.931953	 -0.985305	 0.163185
C	 -1.366009	 -0.329408	 0.001592
H	 0.677645	 -1.963532	 -0.228927
H	 1.935455	 -0.743399	 -0.168370
H	 0.942334	 -1.050259	 1.256142
H	 -2.039939	 0.391074	 -0.447959
H	 -1.615489	 -1.309134	 -0.389989
H	 -1.550488	 -0.338447	 1.080857

	symmetry c1
}
set optking {
	frozen_dihedral = ("
		6 3 2 1
	")
}

ee = optimize('scf')
oeprop('DIPOLE', 'QUADRUPOLE', 'MULLIKEN_CHARGES')
f=open( 'psi4out.xyz', 'w' )
f.write( "13  " )
f.write( str(ee) + "\n" )
f.write( MOL.save_string_xyz() )
f.close()
--------------------------------------------------------------------------

    Molecular point group: c1
  Charge       = 0
  Multiplicity = 1
  Basis Set: 6-31G*
  Basis Set:
  @DF-RHF Final Energy:  -173.26913620747638
    Total Energy =                       -173.2691362074763788
    Molecular point group: c1
  Basis Set: 6-31G*
  Basis Set:
  Basis Set: 6-31G*
  Basis Set:
  @DF-RHF Final Energy:  -173.26914835191974
    Total Energy =                       -173.2691483519197675
  Basis Set: 6-31G*
  Basis Set:
  Charge       = 0
  Multiplicity = 1
  Basis Set: 6-31G*
  Basis Set:

    Orbital Energies (a.u.)
    -----------------------

    Doubly Occupied:

       1A    -15.544037     2A    -11.235891     3A    -11.235873
       4A    -11.235831     5A     -1.225570     6A     -0.951631
       7A     -0.951480     8A     -0.806625     9A     -0.641783
      10A     -0.630689    11A     -0.630425    12A     -0.544475
      13A     -0.543643    14A     -0.517502    15A     -0.501163
      16A     -0.501132    17A     -0.347248

  @DF-RHF Final Energy:  -173.26914942059426

   => Energetics <=

    Nuclear Repulsion Energy =            139.3031508991905980
    One-Electron Energy =                -509.0546062722166312
    Two-Electron Energy =                 196.4823059524318012
    DFT Exchange-Correlation Energy =       0.0000000000000000
    Empirical Dispersion Energy =           0.0000000000000000
    PCM Polarization Energy =               0.0000000000000000
    EFP Energy =                            0.0000000000000000
    Total Energy =                       -173.2691494205942320
    Molecular point group: c1
  Basis Set: 6-31G*
  Basis Set:

  -Total Gradient:
     Atom            X                  Y                   Z
    ------   -----------------  -----------------  -----------------
       1       -0.000565287911    -0.000088082550     0.000860932600
       2        0.000478977314     0.000055847936    -0.000842682446
       3        0.000428249666     0.000065115748    -0.000590279928
       4        0.000021070695    -0.000024602645     0.000000719690
       5       -0.000005853868     0.000017362445    -0.000011079331
       6       -0.000465768355    -0.000049873323     0.000557832676
       7        0.000056146983     0.000081828400    -0.000039043627
       8        0.000026030176    -0.000020827263     0.000016923758
       9        0.000024151553    -0.000020247661     0.000017024911
      10        0.000008285684    -0.000005215069     0.000013064384
      11       -0.000030553614    -0.000001350942     0.000004674202
      12        0.000022838011     0.000000028453     0.000003822937
      13        0.000001713664    -0.000009983530     0.000008090173

  **** Optimization is complete! (in 3 steps) ****
    Final optimized geometry and variables:
    Molecular point group: c1

    Geometry (in Angstrom), charge = 0, multiplicity = 1:

    H           -0.340766914840     2.043111702813    -0.307691189714
    C            0.375781163735     1.330405685225     0.084259248625
    N            0.021002457220    -0.005533603576    -0.338576682737
    H            1.356558803620     1.590872539828    -0.297585543418
    H            0.394958703116     1.441453472061     1.173477990777
    C            0.952403121648    -0.990385599167     0.162982791876
    C           -1.343545806436    -0.335800616527     0.005809797538
    H            0.701317199602    -1.969248500528    -0.229721975816
    H            1.957141035810    -0.747322734237    -0.164381268328
    H            0.958429882140    -1.054079704529     1.255969064206
    H           -2.021042610786     0.381273714516    -0.443772763781
    H           -1.592307312727    -1.317628291506    -0.380912259014
    H           -1.523197283538    -0.341786872929     1.085876084105

  Mulliken Charges: (a.u.)
   Center  Symbol    Alpha    Beta     Spin     Total
       1     H     0.41698  0.41698  0.00000  0.16604
       2     C     3.14308  3.14308  0.00000 -0.28615
       3     N     3.76543  3.76543  0.00000 -0.53085
       4     H     0.41624  0.41624  0.00000  0.16752
       5     H     0.43516  0.43516  0.00000  0.12968
       6     C     3.14328  3.14328  0.00000 -0.28656
       7     C     3.14320  3.14320  0.00000 -0.28640
       8     H     0.41657  0.41657  0.00000  0.16686
       9     H     0.41670  0.41670  0.00000  0.16661
      10     H     0.43497  0.43497  0.00000  0.13006
      11     H     0.41660  0.41660  0.00000  0.16680
      12     H     0.41669  0.41669  0.00000  0.16662
      13     H     0.43511  0.43511  0.00000  0.12977

   Total alpha = 17.00000, Total beta = 17.00000, Total charge =  0.00000
