  ==> Input File <==

--------------------------------------------------------------------------
set {
	reference rhf
	basis 6-31G*
}

set_num_threads( 1 )
memory 2 gb

molecule MOL {
0 1

H	 -3.420663	 1.227371	 -1.044276
O	 -3.452007	 0.283848	 -0.965577
C	 -3.181085	 -0.079926	 0.364119
C	 -1.765924	 0.277073	 0.805136
H	 -3.327791	 -1.152017	 0.410903
H	 -3.905698	 0.375695	 1.036898
C	 -0.677594	 -0.417312	 -0.014550
H	 -1.637766	 1.358238	 0.744969
H	 -1.659588	 0.017670	 1.857098
C	 0.738335	 -0.034840	 0.421385
H	 -0.814977	 -0.178223	 -1.064632
H	 -0.802730	 -1.495410	 0.071702
C	 1.008596	 -0.343304	 1.896476
H	 1.455242	 -0.559860	 -0.205366
H	 0.897560	 1.027896	 0.242933
C	 2.384561	 0.103440	 2.403718
H	 0.893579	 -1.412569	 2.067175
H	 0.244371	 0.143022	 2.499191
C	 3.565767	 -0.636396	 1.773003
H	 2.418084	 -0.041684	 3.480800
H	 2.498735	 1.173006	 2.238809
H	 3.472125	 -1.710274	 1.911406
H	 4.501869	 -0.326168	 2.227215
H	 3.642984	 -0.445587	 0.707736

	symmetry c1
}
set optking {
	frozen_dihedral = ("
		20 16 13 17,
		17 13 10 7,
		11 7 4 3,
		1 2 3 5,
		7 4 3 2
	")
}

ee = energy('scf')
oeprop('DIPOLE', 'QUADRUPOLE', 'MULLIKEN_CHARGES')
f=open( 'psi4out.xyz', 'w' )
f.write( "24  " )
f.write( str(ee) + "\n" )
f.write( MOL.save_string_xyz() )
f.close()
--------------------------------------------------------------------------

    Molecular point group: c1

    Geometry (in Angstrom), charge = 0, multiplicity = 1:

       Center              X                  Y                   Z               Mass
    ------------   -----------------  -----------------  -----------------  -----------------
           H         -3.198027274445     1.322527561566    -1.850890231395     1.007825032070
           O         -3.229371274445     0.379004561566    -1.772191231395    15.994914619560
           C         -2.958449274445     0.015230561566    -0.442495231395    12.000000000000
           C         -1.543288274445     0.372229561566    -0.001478231395    12.000000000000
           H         -3.105155274445    -1.056860438434    -0.395711231395     1.007825032070
           H         -3.683062274445     0.470851561566     0.230283768605     1.007825032070
           C         -0.454958274445    -0.322155438434    -0.821164231395    12.000000000000
           H         -1.415130274445     1.453394561566    -0.061645231395     1.007825032070
           H         -1.436952274445     0.112826561566     1.050483768605     1.007825032070
           C          0.960970725555     0.060316561566    -0.385229231395    12.000000000000
           H         -0.592341274445    -0.083066438434    -1.871246231395     1.007825032070
           H         -0.580094274445    -1.400253438434    -0.734912231395     1.007825032070
           C          1.231231725555    -0.248147438434     1.089861768605    12.000000000000
           H          1.677877725555    -0.464703438434    -1.011980231395     1.007825032070
           H          1.120195725555     1.123052561566    -0.563681231395     1.007825032070
           C          2.607196725555     0.198596561566     1.597103768605    12.000000000000
           H          1.116214725555    -1.317412438434     1.260560768605     1.007825032070
           H          0.467006725555     0.238178561566     1.692576768605     1.007825032070
           C          3.788402725555    -0.541239438434     0.966388768605    12.000000000000
           H          2.640719725555     0.053472561566     2.674185768605     1.007825032070
           H          2.721370725555     1.268162561566     1.432194768605     1.007825032070
           H          3.694760725555    -1.615117438434     1.104791768605     1.007825032070
           H          4.724504725555    -0.231011438434     1.420600768605     1.007825032070
           H          3.865619725555    -0.350430438434    -0.098878231395     1.007825032070

  Charge       = 0
  Multiplicity = 1
  Basis Set: 6-31G*
  Basis Set:

    Orbital Energies (a.u.)
    -----------------------

    Doubly Occupied:

       1A    -20.553177     2A    -11.267440     3A    -11.216383
       4A    -11.214907     5A    -11.212643     6A    -11.211995
       7A    -11.211221     8A    -11.207544     9A     -1.359814
      10A     -1.091246    11A     -1.046541    12A     -0.984093
      13A     -0.916213    14A     -0.853942    15A     -0.807191
      16A     -0.768965    17A     -0.679449    18A     -0.642810
      19A     -0.633546    20A     -0.618845    21A     -0.597937
      22A     -0.585983    23A     -0.558741    24A     -0.546953
      25A     -0.517333    26A     -0.507548    27A     -0.499548
      28A     -0.479736    29A     -0.470049    30A     -0.456522
      31A     -0.453387    32A     -0.437195    33A     -0.424722

  @DF-RHF Final Energy:  -349.24432360135341

   => Energetics <=

    Nuclear Repulsion Energy =            389.1756100421469569
    One-Electron Energy =               -1244.7724936263898599
    Two-Electron Energy =                 506.3525599828905115
    DFT Exchange-Correlation Energy =       0.0000000000000000
    Empirical Dispersion Energy =           0.0000000000000000
    PCM Polarization Energy =               0.0000000000000000
    EFP Energy =                            0.0000000000000000
    Total Energy =                       -349.2443236013524483

  Mulliken Charges: (a.u.)
   Center  Symbol    Alpha    Beta     Spin     Total
       1     H     0.28345  0.28345  0.00000  0.43311
       2     O     4.36866  4.36866  0.00000 -0.73731
       3     C     2.99449  2.99449  0.00000  0.01102
       4     C     3.17369  3.17369  0.00000 -0.34738
       5     H     0.41640  0.41640  0.00000  0.16720
       6     H     0.42835  0.42835  0.00000  0.14330
       7     C     3.15265  3.15265  0.00000 -0.30530
       8     H     0.42867  0.42867  0.00000  0.14265
       9     H     0.41958  0.41958  0.00000  0.16084
      10     C     3.15516  3.15516  0.00000 -0.31032
      11     H     0.40996  0.40996  0.00000  0.18008
      12     H     0.42365  0.42365  0.00000  0.15269
      13     C     3.15675  3.15675  0.00000 -0.31351
      14     H     0.41840  0.41840  0.00000  0.16321
      15     H     0.42564  0.42564  0.00000  0.14872
      16     C     3.15086  3.15086  0.00000 -0.30173
      17     H     0.42460  0.42460  0.00000  0.15080
      18     H     0.42056  0.42056  0.00000  0.15889
      19     C     3.24123  3.24123  0.00000 -0.48246
      20     H     0.42169  0.42169  0.00000  0.15663
      21     H     0.42387  0.42387  0.00000  0.15226
      22     H     0.42228  0.42228  0.00000  0.15544
      23     H     0.41955  0.41955  0.00000  0.16091
      24     H     0.41987  0.41987  0.00000  0.16025

   Total alpha = 33.00000, Total beta = 33.00000, Total charge =  0.00000
