  ==> Input File <==

--------------------------------------------------------------------------
set {
	reference rhf
	basis cc-pvtz
}

set_num_threads( 4 )
memory 2 gb

molecule MOL {
0 1

H	 -0.289801	 -1.183083	 -2.362310
C	 -0.702776	 -0.211163	 -2.112379
O	 -0.775228	 0.000056	 -0.739966
H	 -1.715435	 -0.169608	 -2.487806
H	 -0.122843	 0.552469	 -2.620490
C	 0.406133	 -0.000384	 0.036994
C	 1.526415	 -0.003194	 -0.997339
C	 0.498772	 1.259027	 0.900673
C	 0.495883	 -1.257378	 0.904465
H	 1.452279	 0.872071	 -1.630204
H	 1.451276	 -0.881020	 -1.626529
H	 2.497919	 -0.002741	 -0.517601
H	 0.368981	 2.144239	 0.289753
H	 1.470064	 1.313479	 1.377660
H	 -0.248448	 1.271586	 1.684297
H	 0.363971	 -2.144195	 0.296316
H	 1.467114	 -1.312636	 1.381470
H	 -0.251246	 -1.265768	 1.688235

	symmetry c1
}
set optking {
	frozen_dihedral = ("
		2 3 6 7
	")
}

ee = optimize('scf')
oeprop('DIPOLE', 'QUADRUPOLE', 'MULLIKEN_CHARGES')
f=open( 'psi4out.xyz', 'w' )
f.write( "18  " )
f.write( str(ee) + "\n" )
f.write( MOL.save_string_xyz() )
f.close()
--------------------------------------------------------------------------

    Molecular point group: c1
  Charge       = 0
  Multiplicity = 1
  Basis Set: CC-PVTZ
  Basis Set:
  @DF-RHF Final Energy:  -271.25769566639406
    Total Energy =                       -271.2576956663938859
    Molecular point group: c1
  Basis Set: CC-PVTZ
  Basis Set:
  Basis Set: CC-PVTZ
  Basis Set:
  @DF-RHF Final Energy:  -271.26377555832340
    Total Energy =                       -271.2637755583232320
  Basis Set: CC-PVTZ
  Basis Set:
  Basis Set: CC-PVTZ
  Basis Set:
  @DF-RHF Final Energy:  -271.26965288579470
    Total Energy =                       -271.2696528857949261
  Basis Set: CC-PVTZ
  Basis Set:
  Basis Set: CC-PVTZ
  Basis Set:
  @DF-RHF Final Energy:  -271.27216823148177
    Total Energy =                       -271.2721682314817144
  Basis Set: CC-PVTZ
  Basis Set:
  @DF-RHF Final Energy:  -271.27252727873685
    Total Energy =                       -271.2725272787366748
  @DF-RHF Final Energy:  -271.27264912859920
    Total Energy =                       -271.2726491285987436
  Basis Set: CC-PVTZ
  Basis Set:
  @DF-RHF Final Energy:  -271.27266851292933
    Total Energy =                       -271.2726685129291582
  Basis Set: CC-PVTZ
  Basis Set:
  Basis Set: CC-PVTZ
  Basis Set:
  @DF-RHF Final Energy:  -271.27267506032575
    Total Energy =                       -271.2726750603257528
  Basis Set: CC-PVTZ
  Basis Set:
  Basis Set: CC-PVTZ
  Basis Set:
  @DF-RHF Final Energy:  -271.27267675566566
    Total Energy =                       -271.2726767556654295
  Basis Set: CC-PVTZ
  Basis Set:
  Charge       = 0
  Multiplicity = 1
  Basis Set: CC-PVTZ
  Basis Set:

    Orbital Energies (a.u.)
    -----------------------

    Doubly Occupied:

       1A    -20.537274     2A    -11.280701     3A    -11.259490
       4A    -11.211618     5A    -11.202335     6A    -11.202123
       7A     -1.369553     8A     -1.075529     9A     -0.951497
      10A     -0.935614    11A     -0.912319    12A     -0.752232
      13A     -0.657655    14A     -0.648060    15A     -0.638585
      16A     -0.583025    17A     -0.577909    18A     -0.548919
      19A     -0.542602    20A     -0.526986    21A     -0.515339
      22A     -0.491443    23A     -0.484215    24A     -0.443393
      25A     -0.398993

  @DF-RHF Final Energy:  -271.27267684949453

   => Energetics <=

    Nuclear Repulsion Energy =            272.0629892863090049
    One-Electron Energy =                -907.1765155981057660
    Two-Electron Energy =                 363.8408494623023444
    DFT Exchange-Correlation Energy =       0.0000000000000000
    Empirical Dispersion Energy =           0.0000000000000000
    PCM Polarization Energy =               0.0000000000000000
    EFP Energy =                            0.0000000000000000
    Total Energy =                       -271.2726768494943599
    Molecular point group: c1
  Basis Set: CC-PVTZ
  Basis Set:

  -Total Gradient:
     Atom            X                  Y                   Z
    ------   -----------------  -----------------  -----------------
       1        0.000003432682     0.000001165154     0.000003557703
       2        0.000136437023     0.001866576964    -0.000289304448
       3       -0.000217124472    -0.003541498738     0.000426722271
       4       -0.000002506606    -0.000001223197    -0.000009838524
       5        0.000002937861    -0.000000597988     0.000004333752
       6        0.000062951946     0.003270781251    -0.000138849152
       7        0.000005462484    -0.001596210884    -0.000006282651
       8        0.000007295488    -0.000003376422     0.000005720499
       9        0.000003931260     0.000002984245     0.000001151343
      10        0.000000760189     0.000001360913    -0.000002049616
      11       -0.000000069293    -0.000000339324    -0.000002340220
      12       -0.000005345491    -0.000000784712     0.000000744907
      13       -0.000000042436    -0.000004962587    -0.000001141423
      14        0.000001199556     0.000003456385     0.000005597933
      15       -0.000000691573     0.000002764940     0.000000215149
      16       -0.000001223094     0.000001164883    -0.000000032781
      17        0.000002000283    -0.000002433316     0.000001097361
      18        0.000000594189     0.000001172433     0.000000697897

  **** Optimization is complete! (in 10 steps) ****
    Final optimized geometry and variables:
    Molecular point group: c1

    Geometry (in Angstrom), charge = 0, multiplicity = 1:

    H           -0.736835588452    -1.139592427833    -2.013448446529
    C           -1.112426994921    -0.167436458094    -1.706544086362
    O           -1.013976212263     0.036045465535    -0.335702272986
    H           -2.164978340749    -0.124347568676    -1.948857802448
    H           -0.601828924998     0.597780304431    -2.281555679004
    C            0.235866604870     0.035734182052     0.339452657597
    C            1.447532469248     0.036505320840    -0.593393710223
    C            0.241477657408     1.291900669340     1.204994989369
    C            0.262414583766    -1.217105967008     1.214606949264
    H            1.466608732756     0.912699770316    -1.229277055847
    H            1.479777119458    -0.845105642271    -1.220096327272
    H            2.350022154708     0.046266559872     0.004748333873
    H            0.216950898251     2.179149431795     0.583565528188
    H            1.126598065677     1.333541883913     1.829762838507
    H           -0.632380183634     1.304955199023     1.843680231411
    H            0.226434658029    -2.109794463138     0.600544919709
    H            1.161237470236    -1.256961574731     1.819815976650
    H           -0.597293069141    -1.227733038622     1.872331089007

  Mulliken Charges: (a.u.)
   Center  Symbol    Alpha    Beta     Spin     Total
       1     H     0.47000  0.47000  0.00000  0.06000
       2     C     3.04100  3.04100  0.00000 -0.08200
       3     O     4.19950  4.19950  0.00000 -0.39900
       4     H     0.44264  0.44264  0.00000  0.11472
       5     H     0.46866  0.46866  0.00000  0.06268
       6     C     2.87050  2.87050  0.00000  0.25900
       7     C     3.17683  3.17683  0.00000 -0.35367
       8     C     3.14048  3.14048  0.00000 -0.28097
       9     C     3.14304  3.14304  0.00000 -0.28608
      10     H     0.44510  0.44510  0.00000  0.10979
      11     H     0.44436  0.44436  0.00000  0.11128
      12     H     0.44244  0.44244  0.00000  0.11512
      13     H     0.45223  0.45223  0.00000  0.09554
      14     H     0.45860  0.45860  0.00000  0.08279
      15     H     0.44761  0.44761  0.00000  0.10479
      16     H     0.45187  0.45187  0.00000  0.09626
      17     H     0.45702  0.45702  0.00000  0.08595
      18     H     0.44810  0.44810  0.00000  0.10380

   Total alpha = 25.00000, Total beta = 25.00000, Total charge =  0.00000
