  ==> Input File <==

--------------------------------------------------------------------------
set {
	reference rhf
	basis 6-31G*
}

set_num_threads( 4 )
memory 2 gb

molecule MOL {
0 1

O	 2.434938	 2.020031	 -0.313185
C	 1.490799	 2.262112	 -1.000758
C	 0.231268	 1.414879	 -0.973999
C	 1.489323	 3.440812	 -1.952503
C	 0.291004	 0.242674	 0.000989
H	 -0.606041	 2.070108	 -0.737404
H	 0.044560	 1.063239	 -1.987848
C	 -0.994322	 -0.586602	 0.000262
H	 0.486242	 0.620262	 0.999708
H	 1.137411	 -0.387900	 -0.252229
C	 -2.259874	 0.272531	 0.000494
H	 -1.004862	 -1.240012	 -0.870939
H	 -1.005220	 -1.241071	 0.870675
C	 -3.549786	 -0.549746	 -0.000374
H	 -2.250389	 0.926680	 -0.869574
H	 -2.250838	 0.925513	 0.871430
C	 -4.809590	 0.315458	 -0.000369
H	 -3.560515	 -1.202009	 -0.871156
H	 -3.561123	 -1.202955	 0.869711
H	 -4.844746	 0.956611	 -0.876632
H	 -5.706986	 -0.295590	 -0.001609
H	 -4.845960	 0.954827	 0.877144
H	 0.676252	 4.120031	 -1.713349
H	 2.431305	 3.966837	 -1.883210
H	 1.337111	 3.102950	 -2.973442

	symmetry c1
}
set optking {
	frozen_dihedral = ("
		9 5 8 12
	")
}

ee = optimize('scf')
oeprop('DIPOLE', 'QUADRUPOLE', 'MULLIKEN_CHARGES')
f=open( 'psi4out.xyz', 'w' )
f.write( "25  " )
f.write( str(ee) + "\n" )
f.write( MOL.save_string_xyz() )
f.close()
--------------------------------------------------------------------------

    Molecular point group: c1
  Charge       = 0
  Multiplicity = 1
  Basis Set: 6-31G*
  Basis Set:
  @DF-RHF Final Energy:  -387.13090110530834
    Total Energy =                       -387.1309011053087943
    Molecular point group: c1
  Basis Set: 6-31G*
  Basis Set:
  Basis Set: 6-31G*
  Basis Set:
  @DF-RHF Final Energy:  -387.13206849542598
    Total Energy =                       -387.1320684954259832
  Basis Set: 6-31G*
  Basis Set:
  Basis Set: 6-31G*
  Basis Set:
  @DF-RHF Final Energy:  -387.13345877367118
    Total Energy =                       -387.1334587736711228
  Basis Set: 6-31G*
  Basis Set:
  Basis Set: 6-31G*
  Basis Set:
  @DF-RHF Final Energy:  -387.13354380305805
    Total Energy =                       -387.1335438030580463
  Basis Set: 6-31G*
  Basis Set:
  Basis Set: 6-31G*
  Basis Set:
  @DF-RHF Final Energy:  -387.13232105148097
    Total Energy =                       -387.1323210514802895
  Basis Set: 6-31G*
  Basis Set:
  Basis Set: 6-31G*
  Basis Set:
  @DF-RHF Final Energy:  -387.13360037093804
    Total Energy =                       -387.1336003709384386
  Basis Set: 6-31G*
  Basis Set:
  Basis Set: 6-31G*
  Basis Set:
  @DF-RHF Final Energy:  -387.13361070754570
    Total Energy =                       -387.1336107075456994
  Basis Set: 6-31G*
  Basis Set:
  Charge       = 0
  Multiplicity = 1
  Basis Set: 6-31G*
  Basis Set:

    Orbital Energies (a.u.)
    -----------------------

    Doubly Occupied:

       1A    -20.550387     2A    -11.326253     3A    -11.231455
       4A    -11.228254     5A    -11.217636     6A    -11.217221
       7A    -11.216797     8A    -11.216428     9A    -11.210845
      10A     -1.395746    11A     -1.094325    12A     -1.055729
      13A     -1.014445    14A     -0.968046    15A     -0.899454
      16A     -0.816642    17A     -0.786889    18A     -0.729751
      19A     -0.657928    20A     -0.652779    21A     -0.635051
      22A     -0.621601    23A     -0.596848    24A     -0.582017
      25A     -0.567422    26A     -0.564252    27A     -0.543673
      28A     -0.528937    29A     -0.517787    30A     -0.493660
      31A     -0.488378    32A     -0.476503    33A     -0.459870
      34A     -0.459438    35A     -0.446953    36A     -0.400960

  @DF-RHF Final Energy:  -387.13361110470606

   => Energetics <=

    Nuclear Repulsion Energy =            445.0834933649825302
    One-Electron Energy =               -1406.6934919114673903
    Two-Electron Energy =                 574.4763874417789111
    DFT Exchange-Correlation Energy =       0.0000000000000000
    Empirical Dispersion Energy =           0.0000000000000000
    PCM Polarization Energy =               0.0000000000000000
    EFP Energy =                            0.0000000000000000
    Total Energy =                       -387.1336111047058921
    Molecular point group: c1
  Basis Set: 6-31G*
  Basis Set:

  -Total Gradient:
     Atom            X                  Y                   Z
    ------   -----------------  -----------------  -----------------
       1       -0.000014129875    -0.000013124758    -0.000025766571
       2       -0.000023451796     0.000046607827     0.000066903130
       3        0.000052149282     0.000029532043    -0.000010166428
       4       -0.000008355922    -0.000007472918     0.000001526442
       5       -0.002173056143     0.003412530482    -0.000532506828
       6        0.000044195021    -0.000001995111    -0.000009175904
       7       -0.000004016064    -0.000019218688    -0.000001033619
       8       -0.001715965989     0.002741591973    -0.002452262493
       9        0.002135300237    -0.003259400667     0.000811502778
      10       -0.000004694672     0.000002704001     0.000006911251
      11       -0.000027399863    -0.000031332494     0.000013744541
      12        0.001767690501    -0.002887585945     0.002091265437
      13       -0.000008249992     0.000019997317    -0.000006732018
      14       -0.000008248638     0.000013330209     0.000058172588
      15       -0.000003149292    -0.000009959998     0.000027319973
      16       -0.000005747459    -0.000018775827     0.000018866949
      17       -0.000008353952    -0.000008992588    -0.000065409779
      18       -0.000010861969    -0.000003135878     0.000016502273
      19        0.000013655500     0.000012884821     0.000012031651
      20       -0.000001966397     0.000023867475     0.000008717219
      21       -0.000005613986     0.000002097673    -0.000022392934
      22        0.000002337642    -0.000024766871     0.000010353815
      23        0.000001569443    -0.000021918926     0.000003413356
      24        0.000001707479    -0.000002793848    -0.000000770762
      25        0.000004656898     0.000005330693    -0.000021014067

  **** Optimization is complete! (in 8 steps) ****
    Final optimized geometry and variables:
    Molecular point group: c1

    Geometry (in Angstrom), charge = 0, multiplicity = 1:

    O            3.147229095676     0.944144197017     0.168757283855
    C            2.238855935387     1.266983527982    -0.533547746243
    C            0.905710451921     0.539576469667    -0.523966235179
    C            2.358051419503     2.437330976457    -1.488353356888
    C            0.854044223009    -0.630943019015     0.453438067324
    H            0.135116230419     1.275112290413    -0.305565106584
    H            0.704076286790     0.201021254064    -1.539903969594
    C           -0.425962372777    -1.475798217954     0.385215912342
    H            1.010428565204    -0.277156372913     1.467778970971
    H            1.700891974550    -1.279235344326     0.253545026760
    C           -1.743967245534    -0.701098417303     0.443632503686
    H           -0.398942220349    -2.106376957563    -0.502067877000
    H           -0.398659323071    -2.170396478034     1.222596338818
    C           -2.967170267262    -1.615685634311     0.536565904186
    H           -1.846303791827    -0.068070082598    -0.434872085825
    H           -1.731196385163    -0.031995120028     1.303333980854
    C           -4.287450823594    -0.846923784490     0.573491510406
    H           -2.970618096826    -2.297836160745    -0.311044138814
    H           -2.885658969355    -2.235922565940     1.426362023993
    H           -4.414413266016    -0.241283829015    -0.319555608636
    H           -5.134665051057    -1.522712056678     0.637097756110
    H           -4.330026092687    -0.181936539836     1.431542157343
    H            1.608744436465     3.189828117514    -1.260615568223
    H            3.343793100716     2.874092857892    -1.408591048211
    H            2.187447891596     2.111664850836    -2.510364107519

  Mulliken Charges: (a.u.)
   Center  Symbol    Alpha    Beta     Spin     Total
       1     O     4.26100  4.26100  0.00000 -0.52199
       2     C     2.73579  2.73579  0.00000  0.52842
       3     C     3.21286  3.21286  0.00000 -0.42572
       4     C     3.28647  3.28647  0.00000 -0.57293
       5     C     3.14998  3.14998  0.00000 -0.29996
       6     H     0.40748  0.40748  0.00000  0.18503
       7     H     0.41041  0.41041  0.00000  0.17918
       8     C     3.15600  3.15600  0.00000 -0.31200
       9     H     0.41317  0.41317  0.00000  0.17365
      10     H     0.40942  0.40942  0.00000  0.18116
      11     C     3.15432  3.15432  0.00000 -0.30863
      12     H     0.42347  0.42347  0.00000  0.15307
      13     H     0.41940  0.41940  0.00000  0.16121
      14     C     3.15115  3.15115  0.00000 -0.30230
      15     H     0.42459  0.42459  0.00000  0.15081
      16     H     0.42361  0.42361  0.00000  0.15278
      17     C     3.23930  3.23930  0.00000 -0.47859
      18     H     0.42281  0.42281  0.00000  0.15438
      19     H     0.42188  0.42188  0.00000  0.15624
      20     H     0.42254  0.42254  0.00000  0.15492
      21     H     0.41873  0.41873  0.00000  0.16255
      22     H     0.42158  0.42158  0.00000  0.15683
      23     H     0.40871  0.40871  0.00000  0.18257
      24     H     0.39650  0.39650  0.00000  0.20700
      25     H     0.40884  0.40884  0.00000  0.18233

   Total alpha = 36.00000, Total beta = 36.00000, Total charge =  0.00000
