  ==> Input File <==

--------------------------------------------------------------------------
set {
	reference rhf
	basis 6-31G*
}

set_num_threads( 4 )
memory 2 gb

molecule MOL {
0 1

H	 2.591676	 2.013956	 0.335017
O	 3.341076	 1.666752	 -0.126416
C	 3.569581	 0.339145	 0.272707
C	 2.539767	 -0.640285	 -0.279495
H	 4.553106	 0.084646	 -0.100901
H	 3.608576	 0.269204	 1.359154
C	 1.115811	 -0.397273	 0.226630
H	 2.556196	 -0.582511	 -1.364741
H	 2.852081	 -1.648031	 -0.010655
C	 0.080861	 -0.386742	 -0.901902
H	 1.082547	 0.549620	 0.758281
H	 0.850647	 -1.171111	 0.947188
C	 -1.373051	 -0.232161	 -0.440832
H	 0.322974	 0.410600	 -1.602240
H	 0.167962	 -1.316583	 -1.460034
C	 -1.707282	 1.120208	 0.194673
H	 -2.022051	 -0.380616	 -1.301399
H	 -1.614502	 -1.029712	 0.260202
C	 -3.190542	 1.265604	 0.541425
H	 -1.418955	 1.918577	 -0.487664
H	 -1.119782	 1.264602	 1.098164
C	 -3.525750	 2.612158	 1.181809
H	 -3.785236	 1.137291	 -0.360441
H	 -3.482804	 0.463041	 1.215488
H	 -3.275054	 3.435060	 0.518326
H	 -4.583783	 2.685312	 1.413863
H	 -2.974002	 2.755090	 2.106746

	symmetry c1
}
set optking {
	frozen_dihedral = ("
		10 7 4 8
	")
}

ee = optimize('scf')
oeprop('DIPOLE', 'QUADRUPOLE', 'MULLIKEN_CHARGES')
f=open( 'psi4out.xyz', 'w' )
f.write( "27  " )
f.write( str(ee) + "\n" )
f.write( MOL.save_string_xyz() )
f.close()
--------------------------------------------------------------------------

    Molecular point group: c1
  Charge       = 0
  Multiplicity = 1
  Basis Set: 6-31G*
  Basis Set:
  @DF-RHF Final Energy:  -388.27657180903316
    Total Energy =                       -388.2765718090336122
    Molecular point group: c1
  Basis Set: 6-31G*
  Basis Set:
  Basis Set: 6-31G*
  Basis Set:
  @DF-RHF Final Energy:  -388.27680099723744
    Total Energy =                       -388.2768009972382970
  Basis Set: 6-31G*
  Basis Set:
  Basis Set: 6-31G*
  Basis Set:
  @DF-RHF Final Energy:  -388.27694536389248
    Total Energy =                       -388.2769453638921959
  Basis Set: 6-31G*
  Basis Set:
  Basis Set: 6-31G*
  Basis Set:
  @DF-RHF Final Energy:  -388.27694289927507
    Total Energy =                       -388.2769428992760368
  Basis Set: 6-31G*
  Basis Set:
  Basis Set: 6-31G*
  Basis Set:
  @DF-RHF Final Energy:  -388.27693385990210
    Total Energy =                       -388.2769338599016464
  Basis Set: 6-31G*
  Basis Set:
  Basis Set: 6-31G*
  Basis Set:
  @DF-RHF Final Energy:  -388.27696131295329
    Total Energy =                       -388.2769613129535173
  Basis Set: 6-31G*
  Basis Set:
  Charge       = 0
  Multiplicity = 1
  Basis Set: 6-31G*
  Basis Set:

    Orbital Energies (a.u.)
    -----------------------

    Doubly Occupied:

       1A    -20.551779     2A    -11.266963     3A    -11.221057
       4A    -11.217121     5A    -11.216722     6A    -11.215806
       7A    -11.215314     8A    -11.215223     9A    -11.210064
      10A     -1.358719    11A     -1.094815    12A     -1.060553
      13A     -1.011401    14A     -0.949031    15A     -0.888025
      16A     -0.821171    17A     -0.803322    18A     -0.778616
      19A     -0.692484    20A     -0.651910    21A     -0.641488
      22A     -0.612260    23A     -0.594891    24A     -0.583642
      25A     -0.577663    26A     -0.556102    27A     -0.541055
      28A     -0.534911    29A     -0.509742    30A     -0.493301
      31A     -0.487786    32A     -0.470536    33A     -0.466977
      34A     -0.459060    35A     -0.452990    36A     -0.440862
      37A     -0.424255

  @DF-RHF Final Energy:  -388.27696156319433

   => Energetics <=

    Nuclear Repulsion Energy =            462.9244282675924183
    One-Electron Energy =               -1443.8275448367958234
    Two-Electron Energy =                 592.6261550060095260
    DFT Exchange-Correlation Energy =       0.0000000000000000
    Empirical Dispersion Energy =           0.0000000000000000
    PCM Polarization Energy =               0.0000000000000000
    EFP Energy =                            0.0000000000000000
    Total Energy =                       -388.2769615631938223
    Molecular point group: c1
  Basis Set: 6-31G*
  Basis Set:

  -Total Gradient:
     Atom            X                  Y                   Z
    ------   -----------------  -----------------  -----------------
       1        0.000007252300     0.000006439072     0.000001809348
       2       -0.000029523726     0.000006309735    -0.000004173181
       3        0.000013910967    -0.000022072960    -0.000002378556
       4        0.000574347913     0.003112307815     0.000058321137
       5        0.000005583644    -0.000007917547     0.000007290391
       6       -0.000002665266     0.000002712915    -0.000005109162
       7       -0.000386638021    -0.002543222683     0.000225372344
       8       -0.000393751092    -0.002028580827    -0.000104237308
       9       -0.000000569312    -0.000003016179    -0.000000367799
      10        0.000197678679     0.001476572924    -0.000167614282
      11       -0.000004427396     0.000003534482    -0.000002834927
      12        0.000003085887    -0.000002177709     0.000002755430
      13        0.000010587688    -0.000002291720     0.000002528982
      14        0.000000124639     0.000002149144     0.000004797588
      15       -0.000011290607    -0.000002113237    -0.000001767269
      16        0.000002148985     0.000004696962    -0.000005745230
      17        0.000007285700    -0.000002645701    -0.000004481585
      18        0.000004530123    -0.000003083411     0.000001384748
      19       -0.000000419207    -0.000000177413    -0.000007238626
      20       -0.000001992602     0.000000448024    -0.000004216519
      21        0.000003758795     0.000004303603    -0.000000860380
      22        0.000002934842    -0.000003797529     0.000008992601
      23        0.000000015086     0.000005312391    -0.000000839338
      24       -0.000002090813    -0.000002630006    -0.000003571348
      25       -0.000001364593    -0.000002727021    -0.000001130888
      26        0.000000228863    -0.000001281711     0.000002685373
      27        0.000001258523     0.000002948584     0.000000628455

  **** Optimization is complete! (in 7 steps) ****
    Final optimized geometry and variables:
    Molecular point group: c1

    Geometry (in Angstrom), charge = 0, multiplicity = 1:

    H            2.499661258785     1.391941302958     0.124000663232
    O            3.277380242487     1.014242429931    -0.260607634483
    C            3.447667660020    -0.300785858596     0.203010146435
    C            2.406287244695    -1.265677667924    -0.350832361048
    H            4.435122425214    -0.600247233129    -0.123676941045
    H            3.444724648238    -0.325911328708     1.292042379335
    C            0.967100394352    -1.008317222381     0.147506414265
    H            2.440117954175    -1.217396214109    -1.435327002422
    H            2.707354091123    -2.277053546322    -0.087318961016
    C           -0.066996494913    -0.997693133789    -0.982455914541
    H            0.923174629209    -0.057720048219     0.674349995436
    H            0.691376701251    -1.759399772587     0.883246179357
    C           -1.522369638648    -0.850594240746    -0.525423384296
    H            0.178759697330    -0.197727405949    -1.678421839500
    H            0.025542568736    -1.924913149092    -1.544348355580
    C           -1.862105628258     0.494113025503     0.123647485017
    H           -2.167754784604    -0.990937357275    -1.390022485652
    H           -1.765052784291    -1.655778984340     0.166363645553
    C           -3.348424970452     0.636076394214     0.458574314020
    H           -1.567761094674     1.300964961884    -0.546414116206
    H           -1.283679379693     0.626461373859     1.035007587213
    C           -3.688659624504     1.973681272131     1.114814629967
    H           -3.934507889231     0.521032274747    -0.450618774860
    H           -3.647339375479    -0.175705111190     1.118441933455
    H           -3.431522833871     2.805737800984     0.465318459844
    H           -4.748728198269     2.044321526657     1.338020402841
    H           -3.145583627048     2.103025347116     2.046888144993

  Mulliken Charges: (a.u.)
   Center  Symbol    Alpha    Beta     Spin     Total
       1     H     0.27951  0.27951  0.00000  0.44097
       2     O     4.37153  4.37153  0.00000 -0.74305
       3     C     2.99890  2.99890  0.00000  0.00220
       4     C     3.16466  3.16466  0.00000 -0.32932
       5     H     0.41502  0.41502  0.00000  0.16997
       6     H     0.43172  0.43172  0.00000  0.13657
       7     C     3.16090  3.16090  0.00000 -0.32179
       8     H     0.41201  0.41201  0.00000  0.17598
       9     H     0.42155  0.42155  0.00000  0.15690
      10     C     3.15492  3.15492  0.00000 -0.30983
      11     H     0.43118  0.43118  0.00000  0.13764
      12     H     0.41869  0.41869  0.00000  0.16262
      13     C     3.15406  3.15406  0.00000 -0.30812
      14     H     0.42008  0.42008  0.00000  0.15984
      15     H     0.42017  0.42017  0.00000  0.15966
      16     C     3.15323  3.15323  0.00000 -0.30646
      17     H     0.42090  0.42090  0.00000  0.15820
      18     H     0.42386  0.42386  0.00000  0.15229
      19     C     3.15100  3.15100  0.00000 -0.30201
      20     H     0.42442  0.42442  0.00000  0.15117
      21     H     0.42402  0.42402  0.00000  0.15197
      22     C     3.23933  3.23933  0.00000 -0.47866
      23     H     0.42253  0.42253  0.00000  0.15495
      24     H     0.42293  0.42293  0.00000  0.15415
      25     H     0.42160  0.42160  0.00000  0.15679
      26     H     0.41894  0.41894  0.00000  0.16213
      27     H     0.42238  0.42238  0.00000  0.15525

   Total alpha = 37.00000, Total beta = 37.00000, Total charge =  0.00000
