  ==> Input File <==

--------------------------------------------------------------------------
set {
	reference rhf
	basis 6-31G*
}

set_num_threads( 1 )
memory 2 gb

molecule MOL {
0 1

H	 -3.161837	 0.500524	 -0.000234
C	 -2.367097	 -0.232926	 -0.000000
O	 -1.158440	 0.455814	 -0.000122
H	 -2.468853	 -0.861886	 -0.882833
H	 -2.468942	 -0.861421	 0.883154
C	 -0.029776	 -0.365156	 0.000148
C	 1.212217	 0.508981	 0.000007
H	 -0.036772	 -1.013236	 -0.877259
H	 -0.036869	 -1.012778	 0.877897
C	 0.912604	 1.950127	 0.410144
H	 1.941428	 0.071076	 0.674656
H	 1.650121	 0.484844	 -0.993148
H	 0.495627	 1.998588	 1.412244
H	 1.815738	 2.551051	 0.400943
H	 0.201609	 2.415171	 -0.267074

	symmetry c1
}
set optking {
	frozen_dihedral = ("
		6 3 2 4,
		8 6 3 2
	")
}

ee = energy('scf')
oeprop('DIPOLE', 'QUADRUPOLE', 'MULLIKEN_CHARGES')
f=open( 'psi4out.xyz', 'w' )
f.write( "15  " )
f.write( str(ee) + "\n" )
f.write( MOL.save_string_xyz() )
f.close()
--------------------------------------------------------------------------

    Molecular point group: c1

    Geometry (in Angstrom), charge = 0, multiplicity = 1:

       Center              X                  Y                   Z               Mass
    ------------   -----------------  -----------------  -----------------  -----------------
           H         -2.839470445982     0.042485261511    -0.083389545902     1.007825032070
           C         -2.044730445982    -0.690964738489    -0.083155545902    12.000000000000
           O         -0.836073445982    -0.002224738489    -0.083277545902    15.994914619560
           H         -2.146486445982    -1.319924738489    -0.965988545902     1.007825032070
           H         -2.146575445982    -1.319459738489     0.799998454098     1.007825032070
           C          0.292590554018    -0.823194738489    -0.083007545902    12.000000000000
           C          1.534583554018     0.050942261511    -0.083148545902    12.000000000000
           H          0.285594554018    -1.471274738489    -0.960414545902     1.007825032070
           H          0.285497554018    -1.470816738489     0.794741454098     1.007825032070
           C          1.234970554018     1.492088261511     0.326988454098    12.000000000000
           H          2.263794554018    -0.386962738489     0.591500454098     1.007825032070
           H          1.972487554018     0.026805261511    -1.076303545902     1.007825032070
           H          0.817993554018     1.540549261511     1.329088454098     1.007825032070
           H          2.138104554018     2.093012261511     0.317787454098     1.007825032070
           H          0.523975554018     1.957132261511    -0.350229545902     1.007825032070

  Charge       = 0
  Multiplicity = 1
  Basis Set: 6-31G*
  Basis Set:

    Orbital Energies (a.u.)
    -----------------------

    Doubly Occupied:

       1A    -20.553972     2A    -11.265579     3A    -11.264501
       4A    -11.212680     5A    -11.198256     6A     -1.380175
       7A     -1.051970     8A     -0.945604     9A     -0.891546
      10A     -0.790869    11A     -0.674187    12A     -0.660035
      13A     -0.635040    14A     -0.600960    15A     -0.546665
      16A     -0.539461    17A     -0.505774    18A     -0.479151
      19A     -0.473448    20A     -0.461099    21A     -0.409092

  @DF-RHF Final Energy:  -232.13126491342578

   => Energetics <=

    Nuclear Repulsion Energy =            195.0373025161806879
    One-Electron Energy =                -701.2571749377217429
    Two-Electron Energy =                 274.0886075081152740
    DFT Exchange-Correlation Energy =       0.0000000000000000
    Empirical Dispersion Energy =           0.0000000000000000
    PCM Polarization Energy =               0.0000000000000000
    EFP Energy =                            0.0000000000000000
    Total Energy =                       -232.1312649134257526

  Mulliken Charges: (a.u.)
   Center  Symbol    Alpha    Beta     Spin     Total
       1     H     0.41252  0.41252  0.00000  0.17495
       2     C     3.07828  3.07828  0.00000 -0.15656
       3     O     4.30536  4.30536  0.00000 -0.61072
       4     H     0.43043  0.43043  0.00000  0.13914
       5     H     0.43021  0.43021  0.00000  0.13957
       6     C     2.98402  2.98402  0.00000  0.03197
       7     C     3.17301  3.17301  0.00000 -0.34602
       8     H     0.43010  0.43010  0.00000  0.13980
       9     H     0.43175  0.43175  0.00000  0.13651
      10     C     3.23078  3.23078  0.00000 -0.46155
      11     H     0.42013  0.42013  0.00000  0.15974
      12     H     0.41903  0.41903  0.00000  0.16194
      13     H     0.41973  0.41973  0.00000  0.16055
      14     H     0.42557  0.42557  0.00000  0.14886
      15     H     0.40909  0.40909  0.00000  0.18181

   Total alpha = 21.00000, Total beta = 21.00000, Total charge =  0.00000
