                              Psi4 1.0.54 Driver

  ==> Input File <==

--------------------------------------------------------------------------
set {
	reference rhf
	basis cc-pvtz
}

set_num_threads( 4 )
memory 2 gb

molecule MOL {
0 1

H	 -3.941973	 0.934228	 -0.390224
C	 -3.240162	 0.342701	 0.161016
C	 -2.105997	 -0.000418	 -0.398703
H	 -3.485368	 0.047206	 1.162193
O	 -1.189946	 -0.765863	 0.237511
H	 -1.846458	 0.297311	 -1.398265
C	 0.026572	 -0.995256	 -0.379403
C	 1.057223	 0.049888	 -0.004615
H	 -0.054361	 -1.010670	 -1.459674
H	 0.397526	 -1.952058	 -0.044198
F	 1.650698	 -0.301940	 1.118366
F	 1.988074	 0.174236	 -0.926332
F	 0.517909	 1.230669	 0.178018

	symmetry c1
}
set optking {
	frozen_dihedral = ("
		11 8 7 9
	")
}

ee,wfn = optimize('scf', return_wfn=True)
oeprop( wfn, 'DIPOLE', 'QUADRUPOLE', 'MULLIKEN_CHARGES')
f=open( 'psi4out.xyz', 'w' )
f.write( "13  " )
f.write( str(ee) + "\n" )
f.write( MOL.save_string_xyz() )
f.close()
--------------------------------------------------------------------------

    Molecular point group: c1
  Charge       = 0
  Multiplicity = 1
  Basis Set: CC-PVTZ
  Basis Set:
  @DF-RHF Final Energy:  -527.73855819764981
    Total Energy =                       -527.7385581976496951
    Molecular point group: c1
  Basis Set: CC-PVTZ
  Basis Set:
  Basis Set: CC-PVTZ
  Basis Set:
  @DF-RHF Final Energy:  -527.73925764669480
    Total Energy =                       -527.7392576466950231
  Basis Set: CC-PVTZ
  Basis Set:
  Basis Set: CC-PVTZ
  Basis Set:
  @DF-RHF Final Energy:  -527.73940896878207
    Total Energy =                       -527.7394089687822998
  Basis Set: CC-PVTZ
  Basis Set:
  Basis Set: CC-PVTZ
  Basis Set:
  @DF-RHF Final Energy:  -527.73942320008734
    Total Energy =                       -527.7394232000871170
  Basis Set: CC-PVTZ
  Basis Set:
  Basis Set: CC-PVTZ
  Basis Set:
  @DF-RHF Final Energy:  -527.73942584249426
    Total Energy =                       -527.7394258424939153
  Basis Set: CC-PVTZ
  Basis Set:
  Basis Set: CC-PVTZ
  Basis Set:
  @DF-RHF Final Energy:  -527.73942747952060
    Total Energy =                       -527.7394274795203728
  Basis Set: CC-PVTZ
  Basis Set:
  Basis Set: CC-PVTZ
  Basis Set:
  @DF-RHF Final Energy:  -527.73942841463884
    Total Energy =                       -527.7394284146387236
  Basis Set: CC-PVTZ
  Basis Set:
  Charge       = 0
  Multiplicity = 1
  Basis Set: CC-PVTZ
  Basis Set:

    Orbital Energies (a.u.)
    -----------------------

    Doubly Occupied:

       1A    -26.342444     2A    -26.339678     3A    -26.338046
       4A    -20.604524     5A    -11.498751     6A    -11.319821
       7A    -11.298897     8A    -11.214154     9A     -1.750690
      10A     -1.648260    11A     -1.643816    12A     -1.445163
      13A     -1.087030    14A     -1.020266    15A     -0.932714
      16A     -0.843871    17A     -0.839725    18A     -0.827691
      19A     -0.796383    20A     -0.732209    21A     -0.720960
      22A     -0.703155    23A     -0.681023    24A     -0.667874
      25A     -0.661836    26A     -0.650643    27A     -0.638251
      28A     -0.587709    29A     -0.565489    30A     -0.530222
      31A     -0.517253    32A     -0.356986

  @DF-RHF Final Energy:  -527.73942875170610

   => Energetics <=

    Nuclear Repulsion Energy =            412.7020143036673971
    One-Electron Energy =               -1549.2718089336390221
    Two-Electron Energy =                 608.8303658782652974
    DFT Exchange-Correlation Energy =       0.0000000000000000
    Empirical Dispersion Energy =           0.0000000000000000
    PCM Polarization Energy =               0.0000000000000000
    EFP Energy =                            0.0000000000000000
    Total Energy =                       -527.7394287517062139
    Molecular point group: c1
  Basis Set: CC-PVTZ
  Basis Set:

  -Total Gradient:
     Atom            X                  Y                   Z
    ------   -----------------  -----------------  -----------------
       1       -0.000002301801    -0.000005093886    -0.000003402169
       2       -0.000001040094     0.000003977210     0.000004712307
       3       -0.000002057382     0.000011637029     0.000009198642
       4        0.000000567961    -0.000004492138     0.000005967118
       5       -0.000064132098     0.000040108737     0.000018037297
       6        0.000013533289    -0.000009185396    -0.000018280847
       7       -0.003202416686     0.003433715936    -0.000546522179
       8       -0.003049383995     0.002189247846     0.002899896135
       9        0.003456956714    -0.003466118505    -0.000139149870
      10       -0.000036773143    -0.000022155953     0.000002898163
      11        0.002878627931    -0.002194355076    -0.002227620875
      12        0.000030622009    -0.000033510676     0.000009646783
      13       -0.000022202710     0.000056224872    -0.000015380509

  **** Optimization is complete! (in 8 steps) ****
    Final optimized geometry and variables:
    Molecular point group: c1

    Geometry (in Angstrom), charge = 0, multiplicity = 1:

    H           -3.974333268562     0.928225166238    -0.315650263836
    C           -3.277165988851     0.302519174624     0.202761681207
    C           -2.118972190336     0.033218204237    -0.347956955430
    H           -3.545703557742    -0.085178828985     1.165810196711
    O           -1.202740080865    -0.761698386488     0.250844470107
    H           -1.836828450597     0.422401732830    -1.309294399385
    C            0.002051479309    -0.975576094144    -0.389281934810
    C            1.061422079277     0.054866610743    -0.018899302277
    H           -0.080832478907    -1.002161709832    -1.468573167530
    H            0.377093954336    -1.936824829964    -0.070644669156
    F            1.674933425996    -0.253847228049     1.101682016555
    F            1.985663478087     0.090015676480    -0.961597919495
    F            0.569295614749     1.263376583213     0.104266529301

  Mulliken Charges: (a.u.)
   Center  Symbol    Alpha    Beta     Spin     Total
       1     H     0.42524  0.42524  0.00000  0.14952
       2     C     3.19711  3.19711  0.00000 -0.39422
       3     C     2.95626  2.95626  0.00000  0.08748
       4     H     0.42501  0.42501  0.00000  0.14998
       5     O     4.14293  4.14293  0.00000 -0.28586
       6     H     0.43473  0.43473  0.00000  0.13053
       7     C     3.02774  3.02774  0.00000 -0.05547
       8     C     2.67232  2.67232  0.00000  0.65537
       9     H     0.45477  0.45477  0.00000  0.09045
      10     H     0.43639  0.43639  0.00000  0.12722
      11     F     4.60840  4.60840  0.00000 -0.21681
      12     F     4.61387  4.61387  0.00000 -0.22774
      13     F     4.60523  4.60523  0.00000 -0.21046

   Total alpha = 32.00000, Total beta = 32.00000, Total charge = -0.00000

*** Psi4 exiting successfully. Buy a developer a beer!
