  ==> Input File <==

--------------------------------------------------------------------------
set {
	reference rhf
	basis 6-31G*
}

set_num_threads( 4 )
memory 2 gb

molecule MOL {
0 1

H	 -2.247711	 0.370490	 -2.284685
C	 -1.796047	 0.167655	 -1.331672
C	 -2.569587	 0.045559	 -0.189886
C	 -0.428653	 0.025012	 -1.232499
H	 -3.637817	 0.153356	 -0.246516
C	 -1.974708	 -0.215676	 1.030197
H	 0.197105	 0.113400	 -2.095859
C	 0.154804	 -0.237046	 -0.000077
H	 -2.592293	 -0.307034	 1.904462
C	 -0.596810	 -0.366334	 1.172693
N	 1.611208	 -0.370857	 -0.000034
C	 -0.053664	 -0.650576	 2.555852
O	 2.274126	 0.622059	 -0.008063
O	 2.068510	 -1.474748	 0.007823
H	 0.633853	 0.118946	 2.878784
H	 -0.877247	 -0.697122	 3.257222
H	 0.482166	 -1.589199	 2.587402

	symmetry c1
}
set optking {
	frozen_dihedral = ("
		4 8 11 13
	")
}

ee = optimize('scf')
oeprop('DIPOLE', 'QUADRUPOLE', 'MULLIKEN_CHARGES')
f=open( 'psi4out.xyz', 'w' )
f.write( "17  " )
f.write( str(ee) + "\n" )
f.write( MOL.save_string_xyz() )
f.close()
--------------------------------------------------------------------------

    Molecular point group: c1
  Charge       = 0
  Multiplicity = 1
  Basis Set: 6-31G*
  Basis Set:
  @DF-RHF Final Energy:  -473.19857443396739
    Total Energy =                       -473.1985744339669964
    Molecular point group: c1
  Basis Set: 6-31G*
  Basis Set:
  Basis Set: 6-31G*
  Basis Set:
  @DF-RHF Final Energy:  -473.20009642599854
    Total Energy =                       -473.2000964259987086
  Basis Set: 6-31G*
  Basis Set:
  Basis Set: 6-31G*
  Basis Set:
  @DF-RHF Final Energy:  -473.19807342999246
    Total Energy =                       -473.1980734299922915
  Basis Set: 6-31G*
  Basis Set:
  Basis Set: 6-31G*
  Basis Set:
  @DF-RHF Final Energy:  -473.20111656029263
    Total Energy =                       -473.2011165602923484
  Basis Set: 6-31G*
  Basis Set:
  @DF-RHF Final Energy:  -473.20122566726343
    Total Energy =                       -473.2012256672629746
  Basis Set: 6-31G*
  Basis Set:
  @DF-RHF Final Energy:  -473.20124573673701
    Total Energy =                       -473.2012457367370644
  Basis Set: 6-31G*
  Basis Set:
  Basis Set: 6-31G*
  Basis Set:
  @DF-RHF Final Energy:  -473.20126191257043
    Total Energy =                       -473.2012619125703168
  Basis Set: 6-31G*
  Basis Set:
  Basis Set: 6-31G*
  Basis Set:
  @DF-RHF Final Energy:  -473.20126493083836
    Total Energy =                       -473.2012649308383061
  Basis Set: 6-31G*
  Basis Set:
  Charge       = 0
  Multiplicity = 1
  Basis Set: 6-31G*
  Basis Set:

    Orbital Energies (a.u.)
    -----------------------

    Doubly Occupied:

       1A    -20.606187     2A    -20.605745     3A    -15.853317
       4A    -11.302313     5A    -11.276269     6A    -11.267464
       7A    -11.258283     8A    -11.256283     9A    -11.255301
      10A    -11.240082    11A     -1.636832    12A     -1.420604
      13A     -1.202434    14A     -1.092174    15A     -1.072971
      16A     -0.979332    17A     -0.935997    18A     -0.853834
      19A     -0.819734    20A     -0.772650    21A     -0.734343
      22A     -0.730155    23A     -0.695886    24A     -0.652600
      25A     -0.636424    26A     -0.600039    27A     -0.599116
      28A     -0.570694    29A     -0.542458    30A     -0.529011
      31A     -0.520642    32A     -0.492958    33A     -0.478554
      34A     -0.450747    35A     -0.363965    36A     -0.353311

  @DF-RHF Final Energy:  -473.20126553867738

   => Energetics <=

    Nuclear Repulsion Energy =            509.8581946708391115
    One-Electron Energy =               -1654.8015070658675540
    Two-Electron Energy =                 671.7420468563507256
    DFT Exchange-Correlation Energy =       0.0000000000000000
    Empirical Dispersion Energy =           0.0000000000000000
    PCM Polarization Energy =               0.0000000000000000
    EFP Energy =                            0.0000000000000000
    Total Energy =                       -473.2012655386777169
    Molecular point group: c1
  Basis Set: 6-31G*
  Basis Set:

  -Total Gradient:
     Atom            X                  Y                   Z
    ------   -----------------  -----------------  -----------------
       1        0.000011581246    -0.000003876240    -0.000004194199
       2       -0.000140910191     0.000008852142     0.000062933395
       3        0.000015512733     0.000006833182    -0.000146029257
       4       -0.000059560638    -0.001872407237    -0.000236138514
       5       -0.000001038848     0.000004764007     0.000012535346
       6        0.000120712013    -0.000043784737     0.000072834028
       7       -0.000015453031    -0.000006225123    -0.000002535666
       8        0.000228533292     0.002711377003     0.001148443385
       9       -0.000009593405     0.000000969734    -0.000006066906
      10       -0.000145286623     0.000041502084     0.000078429212
      11        0.000059725087    -0.000859370845    -0.003214713911
      12        0.000019092248     0.000001569745    -0.000005404895
      13       -0.000100944018     0.000051579621     0.002219276745
      14        0.000028969320    -0.000037053523     0.000023129017
      15       -0.000007011142    -0.000003167225     0.000000935649
      16       -0.000004506562    -0.000000947137    -0.000004535239
      17        0.000000178523    -0.000000615454     0.000001101809

  **** Optimization is complete! (in 9 steps) ****
    Final optimized geometry and variables:
    Molecular point group: c1

    Geometry (in Angstrom), charge = 0, multiplicity = 1:

    H           -2.201320156634     0.614316840712    -2.547118231637
    C           -1.755190389243     0.417994160140    -1.589942701459
    C           -2.541758133532     0.286975831644    -0.458815421801
    C           -0.380692789012     0.297035529817    -1.480196015287
    H           -3.609652874657     0.383669271275    -0.533346404369
    C           -1.962738804491     0.032191520068     0.774391717867
    H            0.257878831949     0.401331399963    -2.337606731571
    C            0.162430969202     0.042593035299    -0.240305337992
    H           -2.587687969241    -0.064544532102     1.643743991513
    C           -0.587790909270    -0.105699172180     0.915762863774
    N            1.617732746581    -0.107495060804    -0.159209665745
    C            0.050500623846    -0.401659576729     2.252313429705
    O            2.270038124620     0.890429647166    -0.142066522052
    O            2.049443045472    -1.217497459669    -0.100952840075
    H            0.845179680240     0.303025575986     2.472423084054
    H           -0.684522675442    -0.336099126527     3.043976196066
    H            0.478733100508    -1.397443141017     2.264572239161

  Mulliken Charges: (a.u.)
   Center  Symbol    Alpha    Beta     Spin     Total
       1     H     0.38987  0.38987  0.00000  0.22025
       2     C     3.10866  3.10866  0.00000 -0.21732
       3     C     3.08845  3.08845  0.00000 -0.17690
       4     C     3.08358  3.08358  0.00000 -0.16715
       5     H     0.39118  0.39118  0.00000  0.21764
       6     C     3.11917  3.11917  0.00000 -0.23835
       7     H     0.37727  0.37727  0.00000  0.24545
       8     C     2.90797  2.90797  0.00000  0.18406
       9     H     0.39271  0.39271  0.00000  0.21458
      10     C     2.96802  2.96802  0.00000  0.06395
      11     N     3.26421  3.26421  0.00000  0.47159
      12     C     3.25975  3.25975  0.00000 -0.51949
      13     O     4.22409  4.22409  0.00000 -0.44818
      14     O     4.22490  4.22490  0.00000 -0.44981
      15     H     0.39949  0.39949  0.00000  0.20103
      16     H     0.40736  0.40736  0.00000  0.18528
      17     H     0.39332  0.39332  0.00000  0.21336

   Total alpha = 36.00000, Total beta = 36.00000, Total charge = -0.00000
