  ==> Input File <==

--------------------------------------------------------------------------
set {
	reference rhf
	basis cc-pvtz
}

set_num_threads( 4 )
memory 2 gb

molecule MOL {
0 1

H	 -1.756164	 2.052335	 0.881862
C	 -1.933803	 1.070314	 1.299353
C	 -0.648268	 0.259580	 1.353425
H	 -2.674736	 0.582356	 0.680377
H	 -2.344424	 1.190472	 2.294770
C	 0.000000	 0.039916	 0.000014
H	 -0.825754	 -0.716966	 1.795868
H	 0.084851	 0.740204	 1.995632
C	 1.286532	 -0.763243	 0.000268
O	 -0.471910	 0.471272	 -1.000792
C	 2.547023	 0.087626	 -0.000114
H	 1.264245	 -1.421103	 -0.864380
H	 1.264290	 -1.420353	 0.865489
H	 2.584452	 0.725630	 -0.872909
H	 3.427035	 -0.544422	 0.000125
H	 2.584484	 0.726356	 0.872143

	symmetry c1
}
set optking {
	frozen_dihedral = ("
		3 6 9 12
	")
}

ee = optimize('scf')
oeprop('DIPOLE', 'QUADRUPOLE', 'MULLIKEN_CHARGES')
f=open( 'psi4out.xyz', 'w' )
f.write( "16  " )
f.write( str(ee) + "\n" )
f.write( MOL.save_string_xyz() )
f.close()
--------------------------------------------------------------------------

    Molecular point group: c1
  Charge       = 0
  Multiplicity = 1
  Basis Set: CC-PVTZ
  Basis Set:
  @DF-RHF Final Energy:  -270.12904208701519
    Total Energy =                       -270.1290420870150797
    Molecular point group: c1
  Basis Set: CC-PVTZ
  Basis Set:
  Basis Set: CC-PVTZ
  Basis Set:
  @DF-RHF Final Energy:  -270.12976784061846
    Total Energy =                       -270.1297678406182854
  Basis Set: CC-PVTZ
  Basis Set:
  Basis Set: CC-PVTZ
  Basis Set:
  @DF-RHF Final Energy:  -270.12722009112724
    Total Energy =                       -270.1272200911271284
  Basis Set: CC-PVTZ
  Basis Set:
  Basis Set: CC-PVTZ
  Basis Set:
  @DF-RHF Final Energy:  -270.12994941328168
    Total Energy =                       -270.1299494132816790
  Basis Set: CC-PVTZ
  Basis Set:
  Basis Set: CC-PVTZ
  Basis Set:
  @DF-RHF Final Energy:  -270.12999248253340
    Total Energy =                       -270.1299924825335097
  Basis Set: CC-PVTZ
  Basis Set:
  Charge       = 0
  Multiplicity = 1
  Basis Set: CC-PVTZ
  Basis Set:

    Orbital Energies (a.u.)
    -----------------------

    Doubly Occupied:

       1A    -20.537332     2A    -11.317255     3A    -11.232933
       4A    -11.230364     5A    -11.224417     6A    -11.211832
       7A     -1.397721     8A     -1.071976     9A     -1.037793
      10A     -0.913339    11A     -0.855103    12A     -0.727830
      13A     -0.666345    14A     -0.644661    15A     -0.625171
      16A     -0.602857    17A     -0.567779    18A     -0.539624
      19A     -0.532442    20A     -0.512475    21A     -0.503562
      22A     -0.499144    23A     -0.480485    24A     -0.398241

  @DF-RHF Final Energy:  -270.12999340777606

   => Energetics <=

    Nuclear Repulsion Energy =            240.9301817191988846
    One-Electron Energy =                -843.4589877736882499
    Two-Electron Energy =                 332.3988126467132247
    DFT Exchange-Correlation Energy =       0.0000000000000000
    Empirical Dispersion Energy =           0.0000000000000000
    PCM Polarization Energy =               0.0000000000000000
    EFP Energy =                            0.0000000000000000
    Total Energy =                       -270.1299934077761122
    Molecular point group: c1
  Basis Set: CC-PVTZ
  Basis Set:

  -Total Gradient:
     Atom            X                  Y                   Z
    ------   -----------------  -----------------  -----------------
       1       -0.000019123025     0.000008047949    -0.000001788650
       2        0.000044063374     0.000064727951     0.000016480098
       3       -0.000062471397    -0.000057838599    -0.000035938319
       4        0.000024521898    -0.000016376038     0.000004899425
       5       -0.000005252896     0.000004201325     0.000002990746
       6       -0.000001532506    -0.000002344845     0.000015417788
       7        0.000006114512    -0.000020397939     0.000033321099
       8       -0.000018720346     0.000007884968    -0.000046173665
       9        0.000055246588     0.000029108460     0.000034999114
      10       -0.000033286955     0.000013338577    -0.000010597628
      11       -0.000035595665    -0.000043334917     0.000003999959
      12        0.000002223142     0.000020991187    -0.000007744220
      13        0.000017948564    -0.000008413361    -0.000008882532
      14        0.000006029813     0.000001928920     0.000008345213
      15        0.000020443577    -0.000001877302    -0.000002861226
      16       -0.000000608680     0.000000353665    -0.000006467203

  **** Optimization is complete! (in 6 steps) ****
    Final optimized geometry and variables:
    Molecular point group: c1

    Geometry (in Angstrom), charge = 0, multiplicity = 1:

    H           -1.749163436191     1.912338276860     0.655664993507
    C           -2.026983336232     0.929047350572     1.012129144624
    C           -0.817122316627     0.011094486201     1.077893275177
    H           -2.773662636323     0.536466265041     0.335441996242
    H           -2.474092156147     1.034933475701     1.993341785061
    C           -0.130810889541    -0.208558846671    -0.253476738209
    H           -1.094143343465    -0.970112334119     1.456712091494
    H           -0.074925599675     0.389552885174     1.776111487849
    C            1.168500689118    -0.992585500596    -0.237619787943
    O           -0.568944536229     0.221863281019    -1.270560662907
    C            2.374471350411    -0.051404427709    -0.307781773461
    H            1.165498685292    -1.645696768135    -1.100636282787
    H            1.228931051673    -1.606929967706     0.653233941237
    H            2.336316790151     0.546484002835    -1.208665094111
    H            3.296679300334    -0.618682551039    -0.313068356313
    H            2.404384520039     0.620291336183     0.543151336267

  Mulliken Charges: (a.u.)
   Center  Symbol    Alpha    Beta     Spin     Total
       1     H     0.44917  0.44917  0.00000  0.10167
       2     C     3.14101  3.14101  0.00000 -0.28201
       3     C     3.10542  3.10542  0.00000 -0.21083
       4     H     0.44626  0.44626  0.00000  0.10748
       5     H     0.45074  0.45074  0.00000  0.09853
       6     C     2.86264  2.86264  0.00000  0.27472
       7     H     0.44477  0.44477  0.00000  0.11045
       8     H     0.44528  0.44528  0.00000  0.10944
       9     C     3.09594  3.09594  0.00000 -0.19188
      10     O     4.17819  4.17819  0.00000 -0.35637
      11     C     3.14785  3.14785  0.00000 -0.29569
      12     H     0.43956  0.43956  0.00000  0.12087
      13     H     0.44911  0.44911  0.00000  0.10177
      14     H     0.44237  0.44237  0.00000  0.11525
      15     H     0.44683  0.44683  0.00000  0.10634
      16     H     0.45487  0.45487  0.00000  0.09025

   Total alpha = 24.00000, Total beta = 24.00000, Total charge = -0.00000
