  ==> Input File <==

--------------------------------------------------------------------------
set {
	reference rhf
	basis 6-31G*
}

set_num_threads( 1 )
memory 2 gb

molecule MOL {
0 1

H	 2.400795	 5.807310	 -1.298952
C	 1.403618	 5.578457	 -1.661977
C	 0.994369	 4.153561	 -1.291352
H	 0.720193	 6.304265	 -1.231309
H	 1.402861	 5.721106	 -2.739219
C	 -0.405685	 3.795435	 -1.794747
H	 1.031241	 4.039223	 -0.212849
H	 1.716369	 3.452504	 -1.707196
C	 -0.835966	 2.368471	 -1.454310
H	 -1.129198	 4.489490	 -1.381877
H	 -0.435311	 3.912631	 -2.875686
C	 -1.133572	 2.138432	 0.020056
H	 -1.746946	 2.120108	 -1.996714
H	 -0.091115	 1.648394	 -1.785765
C	 -1.181045	 0.701995	 0.511084
O	 -1.341438	 3.047907	 0.765745
C	 -2.285934	 -0.139295	 -0.145128
H	 -1.325733	 0.738663	 1.584134
H	 -0.214603	 0.239109	 0.320269
C	 -3.651768	 0.085446	 0.506485
H	 -2.346596	 0.110469	 -1.202272
H	 -2.034737	 -1.195320	 -0.088721
C	 -4.759797	 -0.746382	 -0.137905
H	 -3.908762	 1.140117	 0.445781
H	 -3.588286	 -0.154158	 1.565709
H	 -4.868882	 -0.505166	 -1.191300
H	 -4.548009	 -1.809175	 -0.062213
H	 -5.715422	 -0.564821	 0.343442

	symmetry c1
}
set optking {
	frozen_dihedral = ("
		10 6 3 2,
		16 12 15 17
	")
}

ee = energy('scf')
oeprop('DIPOLE', 'QUADRUPOLE', 'MULLIKEN_CHARGES')
f=open( 'psi4out.xyz', 'w' )
f.write( "28  " )
f.write( str(ee) + "\n" )
f.write( MOL.save_string_xyz() )
f.close()
--------------------------------------------------------------------------

    Molecular point group: c1

    Geometry (in Angstrom), charge = 0, multiplicity = 1:

       Center              X                  Y                   Z               Mass
    ------------   -----------------  -----------------  -----------------  -----------------
           H          3.727701184106     3.698361922312    -0.829358767991     1.007825032070
           C          2.730524184106     3.469508922312    -1.192383767991    12.000000000000
           C          2.321275184106     2.044612922312    -0.821758767991    12.000000000000
           H          2.047099184106     4.195316922312    -0.761715767991     1.007825032070
           H          2.729767184106     3.612157922312    -2.269625767991     1.007825032070
           C          0.921221184106     1.686486922312    -1.325153767991    12.000000000000
           H          2.358147184106     1.930274922312     0.256744232009     1.007825032070
           H          3.043275184106     1.343555922312    -1.237602767991     1.007825032070
           C          0.490940184106     0.259522922312    -0.984716767991    12.000000000000
           H          0.197708184106     2.380541922312    -0.912283767991     1.007825032070
           H          0.891595184106     1.803682922312    -2.406092767991     1.007825032070
           C          0.193334184106     0.029483922312     0.489649232009    12.000000000000
           H         -0.420039815894     0.011159922312    -1.527120767991     1.007825032070
           H          1.235791184106    -0.460554077688    -1.316171767991     1.007825032070
           C          0.145861184106    -1.406953077688     0.980677232009    12.000000000000
           O         -0.014531815894     0.938958922312     1.235338232009    15.994914619560
           C         -0.959027815894    -2.248243077688     0.324465232009    12.000000000000
           H          0.001173184106    -1.370285077688     2.053727232009     1.007825032070
           H          1.112303184106    -1.869839077688     0.789862232009     1.007825032070
           C         -2.324861815894    -2.023502077688     0.976078232009    12.000000000000
           H         -1.019689815894    -1.998479077688    -0.732678767991     1.007825032070
           H         -0.707830815894    -3.304268077688     0.380872232009     1.007825032070
           C         -3.432890815894    -2.855330077688     0.331688232009    12.000000000000
           H         -2.581855815894    -0.968831077688     0.915374232009     1.007825032070
           H         -2.261379815894    -2.263106077688     2.035302232009     1.007825032070
           H         -3.541975815894    -2.614114077688    -0.721706767991     1.007825032070
           H         -3.221102815894    -3.918123077688     0.407380232009     1.007825032070
           H         -4.388515815894    -2.673769077688     0.813035232009     1.007825032070

  Charge       = 0
  Multiplicity = 1
  Basis Set: 6-31G*
  Basis Set:

    Orbital Energies (a.u.)
    -----------------------

    Doubly Occupied:

       1A    -20.548758     2A    -11.322509     3A    -11.231175
       4A    -11.230518     5A    -11.228228     6A    -11.222145
       7A    -11.216953     8A    -11.214147     9A    -11.212669
      10A    -11.205985    11A     -1.393882    12A     -1.095097
      13A     -1.077248    14A     -1.021048    15A     -0.990514
      16A     -0.906163    17A     -0.873725    18A     -0.810333
      19A     -0.799121    20A     -0.722581    21A     -0.669006
      22A     -0.648697    23A     -0.629683    24A     -0.611603
      25A     -0.609505    26A     -0.589217    27A     -0.584219
      28A     -0.573163    29A     -0.540187    30A     -0.535785
      31A     -0.520013    32A     -0.511631    33A     -0.501724
      34A     -0.483161    35A     -0.477903    36A     -0.472480
      37A     -0.467101    38A     -0.461294    39A     -0.454846
      40A     -0.393697

  @DF-RHF Final Energy:  -426.16680647250041

   => Energetics <=

    Nuclear Repulsion Energy =            538.7743290183799445
    One-Electron Energy =               -1645.7667090180846117
    Two-Electron Energy =                 680.8255735272050515
    DFT Exchange-Correlation Energy =       0.0000000000000000
    Empirical Dispersion Energy =           0.0000000000000000
    PCM Polarization Energy =               0.0000000000000000
    EFP Energy =                            0.0000000000000000
    Total Energy =                       -426.1668064724995020

  Mulliken Charges: (a.u.)
   Center  Symbol    Alpha    Beta     Spin     Total
       1     H     0.41926  0.41926  0.00000  0.16148
       2     C     3.24015  3.24015  0.00000 -0.48030
       3     C     3.15656  3.15656  0.00000 -0.31312
       4     H     0.41830  0.41830  0.00000  0.16341
       5     H     0.42358  0.42358  0.00000  0.15285
       6     C     3.14862  3.14862  0.00000 -0.29723
       7     H     0.41044  0.41044  0.00000  0.17911
       8     H     0.42757  0.42757  0.00000  0.14485
       9     C     3.21220  3.21220  0.00000 -0.42440
      10     H     0.40668  0.40668  0.00000  0.18665
      11     H     0.42188  0.42188  0.00000  0.15624
      12     C     2.73259  2.73259  0.00000  0.53483
      13     H     0.40352  0.40352  0.00000  0.19296
      14     H     0.41256  0.41256  0.00000  0.17489
      15     C     3.20397  3.20397  0.00000 -0.40793
      16     O     4.26627  4.26627  0.00000 -0.53255
      17     C     3.16560  3.16560  0.00000 -0.33119
      18     H     0.39938  0.39938  0.00000  0.20125
      19     H     0.41015  0.41015  0.00000  0.17969
      20     C     3.15321  3.15321  0.00000 -0.30641
      21     H     0.41861  0.41861  0.00000  0.16278
      22     H     0.41477  0.41477  0.00000  0.17046
      23     C     3.24025  3.24025  0.00000 -0.48050
      24     H     0.41565  0.41565  0.00000  0.16871
      25     H     0.41855  0.41855  0.00000  0.16290
      26     H     0.42199  0.42199  0.00000  0.15602
      27     H     0.42134  0.42134  0.00000  0.15733
      28     H     0.41639  0.41639  0.00000  0.16722

   Total alpha = 40.00000, Total beta = 40.00000, Total charge = -0.00000
