  ==> Input File <==

--------------------------------------------------------------------------
set {
	reference rhf
	basis 6-31G*
}

set_num_threads( 4 )
memory 2 gb

molecule MOL {
0 1

H	 -2.257910	 1.248298	 1.150423
C	 -2.434107	 0.275482	 0.707783
C	 -1.172951	 -0.579344	 0.746755
H	 -2.763800	 0.435153	 -0.311574
H	 -3.235730	 -0.209542	 1.254982
C	 -0.000005	 0.033229	 -0.000001
H	 -1.361270	 -1.564469	 0.324309
H	 -0.859823	 -0.758528	 1.773517
C	 1.290528	 -0.768786	 0.000276
O	 -0.087507	 1.085236	 -0.555707
C	 2.545731	 0.095645	 -0.000061
H	 1.275672	 -1.427874	 -0.865626
H	 1.275566	 -1.427086	 0.866768
H	 2.577157	 0.734767	 -0.874036
H	 3.433520	 -0.528139	 0.000137
H	 2.577172	 0.735117	 0.873581

	symmetry c1
}
set optking {
	frozen_dihedral = ("
		3 6 9 12
	")
}

ee = optimize('scf')
oeprop('DIPOLE', 'QUADRUPOLE', 'MULLIKEN_CHARGES')
f=open( 'psi4out.xyz', 'w' )
f.write( "16  " )
f.write( str(ee) + "\n" )
f.write( MOL.save_string_xyz() )
f.close()
--------------------------------------------------------------------------

    Molecular point group: c1
  Charge       = 0
  Multiplicity = 1
  Basis Set: 6-31G*
  Basis Set:
  @DF-RHF Final Energy:  -270.03217251805188
    Total Energy =                       -270.0321725180517092
    Molecular point group: c1
  Basis Set: 6-31G*
  Basis Set:
  Basis Set: 6-31G*
  Basis Set:
  @DF-RHF Final Energy:  -270.03251620096484
    Total Energy =                       -270.0325162009646647
  Basis Set: 6-31G*
  Basis Set:
  Basis Set: 6-31G*
  Basis Set:
  @DF-RHF Final Energy:  -270.03100867446437
    Total Energy =                       -270.0310086744643172
  Basis Set: 6-31G*
  Basis Set:
  Basis Set: 6-31G*
  Basis Set:
  @DF-RHF Final Energy:  -270.03261114617783
    Total Energy =                       -270.0326111461777145
  Basis Set: 6-31G*
  Basis Set:
  Basis Set: 6-31G*
  Basis Set:
  @DF-RHF Final Energy:  -270.03263289034533
    Total Energy =                       -270.0326328903449848
  Basis Set: 6-31G*
  Basis Set:
  Charge       = 0
  Multiplicity = 1
  Basis Set: 6-31G*
  Basis Set:

    Orbital Energies (a.u.)
    -----------------------

    Doubly Occupied:

       1A    -20.549824     2A    -11.323961     3A    -11.234344
       4A    -11.233546     5A    -11.215908     6A    -11.213584
       7A     -1.395720     8A     -1.068311     9A     -1.036481
      10A     -0.915350    11A     -0.847459    12A     -0.724820
      13A     -0.667020    14A     -0.644161    15A     -0.620978
      16A     -0.605325    17A     -0.561069    18A     -0.531313
      19A     -0.525219    20A     -0.510916    21A     -0.502050
      22A     -0.495682    23A     -0.480163    24A     -0.397974

  @DF-RHF Final Energy:  -270.03263350885373

   => Energetics <=

    Nuclear Repulsion Energy =            239.9239677536045861
    One-Electron Energy =                -841.3108424706302912
    Two-Electron Energy =                 331.3542412081720840
    DFT Exchange-Correlation Energy =       0.0000000000000000
    Empirical Dispersion Energy =           0.0000000000000000
    PCM Polarization Energy =               0.0000000000000000
    EFP Energy =                            0.0000000000000000
    Total Energy =                       -270.0326335088535643
    Molecular point group: c1
  Basis Set: 6-31G*
  Basis Set:

  -Total Gradient:
     Atom            X                  Y                   Z
    ------   -----------------  -----------------  -----------------
       1        0.000012897119    -0.000012596479     0.000002864440
       2       -0.000017747547    -0.000018986988    -0.000044378242
       3        0.000340637706     0.000451091900     0.000946229097
       4       -0.000008460292     0.000009697090     0.000002006402
       5       -0.000001907908    -0.000000888875     0.000001539987
       6       -0.000335751247    -0.000416998950    -0.001427651658
       7       -0.000000004838     0.000025086620    -0.000010949978
       8       -0.000002679788    -0.000022029494     0.000009147561
       9       -0.000578633611    -0.000978037646     0.001195292703
      10       -0.000005100972     0.000004687300     0.000001670568
      11        0.000004844230     0.000018143754    -0.000001321278
      12        0.000615833557     0.000960946344    -0.000657317192
      13       -0.000007430943    -0.000002143574    -0.000006676762
      14        0.000001398124     0.000009336804    -0.000002244306
      15       -0.000003363144    -0.000013672425     0.000001072775
      16       -0.000014530445    -0.000013635381    -0.000009284117

  **** Optimization is complete! (in 6 steps) ****
    Final optimized geometry and variables:
    Molecular point group: c1

    Geometry (in Angstrom), charge = 0, multiplicity = 1:

    H           -2.357572103714     1.202196963357     0.881839040757
    C           -2.487108276475     0.203619411724     0.483724677246
    C           -1.201602525442    -0.604204219676     0.610866207911
    H           -2.783892355609     0.301179992889    -0.553919879329
    H           -3.293310944715    -0.280353184373     1.025087370709
    C           -0.016746940576     0.013841994793    -0.107135960492
    H           -1.336706009135    -1.617106612231     0.235727818391
    H           -0.918749491959    -0.718266751373     1.656383285705
    C            1.253768308140    -0.820093982391    -0.166271586363
    O           -0.073920765196     1.096271202158    -0.606091193220
    C            2.524643266852     0.025864418619    -0.199053410570
    H            1.188846590126    -1.415159099087    -1.076286908762
    H            1.272929831047    -1.524162245216     0.660103779176
    H            2.503584747009     0.715295085037    -1.032492708619
    H            3.399612611698    -0.608183221209    -0.295648494169
    H            2.629784526502     0.607575321857     0.710719293597

  Mulliken Charges: (a.u.)
   Center  Symbol    Alpha    Beta     Spin     Total
       1     H     0.40866  0.40866  0.00000  0.18269
       2     C     3.23541  3.23541  0.00000 -0.47083
       3     C     3.20761  3.20761  0.00000 -0.41522
       4     H     0.41231  0.41231  0.00000  0.17539
       5     H     0.41994  0.41994  0.00000  0.16012
       6     C     2.73303  2.73303  0.00000  0.53394
       7     H     0.41002  0.41002  0.00000  0.17996
       8     H     0.40749  0.40749  0.00000  0.18502
       9     C     3.20455  3.20455  0.00000 -0.40911
      10     O     4.26615  4.26615  0.00000 -0.53231
      11     C     3.23893  3.23893  0.00000 -0.47785
      12     H     0.40418  0.40418  0.00000  0.19164
      13     H     0.41316  0.41316  0.00000  0.17367
      14     H     0.40298  0.40298  0.00000  0.19404
      15     H     0.41855  0.41855  0.00000  0.16290
      16     H     0.41702  0.41702  0.00000  0.16596

   Total alpha = 24.00000, Total beta = 24.00000, Total charge =  0.00000
