  ==> Input File <==

--------------------------------------------------------------------------
set {
	reference rhf
	basis cc-pvtz
}

set_num_threads( 4 )
memory 2 gb

molecule MOL {
0 1

H	 2.312956	 -5.347707	 -2.091277
C	 2.218769	 -4.368071	 -1.665181
C	 1.033656	 -3.973763	 -1.060317
C	 3.269807	 -3.481913	 -1.708961
H	 0.202496	 -4.651848	 -1.016652
C	 0.908654	 -2.719575	 -0.513134
H	 4.194603	 -3.768919	 -2.172716
C	 3.160563	 -2.211314	 -1.161190
H	 -0.002548	 -2.405110	 -0.043569
C	 1.975337	 -1.828193	 -0.560742
H	 3.996771	 -1.545218	 -1.211541
O	 1.760432	 -0.625184	 0.000000
C	 2.773565	 0.334879	 0.000000
H	 2.728295	 0.960928	 -0.884150
H	 3.706387	 -0.206610	 0.000000
H	 2.728295	 0.960928	 0.884150

	symmetry c1
}
set optking {
	frozen_dihedral = ("
		10 12 13 14
	")
}

ee = optimize('scf')
oeprop('DIPOLE', 'QUADRUPOLE', 'MULLIKEN_CHARGES')
f=open( 'psi4out.xyz', 'w' )
f.write( "16  " )
f.write( str(ee) + "\n" )
f.write( MOL.save_string_xyz() )
f.close()
--------------------------------------------------------------------------

    Molecular point group: c1
  Charge       = 0
  Multiplicity = 1
  Basis Set: CC-PVTZ
  Basis Set:
  @DF-RHF Final Energy:  -344.69744025890964
    Total Energy =                       -344.6974402589097508
    Molecular point group: c1
  Basis Set: CC-PVTZ
  Basis Set:
  Basis Set: CC-PVTZ
  Basis Set:
  @DF-RHF Final Energy:  -344.69903014620036
    Total Energy =                       -344.6990301462005277
  Basis Set: CC-PVTZ
  Basis Set:
  Basis Set: CC-PVTZ
  Basis Set:
  @DF-RHF Final Energy:  -344.70165776351826
    Total Energy =                       -344.7016577635187105
  Basis Set: CC-PVTZ
  Basis Set:
  Basis Set: CC-PVTZ
  Basis Set:
  @DF-RHF Final Energy:  -344.70195862065754
    Total Energy =                       -344.7019586206577060
  Basis Set: CC-PVTZ
  Basis Set:
  Basis Set: CC-PVTZ
  Basis Set:
  @DF-RHF Final Energy:  -344.70202771797989
    Total Energy =                       -344.7020277179799450
  Basis Set: CC-PVTZ
  Basis Set:
  Basis Set: CC-PVTZ
  Basis Set:
  @DF-RHF Final Energy:  -344.70203169227523
    Total Energy =                       -344.7020316922749998
  Basis Set: CC-PVTZ
  Basis Set:
  Charge       = 0
  Multiplicity = 1
  Basis Set: CC-PVTZ
  Basis Set:

    Orbital Energies (a.u.)
    -----------------------

    Doubly Occupied:

       1A    -20.577917     2A    -11.293055     3A    -11.277946
       4A    -11.231333     5A    -11.230017     6A    -11.222034
       7A    -11.218125     8A    -11.217391     9A     -1.416985
      10A     -1.151007    11A     -1.025082    12A     -1.016814
      13A     -0.943363    14A     -0.835048    15A     -0.808386
      16A     -0.724837    17A     -0.667303    18A     -0.666602
      19A     -0.658565    20A     -0.618480    21A     -0.590859
      22A     -0.581019    23A     -0.529020    24A     -0.521240
      25A     -0.511886    26A     -0.481795    27A     -0.462337
      28A     -0.339633    29A     -0.310903

  @DF-RHF Final Energy:  -344.70203242635279

   => Energetics <=

    Nuclear Repulsion Energy =            348.6761587557428470
    One-Electron Energy =               -1158.4984148895514409
    Two-Electron Energy =                 465.1202237074558070
    DFT Exchange-Correlation Energy =       0.0000000000000000
    Empirical Dispersion Energy =           0.0000000000000000
    PCM Polarization Energy =               0.0000000000000000
    EFP Energy =                            0.0000000000000000
    Total Energy =                       -344.7020324263528437
    Molecular point group: c1
  Basis Set: CC-PVTZ
  Basis Set:

  -Total Gradient:
     Atom            X                  Y                   Z
    ------   -----------------  -----------------  -----------------
       1       -0.000012797348    -0.000003502103    -0.000000853949
       2        0.000163597269     0.000044057350    -0.000059791588
       3       -0.000098835196     0.000110540111     0.000093540846
       4       -0.000062080830    -0.000153033958    -0.000010054538
       5        0.000008388035    -0.000006499859    -0.000006571695
       6       -0.000044354821    -0.000147593581    -0.000017643791
       7        0.000003755210     0.000011994020    -0.000000005413
       8       -0.000099131849     0.000089496488     0.000066931569
       9        0.000001666559     0.000013244544     0.000004898024
      10        0.000208551559    -0.000901423762     0.002433543699
      11        0.000011802806    -0.000000196782     0.000001386563
      12       -0.000713296600     0.001993149740    -0.003505982959
      13        0.002601555714    -0.003259835595     0.000138644930
      14       -0.001973743791     0.002203823827     0.000877789146
      15        0.000016781114     0.000017131249    -0.000006878052
      16       -0.000011857832    -0.000011351685    -0.000008952792

  **** Optimization is complete! (in 7 steps) ****
    Final optimized geometry and variables:
    Molecular point group: c1

    Geometry (in Angstrom), charge = 0, multiplicity = 1:

    H            0.185278115411    -3.137656590167    -1.140780094272
    C            0.080893520684    -2.134290869657    -0.776654712424
    C           -1.086561570074    -1.733059462998    -0.145076021845
    C            1.101798893105    -1.223848623914    -0.931746167375
    H           -1.893307396452    -2.429670219323    -0.016931230732
    C           -1.223863587193    -0.448335487738     0.326664165229
    H            2.010046739238    -1.514680934828    -1.424865423315
    C            0.976769093516     0.076270586550    -0.466191978274
    H           -2.121369980912    -0.128487429475     0.818432066556
    C           -0.187854476981     0.464182549703     0.171146437655
    H            1.779287207545     0.769855434821    -0.614985192162
    O           -0.412852980586     1.706343613811     0.637832748450
    C            0.659619423235     2.559813549701     0.918056086499
    H            0.927640843304     3.148648717966     0.047803257922
    H            1.523143105372     2.018483016650     1.280758477457
    H            0.321831691976     3.236539902490     1.689117403457

  Mulliken Charges: (a.u.)
   Center  Symbol    Alpha    Beta     Spin     Total
       1     H     0.42436  0.42436  0.00000  0.15127
       2     C     3.09974  3.09974  0.00000 -0.19949
       3     C     3.05883  3.05883  0.00000 -0.11765
       4     C     3.06275  3.06275  0.00000 -0.12549
       5     H     0.42293  0.42293  0.00000  0.15415
       6     C     3.11012  3.11012  0.00000 -0.22024
       7     H     0.42319  0.42319  0.00000  0.15362
       8     C     3.13790  3.13790  0.00000 -0.27580
       9     H     0.42024  0.42024  0.00000  0.15953
      10     C     2.85446  2.85446  0.00000  0.29108
      11     H     0.42298  0.42298  0.00000  0.15404
      12     O     4.15553  4.15553  0.00000 -0.31107
      13     C     3.04298  3.04298  0.00000 -0.08596
      14     H     0.45858  0.45858  0.00000  0.08285
      15     H     0.46337  0.46337  0.00000  0.07326
      16     H     0.44206  0.44206  0.00000  0.11589

   Total alpha = 29.00000, Total beta = 29.00000, Total charge = -0.00000
