                              Psi4 1.0.54 Driver

  ==> Input File <==

--------------------------------------------------------------------------
set {
	reference rhf
	basis cc-pvtz
}

set_num_threads( 4 )
memory 2 gb

molecule MOL {
0 1

H	 -2.816458	 -0.841657	 -0.064679
N	 -1.878861	 -0.711874	 0.250184
C	 -1.341419	 0.551458	 -0.220231
H	 -1.333674	 -1.468530	 -0.105118
C	 0.082190	 0.731516	 0.254705
H	 -1.357065	 0.652078	 -1.304747
H	 -1.939897	 1.357530	 0.189797
O	 0.372093	 2.095890	 0.301044
H	 0.200567	 0.290194	 1.243337
H	 0.761803	 0.226271	 -0.427776
C	 1.680298	 2.395055	 0.659259
H	 1.785890	 3.470325	 0.664636
H	 1.917638	 2.016006	 1.651069
H	 2.392175	 1.976425	 -0.048231

	symmetry c1
}
set optking {
	frozen_dihedral = ("
		8 5 3 6
	")
}

ee,wfn = optimize('scf', return_wfn=True)
oeprop( wfn, 'DIPOLE', 'QUADRUPOLE', 'MULLIKEN_CHARGES')
f=open( 'psi4out.xyz', 'w' )
f.write( "14  " )
f.write( str(ee) + "\n" )
f.write( MOL.save_string_xyz() )
f.close()
--------------------------------------------------------------------------

    Molecular point group: c1
  Charge       = 0
  Multiplicity = 1
  Basis Set: CC-PVTZ
  Basis Set:
  @DF-RHF Final Energy:  -248.22183470964723
    Total Energy =                       -248.2218347096472257
    Molecular point group: c1
  Basis Set: CC-PVTZ
  Basis Set:
  Basis Set: CC-PVTZ
  Basis Set:
  @DF-RHF Final Energy:  -248.22219625968592
    Total Energy =                       -248.2221962596859157
  Basis Set: CC-PVTZ
  Basis Set:
  Basis Set: CC-PVTZ
  Basis Set:
  @DF-RHF Final Energy:  -248.22225981365622
    Total Energy =                       -248.2222598136562510
  Basis Set: CC-PVTZ
  Basis Set:
  Basis Set: CC-PVTZ
  Basis Set:
  @DF-RHF Final Energy:  -248.22227361730759
    Total Energy =                       -248.2222736173076783
  Basis Set: CC-PVTZ
  Basis Set:
  Basis Set: CC-PVTZ
  Basis Set:
  @DF-RHF Final Energy:  -248.22227622959207
    Total Energy =                       -248.2222762295920120
  Basis Set: CC-PVTZ
  Basis Set:
  Charge       = 0
  Multiplicity = 1
  Basis Set: CC-PVTZ
  Basis Set:

    Orbital Energies (a.u.)
    -----------------------

    Doubly Occupied:

       1A    -20.548609     2A    -15.531826     3A    -11.262397
       4A    -11.261927     5A    -11.239994     6A     -1.382580
       7A     -1.181434     8A     -0.999461     9A     -0.900022
      10A     -0.823854    11A     -0.682351    12A     -0.672480
      13A     -0.648098    14A     -0.622825    15A     -0.603901
      16A     -0.550482    17A     -0.519936    18A     -0.500019
      19A     -0.470424    20A     -0.416792    21A     -0.390375

  @DF-RHF Final Energy:  -248.22227647183803

   => Energetics <=

    Nuclear Repulsion Energy =            190.9646162997159990
    One-Electron Energy =                -715.9542147338053155
    Two-Electron Energy =                 276.7673219622514580
    DFT Exchange-Correlation Energy =       0.0000000000000000
    Empirical Dispersion Energy =           0.0000000000000000
    PCM Polarization Energy =               0.0000000000000000
    EFP Energy =                            0.0000000000000000
    Total Energy =                       -248.2222764718378585
    Molecular point group: c1
  Basis Set: CC-PVTZ
  Basis Set:

  -Total Gradient:
     Atom            X                  Y                   Z
    ------   -----------------  -----------------  -----------------
       1       -0.000002152653    -0.000002029214    -0.000002199002
       2       -0.000040161917    -0.000061049877     0.000021745484
       3       -0.001170308357     0.005820158660     0.001436993619
       4        0.000003005111     0.000003288306    -0.000001099599
       5        0.001674448874    -0.001321763927    -0.004547120430
       6        0.000697710992    -0.004619937851    -0.000351943417
       7       -0.000010335276    -0.000004514507    -0.000000617012
       8       -0.001168669817     0.000179839791     0.003447465993
       9        0.000004407880    -0.000005362598    -0.000001960289
      10       -0.000001960167    -0.000008498074    -0.000003692408
      11        0.000008724441     0.000021096417    -0.000000801511
      12        0.000007169650     0.000000359598     0.000001783900
      13       -0.000000703909    -0.000001286266    -0.000000893566
      14       -0.000001174847    -0.000000300454     0.000002338239

  **** Optimization is complete! (in 6 steps) ****
    Final optimized geometry and variables:
    Molecular point group: c1

    Geometry (in Angstrom), charge = 0, multiplicity = 1:

    H           -2.637403274526    -1.803607055201    -0.212689231018
    N           -1.666245203443    -1.725480300066     0.001698991646
    C           -1.137863027824    -0.450131766759    -0.465440853897
    H           -1.209393304785    -2.490894017590    -0.449300293869
    C            0.292593748859    -0.267892827484     0.013956286296
    H           -1.167909890527    -0.371720363568    -1.550305535356
    H           -1.737206372141     0.346594851279    -0.047825401580
    O            0.590132779560     1.092984752585     0.037517050015
    H            0.383041722371    -0.688807815211     1.012289429859
    H            0.989821347210    -0.799037148344    -0.634234958361
    C            1.890339997931     1.389239920873     0.424423707112
    H            2.000463899597     2.464001395454     0.422128476464
    H            2.102044948544     1.017633412586     1.424704478514
    H            2.618621940327     0.961757323762    -0.261587129005

  Mulliken Charges: (a.u.)
   Center  Symbol    Alpha    Beta     Spin     Total
       1     H     0.42855  0.42855  0.00000  0.14290
       2     N     3.69094  3.69094  0.00000 -0.38189
       3     C     3.03143  3.03143  0.00000 -0.06286
       4     H     0.43135  0.43135  0.00000  0.13729
       5     C     2.96075  2.96075  0.00000  0.07850
       6     H     0.46448  0.46448  0.00000  0.07104
       7     H     0.45080  0.45080  0.00000  0.09840
       8     O     4.17333  4.17333  0.00000 -0.34665
       9     H     0.46927  0.46927  0.00000  0.06145
      10     H     0.47770  0.47770  0.00000  0.04460
      11     C     3.03117  3.03117  0.00000 -0.06234
      12     H     0.44703  0.44703  0.00000  0.10595
      13     H     0.47124  0.47124  0.00000  0.05751
      14     H     0.47195  0.47195  0.00000  0.05609

   Total alpha = 21.00000, Total beta = 21.00000, Total charge = -0.00000

*** Psi4 exiting successfully. Buy a developer a beer!
