  ==> Input File <==

--------------------------------------------------------------------------
set {
	reference rhf
	basis 6-31G*
}

set_num_threads( 1 )
memory 2 gb

molecule MOL {
0 1

H	 1.147044	 0.506808	 -2.000100
C	 1.013217	 1.214499	 -1.173018
C	 0.692068	 0.589600	 0.160137
O	 1.123535	 2.382327	 -1.363116
C	 -0.558097	 -0.297372	 0.091132
H	 0.573661	 1.383758	 0.887992
H	 1.547608	 -0.015588	 0.457847
C	 -1.850991	 0.512573	 -0.019058
H	 -0.476753	 -0.965681	 -0.762987
H	 -0.604799	 -0.930658	 0.975228
C	 -3.096943	 -0.368295	 -0.099594
H	 -1.800724	 1.150330	 -0.898172
H	 -1.931651	 1.177355	 0.838044
H	 -3.060452	 -1.020287	 -0.967456
H	 -3.996858	 0.233488	 -0.175704
H	 -3.191959	 -0.995686	 0.782074

	symmetry c1
}
set optking {
	frozen_dihedral = ("
		9 5 8 12,
		4 2 3 6
	")
}

ee = energy('scf')
oeprop('DIPOLE', 'QUADRUPOLE', 'MULLIKEN_CHARGES')
f=open( 'psi4out.xyz', 'w' )
f.write( "16  " )
f.write( str(ee) + "\n" )
f.write( MOL.save_string_xyz() )
f.close()
--------------------------------------------------------------------------

    Molecular point group: c1

    Geometry (in Angstrom), charge = 0, multiplicity = 1:

       Center              X                  Y                   Z               Mass
    ------------   -----------------  -----------------  -----------------  -----------------
           H          1.606249653331    -0.172208683753    -1.591636747897     1.007825032070
           C          1.472422653331     0.535482316247    -0.764554747897    12.000000000000
           C          1.151273653331    -0.089416683753     0.568600252103    12.000000000000
           O          1.582740653331     1.703310316247    -0.954652747897    15.994914619560
           C         -0.098891346669    -0.976388683753     0.499595252103    12.000000000000
           H          1.032866653331     0.704741316247     1.296455252103     1.007825032070
           H          2.006813653331    -0.694604683753     0.866310252103     1.007825032070
           C         -1.391785346669    -0.166443683753     0.389405252103    12.000000000000
           H         -0.017547346669    -1.644697683753    -0.354523747897     1.007825032070
           H         -0.145593346669    -1.609674683753     1.383691252103     1.007825032070
           C         -2.637737346669    -1.047311683753     0.308869252103    12.000000000000
           H         -1.341518346669     0.471313316247    -0.489708747897     1.007825032070
           H         -1.472445346669     0.498338316247     1.246507252103     1.007825032070
           H         -2.601246346669    -1.699303683753    -0.558992747897     1.007825032070
           H         -3.537652346669    -0.445528683753     0.232759252103     1.007825032070
           H         -2.732753346669    -1.674702683753     1.190537252103     1.007825032070

  Charge       = 0
  Multiplicity = 1
  Basis Set: 6-31G*
  Basis Set:

    Orbital Energies (a.u.)
    -----------------------

    Doubly Occupied:

       1A    -20.563019     2A    -11.326904     3A    -11.235971
       4A    -11.235049     5A    -11.225911     6A    -11.216678
       7A     -1.402890     8A     -1.096437     9A     -1.016439
      10A     -0.904206    11A     -0.818236    12A     -0.790062
      13A     -0.666657    14A     -0.657332    15A     -0.613090
      16A     -0.610766    17A     -0.589717    18A     -0.544407
      19A     -0.524488    20A     -0.521744    21A     -0.487614
      22A     -0.480806    23A     -0.465989    24A     -0.410874

  @DF-RHF Final Energy:  -270.01926619213839

   => Energetics <=

    Nuclear Repulsion Energy =            233.6072582882339077
    One-Electron Energy =                -828.4424809905623306
    Two-Electron Energy =                 324.8159565101901194
    DFT Exchange-Correlation Energy =       0.0000000000000000
    Empirical Dispersion Energy =           0.0000000000000000
    PCM Polarization Energy =               0.0000000000000000
    EFP Energy =                            0.0000000000000000
    Total Energy =                       -270.0192661921383319

  Mulliken Charges: (a.u.)
   Center  Symbol    Alpha    Beta     Spin     Total
       1     H     0.43193  0.43193  0.00000  0.13614
       2     C     2.83173  2.83173  0.00000  0.33655
       3     C     3.20807  3.20807  0.00000 -0.41613
       4     O     4.23698  4.23698  0.00000 -0.47396
       5     C     3.16621  3.16621  0.00000 -0.33243
       6     H     0.39939  0.39939  0.00000  0.20122
       7     H     0.40694  0.40694  0.00000  0.18613
       8     C     3.15422  3.15422  0.00000 -0.30844
       9     H     0.41959  0.41959  0.00000  0.16083
      10     H     0.41320  0.41320  0.00000  0.17360
      11     C     3.24028  3.24028  0.00000 -0.48056
      12     H     0.41632  0.41632  0.00000  0.16737
      13     H     0.41769  0.41769  0.00000  0.16462
      14     H     0.42098  0.42098  0.00000  0.15804
      15     H     0.41572  0.41572  0.00000  0.16856
      16     H     0.42076  0.42076  0.00000  0.15847

   Total alpha = 24.00000, Total beta = 24.00000, Total charge =  0.00000
