  ==> Input File <==

--------------------------------------------------------------------------
set {
	reference rhf
	basis cc-pvtz
}

set_num_threads( 4 )
memory 2 gb

molecule MOL {
0 1

O	 -1.510770	 1.240811	 -0.054933
C	 -1.081510	 0.147522	 0.122720
C	 0.327029	 -0.064006	 0.641890
C	 -1.903028	 -1.084121	 -0.174656
C	 1.349460	 -0.017068	 -0.500215
H	 0.399029	 -1.014606	 1.159950
H	 0.538021	 0.726928	 1.350471
C	 2.194329	 1.251480	 -0.473298
H	 2.000861	 -0.884518	 -0.445034
H	 0.818989	 -0.086021	 -1.442645
H	 2.899470	 1.264658	 -1.295876
H	 2.759521	 1.328215	 0.449427
H	 1.571912	 2.135642	 -0.555307
H	 -1.341891	 -1.779207	 -0.789259
H	 -2.820449	 -0.808163	 -0.671328
H	 -2.133314	 -1.593056	 0.755831

	symmetry c1
}
set optking {
	frozen_dihedral = ("
		9 5 3 2
	")
}

ee = optimize('scf')
oeprop('DIPOLE', 'QUADRUPOLE', 'MULLIKEN_CHARGES')
f=open( 'psi4out.xyz', 'w' )
f.write( "16  " )
f.write( str(ee) + "\n" )
f.write( MOL.save_string_xyz() )
f.close()
--------------------------------------------------------------------------

    Molecular point group: c1
  Charge       = 0
  Multiplicity = 1
  Basis Set: CC-PVTZ
  Basis Set:
  @DF-RHF Final Energy:  -270.12413825103772
    Total Energy =                       -270.1241382510377207
    Molecular point group: c1
  Basis Set: CC-PVTZ
  Basis Set:
  Basis Set: CC-PVTZ
  Basis Set:
  @DF-RHF Final Energy:  -270.12429924746436
    Total Energy =                       -270.1242992474644780
  Basis Set: CC-PVTZ
  Basis Set:
  Basis Set: CC-PVTZ
  Basis Set:
  @DF-RHF Final Energy:  -270.12461767840529
    Total Energy =                       -270.1246176784054001
  Basis Set: CC-PVTZ
  Basis Set:
  Basis Set: CC-PVTZ
  Basis Set:
  @DF-RHF Final Energy:  -270.12469998021629
    Total Energy =                       -270.1246999802164055
  Basis Set: CC-PVTZ
  Basis Set:
  Basis Set: CC-PVTZ
  Basis Set:
  @DF-RHF Final Energy:  -270.12472414992430
    Total Energy =                       -270.1247241499241909
  Basis Set: CC-PVTZ
  Basis Set:
  Basis Set: CC-PVTZ
  Basis Set:
  @DF-RHF Final Energy:  -270.12473260895212
    Total Energy =                       -270.1247326089519447
  Basis Set: CC-PVTZ
  Basis Set:
  Basis Set: CC-PVTZ
  Basis Set:
  @DF-RHF Final Energy:  -270.12473494102170
    Total Energy =                       -270.1247349410214156
  Basis Set: CC-PVTZ
  Basis Set:
  Charge       = 0
  Multiplicity = 1
  Basis Set: CC-PVTZ
  Basis Set:

    Orbital Energies (a.u.)
    -----------------------

    Doubly Occupied:

       1A    -20.537180     2A    -11.319798     3A    -11.233380
       4A    -11.228261     5A    -11.227186     6A    -11.214096
       7A     -1.397059     8A     -1.081906     9A     -1.013084
      10A     -0.948885    11A     -0.832018    12A     -0.736414
      13A     -0.659785    14A     -0.645647    15A     -0.620549
      16A     -0.596780    17A     -0.583540    18A     -0.559502
      19A     -0.544631    20A     -0.513451    21A     -0.496410
      22A     -0.486785    23A     -0.474884    24A     -0.399771

  @DF-RHF Final Energy:  -270.12473533688063

   => Energetics <=

    Nuclear Repulsion Energy =            239.4107353251931158
    One-Electron Energy =                -840.3689367008551017
    Two-Electron Energy =                 330.8334660387811255
    DFT Exchange-Correlation Energy =       0.0000000000000000
    Empirical Dispersion Energy =           0.0000000000000000
    PCM Polarization Energy =               0.0000000000000000
    EFP Energy =                            0.0000000000000000
    Total Energy =                       -270.1247353368808035
    Molecular point group: c1
  Basis Set: CC-PVTZ
  Basis Set:

  -Total Gradient:
     Atom            X                  Y                   Z
    ------   -----------------  -----------------  -----------------
       1        0.000000289970    -0.000012493517     0.000002495062
       2       -0.000200056721    -0.001722954733    -0.000148952636
       3       -0.000088449320     0.002084160156    -0.000154340236
       4       -0.000016752839    -0.000016426431     0.000031887874
       5        0.001877379141     0.000943133127     0.001643335884
       6       -0.000019227515    -0.000004851272     0.000009381258
       7       -0.000008220766    -0.000003708457     0.000008403537
       8        0.000003814478    -0.000000574996    -0.000020615653
       9       -0.001569818303    -0.001269615207    -0.001352194321
      10        0.000013799194     0.000013028631     0.000000512661
      11        0.000004946754     0.000004534612    -0.000009228483
      12       -0.000004578374    -0.000008628436     0.000001072855
      13       -0.000002537615    -0.000005941515     0.000006307844
      14        0.000009393926     0.000000678770    -0.000007024889
      15        0.000000962475     0.000008252185     0.000001570482
      16       -0.000000944481    -0.000008592921    -0.000012611239

  **** Optimization is complete! (in 8 steps) ****
    Final optimized geometry and variables:
    Molecular point group: c1

    Geometry (in Angstrom), charge = 0, multiplicity = 1:

    O           -1.473898078906     0.990743571845     0.200083265469
    C           -0.979336364088    -0.088803135929     0.243942147993
    C            0.434677320734    -0.293638291227     0.744921928669
    C           -1.729025131130    -1.319402397657    -0.211567577674
    C            1.450178971414    -0.304227994525    -0.425703695029
    H            0.485269011631    -1.230347360370     1.287913771960
    H            0.662249729556     0.506094237419     1.435555738502
    C            2.289537928763     0.966194897502    -0.496583349894
    H            2.090455311331    -1.174136587330    -0.342830047295
    H            0.922571677613    -0.424982209658    -1.366848446054
    H            2.964189477001     0.938891933509    -1.344407634282
    H            2.885741320861     1.088528572673     0.400931915027
    H            1.656686877951     1.840028883825    -0.597437628845
    H           -1.111173308497    -1.939498473960    -0.850431399526
    H           -2.630982315068    -1.033375096975    -0.730478114543
    H           -1.988976198164    -1.913386988766     0.658942816426

  Mulliken Charges: (a.u.)
   Center  Symbol    Alpha    Beta     Spin     Total
       1     O     4.17719  4.17719  0.00000 -0.35437
       2     C     2.85793  2.85793  0.00000  0.28414
       3     C     3.10657  3.10657  0.00000 -0.21314
       4     C     3.15522  3.15522  0.00000 -0.31043
       5     C     3.08973  3.08973  0.00000 -0.17947
       6     H     0.44257  0.44257  0.00000  0.11486
       7     H     0.44019  0.44019  0.00000  0.11962
       8     C     3.14535  3.14535  0.00000 -0.29071
       9     H     0.44706  0.44706  0.00000  0.10588
      10     H     0.45460  0.45460  0.00000  0.09079
      11     H     0.44951  0.44951  0.00000  0.10098
      12     H     0.45433  0.45433  0.00000  0.09135
      13     H     0.44546  0.44546  0.00000  0.10908
      14     H     0.45040  0.45040  0.00000  0.09920
      15     H     0.43608  0.43608  0.00000  0.12785
      16     H     0.44782  0.44782  0.00000  0.10435

   Total alpha = 24.00000, Total beta = 24.00000, Total charge = -0.00000
