                              Psi4 1.0.54 Driver

  ==> Input File <==

--------------------------------------------------------------------------
set {
	reference rhf
	basis cc-pvtz
}

set_num_threads( 4 )
memory 2 gb

molecule MOL {
0 1

O	 0.305385	 0.900129	 1.457249
C	 0.316355	 -0.065415	 0.772084
C	 1.462524	 -1.038914	 0.660482
O	 -0.695554	 -0.422406	 0.000602
C	 2.653842	 -0.672600	 1.530854
H	 1.739395	 -1.089951	 -0.386747
H	 1.075941	 -2.020141	 0.912837
H	 3.046407	 0.299631	 1.264629
H	 3.442485	 -1.405118	 1.409165
H	 2.376934	 -0.639002	 2.576043
C	 -1.852370	 0.402254	 0.000718
C	 -3.063338	 -0.501097	 -0.000437
H	 -1.831732	 1.039442	 -0.872158
H	 -1.832493	 1.038301	 0.874430
H	 -3.071944	 -1.133732	 -0.879113
H	 -3.966302	 0.097976	 -0.000483
H	 -3.072764	 -1.134834	 0.877435

	symmetry c1
}
set optking {
	frozen_dihedral = ("
		2 4 11 13
	")
}

ee,wfn = optimize('scf', return_wfn=True)
oeprop( wfn, 'DIPOLE', 'QUADRUPOLE', 'MULLIKEN_CHARGES')
f=open( 'psi4out.xyz', 'w' )
f.write( "17  " )
f.write( str(ee) + "\n" )
f.write( MOL.save_string_xyz() )
f.close()
--------------------------------------------------------------------------

    Molecular point group: c1
  Charge       = 0
  Multiplicity = 1
  Basis Set: CC-PVTZ
  Basis Set:
  @DF-RHF Final Energy:  -345.03839235817838
    Total Energy =                       -345.0383923581784984
    Molecular point group: c1
  Basis Set: CC-PVTZ
  Basis Set:
  Basis Set: CC-PVTZ
  Basis Set:
  @DF-RHF Final Energy:  -345.03854625620960
    Total Energy =                       -345.0385462562094858
  Basis Set: CC-PVTZ
  Basis Set:
  Basis Set: CC-PVTZ
  Basis Set:
  @DF-RHF Final Energy:  -345.03888307060276
    Total Energy =                       -345.0388830706028784
  Basis Set: CC-PVTZ
  Basis Set:
  Basis Set: CC-PVTZ
  Basis Set:
  @DF-RHF Final Energy:  -345.03868979507786
    Total Energy =                       -345.0386897950775165
  Basis Set: CC-PVTZ
  Basis Set:
  Basis Set: CC-PVTZ
  Basis Set:
  @DF-RHF Final Energy:  -345.03894421434160
    Total Energy =                       -345.0389442143416545
  Basis Set: CC-PVTZ
  Basis Set:
  Charge       = 0
  Multiplicity = 1
  Basis Set: CC-PVTZ
  Basis Set:

    Orbital Energies (a.u.)
    -----------------------

    Doubly Occupied:

       1A    -20.592613     2A    -20.532366     3A    -11.364646
       4A    -11.281571     5A    -11.235438     6A    -11.220207
       7A    -11.213447     8A     -1.468403     9A     -1.365341
      10A     -1.070528    11A     -1.031946    12A     -0.913160
      13A     -0.849158    14A     -0.772175    15A     -0.702250
      16A     -0.687134    17A     -0.665392    18A     -0.629159
      19A     -0.591777    20A     -0.571190    21A     -0.557179
      22A     -0.529286    23A     -0.520824    24A     -0.515742
      25A     -0.500057    26A     -0.494592    27A     -0.452842
      28A     -0.438941

  @DF-RHF Final Energy:  -345.03894478925901

   => Energetics <=

    Nuclear Repulsion Energy =            315.3651704728197842
    One-Electron Energy =               -1095.2735044120609018
    Two-Electron Energy =                 434.8693891499819983
    DFT Exchange-Correlation Energy =       0.0000000000000000
    Empirical Dispersion Energy =           0.0000000000000000
    PCM Polarization Energy =               0.0000000000000000
    EFP Energy =                            0.0000000000000000
    Total Energy =                       -345.0389447892591761
    Molecular point group: c1
  Basis Set: CC-PVTZ
  Basis Set:

  -Total Gradient:
     Atom            X                  Y                   Z
    ------   -----------------  -----------------  -----------------
       1       -0.000019013563     0.000023968008     0.000000051942
       2       -0.000450723561    -0.000586926147     0.000830357774
       3       -0.000015013437    -0.000006875030    -0.000009035985
       4        0.000505481874     0.000665033042    -0.001393524753
       5       -0.000003876290     0.000011382542     0.000005257623
       6        0.000003710126    -0.000006875198    -0.000004314257
       7        0.000003870517    -0.000010266483    -0.000005846646
       8        0.000001343603    -0.000001200472     0.000001546843
       9       -0.000004315787    -0.000001659792    -0.000003196314
      10        0.000003495620     0.000000271004     0.000001189518
      11        0.000557981177     0.000790003232     0.001207933778
      12       -0.000009146311     0.000001738973    -0.000021537432
      13       -0.000572919367    -0.000897196425    -0.000619674114
      14        0.000005910922     0.000020434820     0.000012060310
      15       -0.000010002752    -0.000005063135     0.000000571842
      16       -0.000008529578    -0.000005158360    -0.000000510583
      17        0.000011746807     0.000008389423    -0.000001329547

  **** Optimization is complete! (in 6 steps) ****
    Final optimized geometry and variables:
    Molecular point group: c1

    Geometry (in Angstrom), charge = 0, multiplicity = 1:

    O            0.510007913617     1.123011456778     0.800385272343
    C            0.466429692178     0.140808021482     0.141195976339
    C            1.575420452364    -0.875804537825     0.031455694473
    O           -0.570055752327    -0.208370035450    -0.602369688658
    C            2.798973500660    -0.529330738549     0.864374828483
    H            1.825656104878    -0.964047361597    -1.019973861224
    H            1.160807424299    -1.835733350859     0.318579969312
    H            3.219059255144     0.420882108639     0.563053607681
    H            3.558288845727    -1.292561849846     0.744688055841
    H            2.548343134155    -0.458439071208     1.914314529356
    C           -1.734979970691     0.607108703764    -0.617540599996
    C           -2.950718205886    -0.293016336558    -0.628830895293
    H           -1.700291382110     1.210897091630    -1.515187363937
    H           -1.729206167265     1.260290249547     0.238604624250
    H           -2.929694678119    -0.961058502841    -1.480644028840
    H           -3.850873075123     0.307981384415    -0.687137313899
    H           -2.996139065018    -0.889949776325     0.273685775116

  Mulliken Charges: (a.u.)
   Center  Symbol    Alpha    Beta     Spin     Total
       1     O     4.19798  4.19798  0.00000 -0.39596
       2     C     2.80275  2.80275  0.00000  0.39449
       3     C     3.09531  3.09531  0.00000 -0.19061
       4     O     4.15502  4.15502  0.00000 -0.31004
       5     C     3.14015  3.14015  0.00000 -0.28031
       6     H     0.44146  0.44146  0.00000  0.11707
       7     H     0.44212  0.44212  0.00000  0.11576
       8     H     0.44839  0.44839  0.00000  0.10323
       9     H     0.45065  0.45065  0.00000  0.09870
      10     H     0.44863  0.44863  0.00000  0.10275
      11     C     2.98851  2.98851  0.00000  0.02298
      12     C     3.13329  3.13329  0.00000 -0.26657
      13     H     0.45511  0.45511  0.00000  0.08978
      14     H     0.44273  0.44273  0.00000  0.11453
      15     H     0.45141  0.45141  0.00000  0.09717
      16     H     0.45442  0.45442  0.00000  0.09117
      17     H     0.45207  0.45207  0.00000  0.09586

   Total alpha = 28.00000, Total beta = 28.00000, Total charge =  0.00000

*** Psi4 exiting successfully. Buy a developer a beer!
