                              Psi4 1.0.54 Driver

  ==> Input File <==

--------------------------------------------------------------------------
set {
	reference rhf
	basis cc-pvtz
}

set_num_threads( 4 )
memory 2 gb

molecule MOL {
0 1

O	 3.219313	 0.959291	 -0.614106
C	 2.698710	 0.058177	 -0.050237
C	 1.246364	 -0.005813	 0.348416
O	 3.344101	 -1.038700	 0.312317
C	 0.453207	 1.232821	 -0.049003
H	 0.839270	 -0.907818	 -0.092281
H	 1.216683	 -0.160521	 1.422434
C	 -0.998367	 1.217982	 0.432195
H	 0.481498	 1.345443	 -1.127236
H	 0.951413	 2.105557	 0.354893
C	 -1.882951	 0.151251	 -0.211235
H	 -1.429490	 2.193659	 0.228843
H	 -1.019755	 1.099323	 1.513279
C	 -3.342450	 0.243269	 0.226009
H	 -1.826223	 0.246578	 -1.293162
H	 -1.508033	 -0.839650	 0.027695
C	 -4.234517	 -0.821434	 -0.405970
H	 -3.730149	 1.228245	 -0.022691
H	 -3.398860	 0.159952	 1.308941
C	 -3.790014	 -1.220627	 -1.809123
H	 -4.248554	 -1.701688	 0.230957
H	 -5.257541	 -0.456873	 -0.443048
H	 -4.443758	 -1.976821	 -2.228377
H	 -2.782334	 -1.622649	 -1.800793
H	 -3.798347	 -0.367783	 -2.479791
C	 4.720529	 -1.114346	 0.001449
H	 4.874321	 -1.055557	 -1.065852
H	 5.057824	 -2.067950	 0.373977
H	 5.264321	 -0.313596	 0.480350

	symmetry c1
}
set optking {
	frozen_dihedral = ("
		21 17 14 11
	")
}

ee,wfn = optimize('scf', return_wfn=True)
oeprop( wfn, 'DIPOLE', 'QUADRUPOLE', 'MULLIKEN_CHARGES')
f=open( 'psi4out.xyz', 'w' )
f.write( "29  " )
f.write( str(ee) + "\n" )
f.write( MOL.save_string_xyz() )
f.close()
--------------------------------------------------------------------------

    Molecular point group: c1
  Charge       = 0
  Multiplicity = 1
  Basis Set: CC-PVTZ
  Basis Set:
  @DF-RHF Final Energy:  -501.21712178821565
    Total Energy =                       -501.2171217882156498
    Molecular point group: c1
  Basis Set: CC-PVTZ
  Basis Set:
  Basis Set: CC-PVTZ
  Basis Set:
  @DF-RHF Final Energy:  -501.21605307650555
    Total Energy =                       -501.2160530765052044
  Basis Set: CC-PVTZ
  Basis Set:
  Basis Set: CC-PVTZ
  Basis Set:
  @DF-RHF Final Energy:  -501.21948823138030
    Total Energy =                       -501.2194882313801827
  Basis Set: CC-PVTZ
  Basis Set:
  Basis Set: CC-PVTZ
  Basis Set:
  @DF-RHF Final Energy:  -501.21965233543472
    Total Energy =                       -501.2196523354346027
  Basis Set: CC-PVTZ
  Basis Set:
  @DF-RHF Final Energy:  -501.21941872581465
    Total Energy =                       -501.2194187258146485
  Basis Set: CC-PVTZ
  Basis Set:
  @DF-RHF Final Energy:  -501.21963805030441
    Total Energy =                       -501.2196380503045248
  Basis Set: CC-PVTZ
  Basis Set:
  Basis Set: CC-PVTZ
  Basis Set:
  @DF-RHF Final Energy:  -501.21966956329800
    Total Energy =                       -501.2196695632985666
  Basis Set: CC-PVTZ
  Basis Set:
  Basis Set: CC-PVTZ
  Basis Set:
  @DF-RHF Final Energy:  -501.21966795734704
    Total Energy =                       -501.2196679573473830
  Basis Set: CC-PVTZ
  Basis Set:
  Charge       = 0
  Multiplicity = 1
  Basis Set: CC-PVTZ
  Basis Set:

    Orbital Energies (a.u.)
    -----------------------

    Doubly Occupied:

       1A    -20.595930     2A    -20.533776     3A    -11.364185
       4A    -11.278202     5A    -11.232851     6A    -11.216862
       7A    -11.215239     8A    -11.214331     9A    -11.213206
      10A    -11.212595    11A    -11.207559    12A     -1.471809
      13A     -1.365395    14A     -1.098788    15A     -1.066288
      16A     -1.018745    17A     -0.976487    18A     -0.928950
      19A     -0.873875    20A     -0.804903    21A     -0.775624
      22A     -0.764981    23A     -0.702544    24A     -0.685371
      25A     -0.675959    26A     -0.647880    27A     -0.627071
      28A     -0.606102    29A     -0.602634    30A     -0.587291
      31A     -0.559418    32A     -0.551524    33A     -0.542450
      34A     -0.526965    35A     -0.520399    36A     -0.505588
      37A     -0.503153    38A     -0.478603    39A     -0.472816
      40A     -0.461105    41A     -0.457944    42A     -0.448638
      43A     -0.444321    44A     -0.437777

  @DF-RHF Final Energy:  -501.21967130111909

   => Energetics <=

    Nuclear Repulsion Energy =            618.2925366233251907
    One-Electron Energy =               -1908.0721433938506379
    Two-Electron Energy =                 788.5599354694068097
    DFT Exchange-Correlation Energy =       0.0000000000000000
    Empirical Dispersion Energy =           0.0000000000000000
    PCM Polarization Energy =               0.0000000000000000
    EFP Energy =                            0.0000000000000000
    Total Energy =                       -501.2196713011185238
    Molecular point group: c1
  Basis Set: CC-PVTZ
  Basis Set:

  -Total Gradient:
     Atom            X                  Y                   Z
    ------   -----------------  -----------------  -----------------
       1        0.000017019655     0.000010898073    -0.000008208570
       2       -0.000025580341     0.000004054948     0.000006630520
       3        0.000000803695    -0.000000261032    -0.000005690906
       4        0.000012647495    -0.000014371671     0.000003915229
       5       -0.000007396913    -0.000005425349     0.000007681098
       6       -0.000002940154    -0.000006971329    -0.000001982285
       7        0.000000403449     0.000000472625     0.000007947666
       8       -0.000004084854    -0.000000367667     0.000000047092
       9        0.000000166941     0.000001040767    -0.000013558104
      10        0.000007315926     0.000011114513     0.000005119785
      11       -0.000839633701     0.002614568804    -0.003491631772
      12       -0.000002730127     0.000002271158     0.000000738651
      13        0.000001157236    -0.000000159919     0.000001543813
      14        0.000144396687    -0.003170309432     0.005724837372
      15        0.000003781764     0.000000156096    -0.000001858399
      16       -0.000001341389    -0.000000177707     0.000000935448
      17        0.005190292249    -0.001968412685    -0.005198828795
      18       -0.000001361663     0.000003169363    -0.000002875767
      19       -0.000000413180     0.000003804943     0.000009202326
      20       -0.000006053951    -0.000012439770    -0.000014488442
      21       -0.004497748942     0.002523138333     0.002973717965
      22        0.000002137757     0.000000571915     0.000002922267
      23        0.000003566611     0.000000679376     0.000003326216
      24        0.000003398608    -0.000001454023    -0.000001575377
      25       -0.000001805841     0.000005331347    -0.000005497792
      26       -0.000007888620     0.000001082562    -0.000004118906
      27        0.000002192269     0.000000239942    -0.000007722747
      28        0.000005258407    -0.000009664697     0.000003702556
      29        0.000004440929     0.000007420518     0.000005769856

  **** Optimization is complete! (in 9 steps) ****
    Final optimized geometry and variables:
    Molecular point group: c1

    Geometry (in Angstrom), charge = 0, multiplicity = 1:

    O            3.072998028158     1.005012214886    -0.438834592747
    C            2.549680640386     0.092412110160     0.103678558456
    C            1.098371049433     0.025394678947     0.505714993531
    O            3.190828817059    -1.016737180466     0.435292477612
    C            0.310316066189     1.278359421938     0.144662138084
    H            0.684859760833    -0.862228407727     0.042278628204
    H            1.071413321841    -0.158216177906     1.575247295418
    C           -1.139603218377     1.257890034071     0.630560380883
    H            0.335598279433     1.419883747389    -0.930269875307
    H            0.814469669052     2.137399910348     0.570120289159
    C           -2.031812864713     0.212548206773    -0.038039202453
    H           -1.566634916010     2.240744139294     0.454044330394
    H           -1.157774098517     1.111738805909     1.708242004362
    C           -3.490873394110     0.331009042191     0.401022182248
    H           -1.963058942097     0.328434715642    -1.114637804563
    H           -1.666442035090    -0.785794463754     0.187601362144
    C           -4.455578541378    -0.727785909878    -0.160224982219
    H           -3.844217839815     1.314807506798     0.101562368853
    H           -3.546052771336     0.312357673730     1.484982276256
    C           -4.202293387178    -1.185552391213    -1.592519100841
    H           -4.490595582906    -1.580768945041     0.511577189525
    H           -5.457722834471    -0.310842885528    -0.110806982365
    H           -4.984538208752    -1.863241617962    -1.914372166764
    H           -3.257533431832    -1.705155446946    -1.694636906072
    H           -4.193926920500    -0.345219585791    -2.279141577408
    C            4.565686663074    -1.091171370656     0.117258127302
    H            4.715809589189    -1.005525122844    -0.948763243021
    H            4.899622550265    -2.055765742777     0.463675423039
    H            5.115328436377    -0.305778521180     0.614601910512

  Mulliken Charges: (a.u.)
   Center  Symbol    Alpha    Beta     Spin     Total
       1     O     4.19698  4.19698  0.00000 -0.39397
       2     C     2.80496  2.80496  0.00000  0.39009
       3     C     3.10140  3.10140  0.00000 -0.20280
       4     O     4.14724  4.14724  0.00000 -0.29449
       5     C     3.09231  3.09231  0.00000 -0.18463
       6     H     0.43919  0.43919  0.00000  0.12163
       7     H     0.43989  0.43989  0.00000  0.12023
       8     C     3.10464  3.10464  0.00000 -0.20928
       9     H     0.44644  0.44644  0.00000  0.10712
      10     H     0.43968  0.43968  0.00000  0.12064
      11     C     3.09732  3.09732  0.00000 -0.19464
      12     H     0.44537  0.44537  0.00000  0.10925
      13     H     0.45299  0.45299  0.00000  0.09401
      14     C     3.09536  3.09536  0.00000 -0.19072
      15     H     0.44902  0.44902  0.00000  0.10197
      16     H     0.45282  0.45282  0.00000  0.09435
      17     C     3.08807  3.08807  0.00000 -0.17614
      18     H     0.45270  0.45270  0.00000  0.09460
      19     H     0.45019  0.45019  0.00000  0.09961
      20     C     3.15683  3.15683  0.00000 -0.31365
      21     H     0.45288  0.45288  0.00000  0.09423
      22     H     0.45143  0.45143  0.00000  0.09714
      23     H     0.44469  0.44469  0.00000  0.11062
      24     H     0.45251  0.45251  0.00000  0.09499
      25     H     0.45308  0.45308  0.00000  0.09384
      26     C     3.03813  3.03813  0.00000 -0.07625
      27     H     0.45436  0.45436  0.00000  0.09129
      28     H     0.44529  0.44529  0.00000  0.10942
      29     H     0.45423  0.45423  0.00000  0.09153

   Total alpha = 44.00000, Total beta = 44.00000, Total charge =  0.00000

*** Psi4 exiting successfully. Buy a developer a beer!
