                              Psi4 1.0.54 Driver

  ==> Input File <==

--------------------------------------------------------------------------
set {
	reference rhf
	basis cc-pvtz
}

set_num_threads( 4 )
memory 2 gb

molecule MOL {
0 1

H	 1.503347	 1.317586	 0.065988
C	 0.848385	 0.440008	 0.000011
C	 -0.623497	 0.751021	 0.000090
O	 1.313456	 -0.644814	 -0.064123
C	 -1.523725	 -0.474323	 -0.000013
H	 -0.813143	 1.382932	 -0.864897
H	 -0.813071	 1.382716	 0.865253
H	 -1.342980	 -1.087348	 -0.873016
H	 -2.565269	 -0.177464	 0.000070
H	 -1.342898	 -1.087564	 0.872820

	symmetry c1
}
set optking {
	frozen_dihedral = ("
		4 2 3 6
	")
}

ee,wfn = optimize('scf', return_wfn=True)
oeprop( wfn, 'DIPOLE', 'QUADRUPOLE', 'MULLIKEN_CHARGES')
f=open( 'psi4out.xyz', 'w' )
f.write( "10  " )
f.write( str(ee) + "\n" )
f.write( MOL.save_string_xyz() )
f.close()
--------------------------------------------------------------------------

    Molecular point group: c1
  Charge       = 0
  Multiplicity = 1
  Basis Set: CC-PVTZ
  Basis Set:
  @DF-RHF Final Energy:  -192.02481504645812
    Total Energy =                       -192.0248150464580021
    Molecular point group: c1
  Basis Set: CC-PVTZ
  Basis Set:
  Basis Set: CC-PVTZ
  Basis Set:
  @DF-RHF Final Energy:  -192.02471420429069
    Total Energy =                       -192.0247142042906319
  Basis Set: CC-PVTZ
  Basis Set:
  Basis Set: CC-PVTZ
  Basis Set:
  @DF-RHF Final Energy:  -192.02482314623916
    Total Energy =                       -192.0248231462391573
  Basis Set: CC-PVTZ
  Basis Set:
  Charge       = 0
  Multiplicity = 1
  Basis Set: CC-PVTZ
  Basis Set:

    Orbital Energies (a.u.)
    -----------------------

    Doubly Occupied:

       1A    -20.553732     2A    -11.323380     3A    -11.239786
       4A    -11.218026     5A     -1.409265     6A     -1.061882
       7A     -0.911668     8A     -0.774065     9A     -0.685914
      10A     -0.636960    11A     -0.634033    12A     -0.543719
      13A     -0.535535    14A     -0.520112    15A     -0.495724
      16A     -0.417053

  @DF-RHF Final Energy:  -192.02482492848367

   => Energetics <=

    Nuclear Repulsion Energy =            119.3818209035688511
    One-Electron Energy =                -496.8915829040047356
    Two-Electron Energy =                 185.4849370719522881
    DFT Exchange-Correlation Energy =       0.0000000000000000
    Empirical Dispersion Energy =           0.0000000000000000
    PCM Polarization Energy =               0.0000000000000000
    EFP Energy =                            0.0000000000000000
    Total Energy =                       -192.0248249284836106
    Molecular point group: c1
  Basis Set: CC-PVTZ
  Basis Set:

  -Total Gradient:
     Atom            X                  Y                   Z
    ------   -----------------  -----------------  -----------------
       1        0.000005237522     0.000016381353    -0.000008690882
       2       -0.000024682654    -0.000175228904     0.000603607008
       3        0.000095730107     0.000412821504     0.000042792316
       4       -0.000019970858     0.000086047696    -0.000439139483
       5       -0.000000244516     0.000002722048     0.000023862234
       6       -0.000053638614    -0.000319307570    -0.000226625651
       7        0.000002953711    -0.000012176789    -0.000001874313
       8        0.000003559283     0.000012912605     0.000004123593
       9        0.000000572737    -0.000004845713    -0.000002194204
      10       -0.000009516718    -0.000019326230     0.000004139381

  **** Optimization is complete! (in 4 steps) ****
    Final optimized geometry and variables:
    Molecular point group: c1

    Geometry (in Angstrom), charge = 0, multiplicity = 1:

    H            1.504205158992     1.317201915468     0.068617872571
    C            0.848364151382     0.439395810236     0.016022605505
    C           -0.623458761520     0.751082335529     0.019724598270
    O            1.312639934863    -0.645833842607    -0.046358008457
    C           -1.523322054074    -0.474673170386     0.014051496649
    H           -0.810886949489     1.380499488534    -0.847924865652
    H           -0.816058440968     1.382706094230     0.883698862922
    H           -1.339269143800    -1.085617154082    -0.859468809203
    H           -2.564917941763    -0.178054826030     0.011477346395
    H           -1.345596227750    -1.089850978638     0.886390233746

  Mulliken Charges: (a.u.)
   Center  Symbol    Alpha    Beta     Spin     Total
       1     H     0.45351  0.45351  0.00000  0.09299
       2     C     2.91610  2.91610  0.00000  0.16781
       3     C     3.08386  3.08386  0.00000 -0.16773
       4     O     4.16466  4.16466  0.00000 -0.32931
       5     C     3.14059  3.14059  0.00000 -0.28118
       6     H     0.44837  0.44837  0.00000  0.10325
       7     H     0.44841  0.44841  0.00000  0.10317
       8     H     0.44693  0.44693  0.00000  0.10615
       9     H     0.44948  0.44948  0.00000  0.10105
      10     H     0.44810  0.44810  0.00000  0.10381

   Total alpha = 16.00000, Total beta = 16.00000, Total charge =  0.00000

*** Psi4 exiting successfully. Buy a developer a beer!
