  ==> Input File <==

--------------------------------------------------------------------------
set {
	reference rhf
	basis 6-31G*
}

set_num_threads( 4 )
memory 2 gb

molecule MOL {
0 1

H	 -2.595908	 -0.480540	 0.202589
N	 -1.839584	 0.176223	 0.213369
C	 -0.563778	 -0.502042	 0.037919
H	 -1.871574	 0.640275	 1.101281
C	 0.575259	 0.508231	 -0.048326
H	 -0.613403	 -1.064744	 -0.889496
H	 -0.347471	 -1.223295	 0.830226
C	 1.954651	 -0.143624	 0.035137
H	 0.475158	 1.060484	 -0.977307
H	 0.469181	 1.234488	 0.755973
H	 2.103292	 -0.853109	 -0.774172
H	 2.742821	 0.599562	 -0.030094
H	 2.083613	 -0.679371	 0.971560

	symmetry c1
}
set optking {
	frozen_dihedral = ("
		6 3 5 9
	")
}

ee = optimize('scf')
oeprop('DIPOLE', 'QUADRUPOLE', 'MULLIKEN_CHARGES')
f=open( 'psi4out.xyz', 'w' )
f.write( "13  " )
f.write( str(ee) + "\n" )
f.write( MOL.save_string_xyz() )
f.close()
--------------------------------------------------------------------------

    Molecular point group: c1
  Charge       = 0
  Multiplicity = 1
  Basis Set: 6-31G*
  Basis Set:
  @DF-RHF Final Energy:  -173.28178126376025
    Total Energy =                       -173.2817812637602799
    Molecular point group: c1
  Basis Set: 6-31G*
  Basis Set:
  Basis Set: 6-31G*
  Basis Set:
  @DF-RHF Final Energy:  -173.28185037917356
    Total Energy =                       -173.2818503791735907
  Basis Set: 6-31G*
  Basis Set:
  Basis Set: 6-31G*
  Basis Set:
  @DF-RHF Final Energy:  -173.28187852238446
    Total Energy =                       -173.2818785223844884
  Basis Set: 6-31G*
  Basis Set:
  Charge       = 0
  Multiplicity = 1
  Basis Set: 6-31G*
  Basis Set:

    Orbital Energies (a.u.)
    -----------------------

    Doubly Occupied:

       1A    -15.532604     2A    -11.240264     3A    -11.212103
       4A    -11.208899     5A     -1.176570     6A     -1.034717
       7A     -0.898287     8A     -0.799401     9A     -0.664616
      10A     -0.624682    11A     -0.604698    12A     -0.566363
      13A     -0.530595    14A     -0.490748    15A     -0.477657
      16A     -0.468540    17A     -0.381436

  @DF-RHF Final Energy:  -173.28187900108611

   => Energetics <=

    Nuclear Repulsion Energy =            131.7742783705076590
    One-Electron Energy =                -494.2879524210731006
    Two-Electron Energy =                 189.2317950494792740
    DFT Exchange-Correlation Energy =       0.0000000000000000
    Empirical Dispersion Energy =           0.0000000000000000
    PCM Polarization Energy =               0.0000000000000000
    EFP Energy =                            0.0000000000000000
    Total Energy =                       -173.2818790010861676
    Molecular point group: c1
  Basis Set: 6-31G*
  Basis Set:

  -Total Gradient:
     Atom            X                  Y                   Z
    ------   -----------------  -----------------  -----------------
       1       -0.000002149171     0.000018491598     0.000004915541
       2        0.000001769383    -0.000021278633     0.000046069442
       3        0.002327224500    -0.002542924578     0.000849373132
       4       -0.000017152233     0.000001941631    -0.000011891373
       5       -0.002198058801     0.002556634661     0.001270979857
       6       -0.001620871294     0.001744831751    -0.000981194834
       7        0.000011013150     0.000043477326    -0.000008429765
       8        0.000013465668     0.000004412798     0.000021715160
       9        0.001447970447    -0.001764014516    -0.001204802898
      10        0.000001432553    -0.000029196172     0.000003721489
      11       -0.000010863744    -0.000004473577     0.000010749270
      12        0.000008884653    -0.000004246973    -0.000013938023
      13        0.000037334887    -0.000003655316     0.000012733002

  **** Optimization is complete! (in 4 steps) ****
    Final optimized geometry and variables:
    Molecular point group: c1

    Geometry (in Angstrom), charge = 0, multiplicity = 1:

    H           -2.603622875253    -0.479534169235     0.088315293318
    N           -1.845888002667     0.174688056434     0.123777825910
    C           -0.566560744309    -0.505249709843    -0.025677898081
    H           -1.899531665185     0.633299632990     1.013392657419
    C            0.569885419468     0.510513822377    -0.108183175101
    H           -0.611478991016    -1.065145601278    -0.954665838843
    H           -0.363660588902    -1.220573880900     0.774695472910
    C            1.950472635610    -0.143952615269    -0.050749964752
    H            0.470866566807     1.065548610864    -1.035564610318
    H            0.473343964299     1.227476639104     0.704253053445
    H            2.077031374507    -0.864872365123    -0.854001281659
    H            2.738689442598     0.595910948005    -0.146930283756
    H            2.102247375323    -0.667946615744     0.888825070644

  Mulliken Charges: (a.u.)
   Center  Symbol    Alpha    Beta     Spin     Total
       1     H     0.33258  0.33258  0.00000  0.33483
       2     N     3.92210  3.92210  0.00000 -0.84420
       3     C     3.06027  3.06027  0.00000 -0.12055
       4     H     0.33540  0.33540  0.00000  0.32920
       5     C     3.14909  3.14909  0.00000 -0.29818
       6     H     0.42040  0.42040  0.00000  0.15921
       7     H     0.43449  0.43449  0.00000  0.13103
       8     C     3.24439  3.24439  0.00000 -0.48877
       9     H     0.41382  0.41382  0.00000  0.17235
      10     H     0.42554  0.42554  0.00000  0.14893
      11     H     0.42164  0.42164  0.00000  0.15673
      12     H     0.41791  0.41791  0.00000  0.16419
      13     H     0.42239  0.42239  0.00000  0.15523

   Total alpha = 17.00000, Total beta = 17.00000, Total charge = -0.00000
