                              Psi4 1.0.54 Driver

  ==> Input File <==

--------------------------------------------------------------------------
set {
	reference rhf
	basis cc-pvtz
}

set_num_threads( 4 )
memory 2 gb

molecule MOL {
0 1

H	 -2.569433	 -0.436504	 0.981148
O	 -2.346257	 -0.289210	 0.080372
C	 -1.183935	 0.486039	 -0.009831
C	 0.062853	 -0.375310	 0.027457
H	 -1.178881	 1.094526	 -0.908634
H	 -1.184406	 1.155156	 0.838676
O	 1.172093	 0.457955	 -0.054438
H	 0.052476	 -1.081302	 -0.804627
H	 0.076323	 -0.955658	 0.947560
C	 2.395478	 -0.199028	 -0.000366
H	 2.505946	 -0.901710	 -0.823354
H	 3.174616	 0.545641	 -0.071768
H	 2.513730	 -0.742241	 0.934223

	symmetry c1
}
set optking {
	frozen_dihedral = ("
		1 2 3 5
	")
}

ee,wfn = optimize('scf', return_wfn=True)
oeprop( wfn, 'DIPOLE', 'QUADRUPOLE', 'MULLIKEN_CHARGES')
f=open( 'psi4out.xyz', 'w' )
f.write( "13  " )
f.write( str(ee) + "\n" )
f.write( MOL.save_string_xyz() )
f.close()
--------------------------------------------------------------------------

    Molecular point group: c1
  Charge       = 0
  Multiplicity = 1
  Basis Set: CC-PVTZ
  Basis Set:
  @DF-RHF Final Energy:  -268.06058790082398
    Total Energy =                       -268.0605879008240890
    Molecular point group: c1
  Basis Set: CC-PVTZ
  Basis Set:
  Basis Set: CC-PVTZ
  Basis Set:
  @DF-RHF Final Energy:  -268.04476423087851
    Total Energy =                       -268.0447642308785703
  Basis Set: CC-PVTZ
  Basis Set:
  Basis Set: CC-PVTZ
  Basis Set:
  @DF-RHF Final Energy:  -268.06177356255705
    Total Energy =                       -268.0617735625570504
  Basis Set: CC-PVTZ
  Basis Set:
  Basis Set: CC-PVTZ
  Basis Set:
  @DF-RHF Final Energy:  -268.06204833173535
    Total Energy =                       -268.0620483317353546
  Basis Set: CC-PVTZ
  Basis Set:
  Basis Set: CC-PVTZ
  Basis Set:
  @DF-RHF Final Energy:  -268.06205493481286
    Total Energy =                       -268.0620549348126929
  Basis Set: CC-PVTZ
  Basis Set:
  Charge       = 0
  Multiplicity = 1
  Basis Set: CC-PVTZ
  Basis Set:

    Orbital Energies (a.u.)
    -----------------------

    Doubly Occupied:

       1A    -20.554745     2A    -20.552430     3A    -11.267907
       4A    -11.267027     5A    -11.266786     6A     -1.390665
       7A     -1.368635     8A     -1.019359     9A     -0.913362
      10A     -0.839803    11A     -0.714240    12A     -0.676664
      13A     -0.658637    14A     -0.641202    15A     -0.599477
      16A     -0.564263    17A     -0.547903    18A     -0.487277
      19A     -0.486627    20A     -0.441263    21A     -0.423384

  @DF-RHF Final Energy:  -268.06205567997938

   => Energetics <=

    Nuclear Repulsion Energy =            190.4250986380643269
    One-Electron Energy =                -743.6109998081467438
    Two-Electron Energy =                 285.1238454901030650
    DFT Exchange-Correlation Energy =       0.0000000000000000
    Empirical Dispersion Energy =           0.0000000000000000
    PCM Polarization Energy =               0.0000000000000000
    EFP Energy =                            0.0000000000000000
    Total Energy =                       -268.0620556799793235
    Molecular point group: c1
  Basis Set: CC-PVTZ
  Basis Set:

  -Total Gradient:
     Atom            X                  Y                   Z
    ------   -----------------  -----------------  -----------------
       1       -0.000545919651     0.000683177595     0.000209770234
       2        0.000541931132    -0.000769863605    -0.000129646904
       3        0.000391885269    -0.000344444782    -0.000583656234
       4       -0.000059606166     0.000007198050     0.000011305881
       5       -0.000360621412     0.000404976162     0.000506400601
       6       -0.000015818405    -0.000015198682     0.000005524405
       7        0.000038953313     0.000021286900    -0.000011777687
       8       -0.000001065214     0.000003593940    -0.000009712937
       9       -0.000005403722     0.000010172078    -0.000004473329
      10        0.000011937005     0.000003245876     0.000010600968
      11       -0.000001778919     0.000001006108    -0.000010100547
      12        0.000002506890     0.000002804088    -0.000002799497
      13        0.000002999883    -0.000007953730     0.000008565045

  **** Optimization is complete! (in 6 steps) ****
    Final optimized geometry and variables:
    Molecular point group: c1

    Geometry (in Angstrom), charge = 0, multiplicity = 1:

    H           -2.527490648012    -0.871429998003     0.831308123248
    O           -2.315084909173    -0.460219226887     0.014693629237
    C           -1.207592939205     0.385085221333     0.167737671507
    C            0.085516517274    -0.361495858879    -0.089274912931
    H           -1.310153596390     1.191035968162    -0.545696631606
    H           -1.179702400949     0.829976663145     1.156939625050
    O            1.141125716898     0.532153913448     0.052812028627
    H            0.065487315011    -0.786840022351    -1.090394195568
    H            0.183294924231    -1.187571993065     0.615624980775
    C            2.396753792843    -0.012563656383    -0.186910879554
    H            2.477650841282    -0.392401738672    -1.202682938707
    H            3.129131614025     0.769147690602    -0.047795327598
    H            2.616001170949    -0.824853440549     0.502605783997

  Mulliken Charges: (a.u.)
   Center  Symbol    Alpha    Beta     Spin     Total
       1     H     0.39239  0.39239  0.00000  0.21522
       2     O     4.20410  4.20410  0.00000 -0.40821
       3     C     2.97542  2.97542  0.00000  0.04916
       4     C     2.96079  2.96079  0.00000  0.07842
       5     H     0.45405  0.45405  0.00000  0.09190
       6     H     0.46718  0.46718  0.00000  0.06564
       7     O     4.17606  4.17606  0.00000 -0.35212
       8     H     0.47023  0.47023  0.00000  0.05954
       9     H     0.48089  0.48089  0.00000  0.03821
      10     C     3.03149  3.03149  0.00000 -0.06299
      11     H     0.46989  0.46989  0.00000  0.06023
      12     H     0.44626  0.44626  0.00000  0.10748
      13     H     0.47125  0.47125  0.00000  0.05750

   Total alpha = 21.00000, Total beta = 21.00000, Total charge = -0.00000

*** Psi4 exiting successfully. Buy a developer a beer!
