                              Psi4 1.0.54 Driver

  ==> Input File <==

--------------------------------------------------------------------------
set {
	reference rhf
	basis cc-pvtz
}

set_num_threads( 4 )
memory 2 gb

molecule MOL {
0 1

H	 -0.000105	 1.988529	 0.748933
O	 -0.000098	 1.879786	 -0.188206
C	 -0.000014	 0.545691	 -0.532416
C	 -0.637976	 0.355526	 -1.909594
C	 -0.637935	 -0.287040	 0.580863
H	 1.027869	 0.224378	 -0.615335
F	 0.040540	 1.037512	 -2.799184
F	 -0.646410	 -0.898455	 -2.285321
F	 -1.877257	 0.797352	 -1.928271
F	 0.040622	 -0.120593	 1.689336
F	 -0.646382	 -1.566269	 0.302985
F	 -1.877207	 0.090598	 0.811020

	symmetry c1
}
set optking {
	frozen_dihedral = ("
		6 3 2 1
	")
}

ee,wfn = optimize('scf', return_wfn=True)
oeprop( wfn, 'DIPOLE', 'QUADRUPOLE', 'MULLIKEN_CHARGES')
f=open( 'psi4out.xyz', 'w' )
f.write( "12  " )
f.write( str(ee) + "\n" )
f.write( MOL.save_string_xyz() )
f.close()
--------------------------------------------------------------------------

    Molecular point group: c1
  Charge       = 0
  Multiplicity = 1
  Basis Set: CC-PVTZ
  Basis Set:
  @DF-RHF Final Energy:  -786.58443027742635
    Total Energy =                       -786.5844302774262360
    Molecular point group: c1
  Basis Set: CC-PVTZ
  Basis Set:
  Basis Set: CC-PVTZ
  Basis Set:
  @DF-RHF Final Energy:  -786.58613839106818
    Total Energy =                       -786.5861383910682889
  Basis Set: CC-PVTZ
  Basis Set:
  Basis Set: CC-PVTZ
  Basis Set:
  @DF-RHF Final Energy:  -786.58652240056779
    Total Energy =                       -786.5865224005679011
  Basis Set: CC-PVTZ
  Basis Set:
  Basis Set: CC-PVTZ
  Basis Set:
  @DF-RHF Final Energy:  -786.58657589155143
    Total Energy =                       -786.5865758915510924
  Basis Set: CC-PVTZ
  Basis Set:
  Basis Set: CC-PVTZ
  Basis Set:
  @DF-RHF Final Energy:  -786.58659088497393
    Total Energy =                       -786.5865908849748394
  Basis Set: CC-PVTZ
  Basis Set:
  Basis Set: CC-PVTZ
  Basis Set:
  @DF-RHF Final Energy:  -786.58659451930657
    Total Energy =                       -786.5865945193062316
  Basis Set: CC-PVTZ
  Basis Set:
  Charge       = 0
  Multiplicity = 1
  Basis Set: CC-PVTZ
  Basis Set:

    Orbital Energies (a.u.)
    -----------------------

    Doubly Occupied:

       1A    -26.365249     2A    -26.361834     3A    -26.360183
       4A    -26.351581     5A    -26.348028     6A    -26.347971
       7A    -20.607553     8A    -11.525661     9A    -11.515174
      10A    -11.351636    11A     -1.775629    12A     -1.762130
      13A     -1.670793    14A     -1.669009    15A     -1.657503
      16A     -1.655749    17A     -1.437797    18A     -1.104983
      19A     -1.002736    20A     -0.942889    21A     -0.876558
      22A     -0.867689    23A     -0.862806    24A     -0.849497
      25A     -0.839051    26A     -0.796937    27A     -0.756050
      28A     -0.740835    29A     -0.726507    30A     -0.724871
      31A     -0.716728    32A     -0.694863    33A     -0.691142
      34A     -0.675675    35A     -0.674651    36A     -0.670643
      37A     -0.659109    38A     -0.651724    39A     -0.621404
      40A     -0.549539    41A     -0.508098

  @DF-RHF Final Energy:  -786.58659580121696

   => Energetics <=

    Nuclear Repulsion Energy =            671.2417961569327645
    One-Electron Energy =               -2429.7198623749791295
    Two-Electron Energy =                 971.8914704168289518
    DFT Exchange-Correlation Energy =       0.0000000000000000
    Empirical Dispersion Energy =           0.0000000000000000
    PCM Polarization Energy =               0.0000000000000000
    EFP Energy =                            0.0000000000000000
    Total Energy =                       -786.5865958012175270
    Molecular point group: c1
  Basis Set: CC-PVTZ
  Basis Set:

  -Total Gradient:
     Atom            X                  Y                   Z
    ------   -----------------  -----------------  -----------------
       1       -0.002263515898     0.000066993924     0.000108188400
       2        0.002816969391    -0.000124390509    -0.000714790610
       3       -0.000501372667    -0.000184179193     0.002489453993
       4       -0.000047823957     0.000145423225    -0.000029017772
       5       -0.000069170119    -0.000006455643    -0.000028107403
       6       -0.000093637556     0.000258182044    -0.001912975782
       7        0.000046087267     0.000012364763    -0.000026349425
       8       -0.000021841947    -0.000085752238     0.000015764992
       9        0.000042935546    -0.000049878846     0.000038348044
      10        0.000031907330     0.000051297203     0.000077062018
      11       -0.000024496166    -0.000066666463    -0.000008073908
      12        0.000083958777    -0.000016938275    -0.000009502538

  **** Optimization is complete! (in 7 steps) ****
    Final optimized geometry and variables:
    Molecular point group: c1

    Geometry (in Angstrom), charge = 0, multiplicity = 1:

    H            0.761011253990     1.952448165052     1.144123943714
    O            0.728098338718     1.715861499432     0.233829982151
    C            0.677482407003     0.347689557859     0.062816374378
    C            0.004597743947     0.093834033183    -1.285482015439
    C           -0.014927358706    -0.345844071933     1.235573377812
    H            1.668636340448    -0.086056305846    -0.014774905909
    F            0.728916119677     0.631945274993    -2.236280187898
    F           -0.081294575203    -1.194875067612    -1.526643496035
    F           -1.196903391068     0.601986015778    -1.353835327387
    F            0.557578468276     0.062617829566     2.354986645643
    F            0.116420121884    -1.644824208436     1.172962156931
    F           -1.287991555327    -0.060890377999     1.323884277240

  Mulliken Charges: (a.u.)
   Center  Symbol    Alpha    Beta     Spin     Total
       1     H     0.38291  0.38291  0.00000  0.23419
       2     O     4.18741  4.18741  0.00000 -0.37481
       3     C     2.99525  2.99525  0.00000  0.00951
       4     C     2.67840  2.67840  0.00000  0.64319
       5     C     2.68491  2.68491  0.00000  0.63018
       6     H     0.44435  0.44435  0.00000  0.11129
       7     F     4.60345  4.60345  0.00000 -0.20691
       8     F     4.60661  4.60661  0.00000 -0.21322
       9     F     4.60178  4.60178  0.00000 -0.20357
      10     F     4.61398  4.61398  0.00000 -0.22795
      11     F     4.60049  4.60049  0.00000 -0.20097
      12     F     4.60046  4.60046  0.00000 -0.20093

   Total alpha = 41.00000, Total beta = 41.00000, Total charge =  0.00000

*** Psi4 exiting successfully. Buy a developer a beer!
