  ==> Input File <==

--------------------------------------------------------------------------
set {
	reference rhf
	basis 6-31G*
}

set_num_threads( 4 )
memory 2 gb

molecule MOL {
0 1

O	 2.090744	 1.161618	 2.265895
C	 2.050957	 0.172044	 1.608461
C	 1.245376	 -0.013843	 0.345420
O	 2.729790	 -0.927748	 1.910574
C	 0.455112	 1.231400	 -0.050772
H	 1.937871	 -0.320461	 -0.431515
H	 0.584542	 -0.861973	 0.505644
C	 -0.998893	 1.219485	 0.433193
H	 0.482531	 1.345121	 -1.130325
H	 0.957290	 2.103070	 0.354729
C	 -1.883438	 0.145884	 -0.207175
H	 -1.431207	 2.195402	 0.224832
H	 -1.019646	 1.105716	 1.516076
C	 -3.347647	 0.245583	 0.225435
H	 -1.822183	 0.231698	 -1.291012
H	 -1.510341	 -0.844814	 0.042401
C	 -4.239992	 -0.825570	 -0.404234
H	 -3.732888	 1.230466	 -0.033079
H	 -3.408585	 0.170602	 1.310038
C	 -5.701275	 -0.716658	 0.029921
H	 -4.179496	 -0.752714	 -1.488058
H	 -3.859041	 -1.810759	 -0.143352
H	 -6.308102	 -1.488908	 -0.432678
H	 -6.122175	 0.245478	 -0.248167
H	 -5.799072	 -0.820114	 1.106957
C	 3.529085	 -0.888926	 3.078695
H	 4.283088	 -0.119214	 2.997900
H	 3.992762	 -1.860375	 3.151481
H	 2.919461	 -0.698742	 3.950317

	symmetry c1
}
set optking {
	frozen_dihedral = ("
		6 3 5 9
	")
}

ee = optimize('scf')
oeprop('DIPOLE', 'QUADRUPOLE', 'MULLIKEN_CHARGES')
f=open( 'psi4out.xyz', 'w' )
f.write( "29  " )
f.write( str(ee) + "\n" )
f.write( MOL.save_string_xyz() )
f.close()
--------------------------------------------------------------------------

    Molecular point group: c1
  Charge       = 0
  Multiplicity = 1
  Basis Set: 6-31G*
  Basis Set:
  @DF-RHF Final Energy:  -501.04081000150745
    Total Energy =                       -501.0408100015076798
    Molecular point group: c1
  Basis Set: 6-31G*
  Basis Set:
  Basis Set: 6-31G*
  Basis Set:
  @DF-RHF Final Energy:  -501.04103153211736
    Total Energy =                       -501.0410315321173584
  Basis Set: 6-31G*
  Basis Set:
  Basis Set: 6-31G*
  Basis Set:
  @DF-RHF Final Energy:  -501.04127114113430
    Total Energy =                       -501.0412711411348710
  Basis Set: 6-31G*
  Basis Set:
  Basis Set: 6-31G*
  Basis Set:
  @DF-RHF Final Energy:  -501.04114297573324
    Total Energy =                       -501.0411429757330097
  Basis Set: 6-31G*
  Basis Set:
  Basis Set: 6-31G*
  Basis Set:
  @DF-RHF Final Energy:  -501.04136256908725
    Total Energy =                       -501.0413625690873687
  Basis Set: 6-31G*
  Basis Set:
  Basis Set: 6-31G*
  Basis Set:
  @DF-RHF Final Energy:  -501.04136424387946
    Total Energy =                       -501.0413642438794568
  Basis Set: 6-31G*
  Basis Set:
  Basis Set: 6-31G*
  Basis Set:
  @DF-RHF Final Energy:  -501.04137032118160
    Total Energy =                       -501.0413703211818301
  Basis Set: 6-31G*
  Basis Set:
  Charge       = 0
  Multiplicity = 1
  Basis Set: 6-31G*
  Basis Set:

    Orbital Energies (a.u.)
    -----------------------

    Doubly Occupied:

       1A    -20.604086     2A    -20.546151     3A    -11.372873
       4A    -11.281177     5A    -11.234613     6A    -11.218020
       7A    -11.214748     8A    -11.214419     9A    -11.213817
      10A    -11.212776    11A    -11.208047    12A     -1.469927
      13A     -1.363244    14A     -1.095738    15A     -1.065285
      16A     -1.018378    17A     -0.976758    18A     -0.927305
      19A     -0.860860    20A     -0.800540    21A     -0.789696
      22A     -0.763240    23A     -0.700387    24A     -0.681736
      25A     -0.671898    26A     -0.651917    27A     -0.619660
      28A     -0.611817    29A     -0.590667    30A     -0.579869
      31A     -0.564942    32A     -0.549102    33A     -0.536115
      34A     -0.527072    35A     -0.516880    36A     -0.502689
      37A     -0.500443    38A     -0.475566    39A     -0.468880
      40A     -0.460485    41A     -0.457747    42A     -0.456860
      43A     -0.438929    44A     -0.435616

  @DF-RHF Final Energy:  -501.04137055678041

   => Energetics <=

    Nuclear Repulsion Energy =            617.2438437143672445
    One-Electron Energy =               -1905.6684845388886060
    Two-Electron Energy =                 787.3832702677414090
    DFT Exchange-Correlation Energy =       0.0000000000000000
    Empirical Dispersion Energy =           0.0000000000000000
    PCM Polarization Energy =               0.0000000000000000
    EFP Energy =                            0.0000000000000000
    Total Energy =                       -501.0413705567798388
    Molecular point group: c1
  Basis Set: 6-31G*
  Basis Set:

  -Total Gradient:
     Atom            X                  Y                   Z
    ------   -----------------  -----------------  -----------------
       1        0.000055804523     0.000018460204     0.000005021995
       2       -0.000059707207    -0.000059044618     0.000076366792
       3        0.003609447277     0.002970626418     0.001644766885
       4        0.000013168807     0.000010785883    -0.000006636331
       5       -0.003969177457    -0.002825768833    -0.000575887249
       6       -0.002340883769    -0.002070423138    -0.001268866151
       7        0.000064679577     0.000029932604    -0.000010352150
       8       -0.000014598258     0.000067311515    -0.000034088554
       9        0.002688762875     0.001900851799     0.000162743694
      10       -0.000031466132    -0.000028215924    -0.000006572020
      11       -0.000000927377     0.000001951000    -0.000019735948
      12       -0.000024895551     0.000014345951     0.000016266325
      13        0.000004537183    -0.000002884431    -0.000008079272
      14        0.000018696203    -0.000023177792     0.000022163930
      15       -0.000003856976    -0.000014828907    -0.000008923505
      16       -0.000010449498    -0.000000094722     0.000022071945
      17       -0.000001282531     0.000017771691    -0.000016507299
      18        0.000010812817    -0.000006167939     0.000012184518
      19       -0.000006932994    -0.000014411455     0.000008705151
      20       -0.000000766258     0.000004722658    -0.000003272871
      21        0.000002586813    -0.000005312256    -0.000009507410
      22       -0.000004241186     0.000008386905     0.000006289146
      23        0.000000156883    -0.000000766025     0.000000406947
      24       -0.000002489650    -0.000000732740    -0.000001526305
      25        0.000002646041     0.000002626854    -0.000001164226
      26       -0.000000742353     0.000004887143    -0.000005032829
      27        0.000000961584    -0.000000265613     0.000001127595
      28       -0.000000036613    -0.000000499160    -0.000001284617
      29        0.000000193210    -0.000000067071    -0.000000678190

  **** Optimization is complete! (in 8 steps) ****
    Final optimized geometry and variables:
    Molecular point group: c1

    Geometry (in Angstrom), charge = 0, multiplicity = 1:

    O            2.402507857012     1.108854037187     1.407357052127
    C            2.399141999091     0.113519678997     0.757155423771
    C            1.620022401837    -0.110385070236    -0.517205176539
    O            3.096400876679    -0.967180396789     1.083537676394
    C            0.803174259164     1.106003310125    -0.972998475166
    H            2.315574321609    -0.439167808041    -1.282725662460
    H            0.986544818107    -0.974261392059    -0.339505203229
    C           -0.645486049583     1.125107768942    -0.473841958749
    H            0.828262056479     1.165941470128    -2.057647946612
    H            1.303312772409     1.998621935960    -0.616949474676
    C           -1.565823727087     0.107050064778    -1.152752015365
    H           -1.051539846690     2.120664317928    -0.636018513681
    H           -0.651922548208     0.969767319311     0.603101907599
    C           -3.003234000693     0.160930599412    -0.631311755823
    H           -1.565650215096     0.288932667573    -2.226329961548
    H           -1.179771746615    -0.901173190457    -1.016852725118
    C           -3.935394967243    -0.838800498262    -1.318166181983
    H           -3.396605397726     1.167353485399    -0.764188673592
    H           -3.004258514905    -0.026017685214     0.441294549405
    C           -5.369458996120    -0.776603574835    -0.793426653171
    H           -3.935415972163    -0.653106888365    -2.390196138244
    H           -3.545852950836    -1.845785337962    -1.183542834929
    H           -6.005452731494    -1.496857026462    -1.298846007527
    H           -5.800147832141     0.209048500045    -0.945734666779
    H           -5.407163555338    -0.991565049489     0.270810354237
    C            3.871307915574    -0.899589816691     2.266819794978
    H            4.608115017760    -0.112655915209     2.194152634265
    H            4.356497958551    -1.858978693403     2.356828347425
    H            3.240023379069    -0.717203307888     3.124558635517

  Mulliken Charges: (a.u.)
   Center  Symbol    Alpha    Beta     Spin     Total
       1     O     4.28578  4.28578  0.00000 -0.57155
       2     C     2.60902  2.60902  0.00000  0.78196
       3     C     3.21089  3.21089  0.00000 -0.42178
       4     O     4.30599  4.30599  0.00000 -0.61198
       5     C     3.16223  3.16223  0.00000 -0.32447
       6     H     0.39720  0.39720  0.00000  0.20560
       7     H     0.39873  0.39873  0.00000  0.20254
       8     C     3.15618  3.15618  0.00000 -0.31236
       9     H     0.41932  0.41932  0.00000  0.16135
      10     H     0.39898  0.39898  0.00000  0.20203
      11     C     3.15391  3.15391  0.00000 -0.30782
      12     H     0.41903  0.41903  0.00000  0.16193
      13     H     0.41739  0.41739  0.00000  0.16522
      14     C     3.15031  3.15031  0.00000 -0.30061
      15     H     0.42383  0.42383  0.00000  0.15233
      16     H     0.42529  0.42529  0.00000  0.14942
      17     C     3.15137  3.15137  0.00000 -0.30273
      18     H     0.42333  0.42333  0.00000  0.15334
      19     H     0.42348  0.42348  0.00000  0.15304
      20     C     3.23928  3.23928  0.00000 -0.47856
      21     H     0.42322  0.42322  0.00000  0.15357
      22     H     0.42369  0.42369  0.00000  0.15262
      23     H     0.41955  0.41955  0.00000  0.16090
      24     H     0.42159  0.42159  0.00000  0.15682
      25     H     0.42170  0.42170  0.00000  0.15660
      26     C     3.09220  3.09220  0.00000 -0.18439
      27     H     0.40892  0.40892  0.00000  0.18216
      28     H     0.40845  0.40845  0.00000  0.18310
      29     H     0.40914  0.40914  0.00000  0.18171

   Total alpha = 44.00000, Total beta = 44.00000, Total charge =  0.00000
