  ==> Input File <==

--------------------------------------------------------------------------
set {
	reference rhf
	basis 6-31G*
}

set_num_threads( 1 )
memory 2 gb

molecule MOL {
0 1

O	 -0.682937	 1.318834	 -0.186099
C	 -0.860635	 0.152188	 -0.042321
C	 -2.173363	 -0.477127	 0.338347
O	 0.083258	 -0.765189	 -0.202595
H	 -2.477673	 -1.180929	 -0.427595
H	 -2.923125	 0.290956	 0.455536
H	 -2.058825	 -1.029004	 1.264191
C	 1.128560	 -0.506622	 -1.137092
C	 2.231918	 0.332472	 -0.519705
H	 0.713179	 -0.027323	 -2.010518
H	 1.494272	 -1.485418	 -1.412253
H	 3.045790	 0.448109	 -1.228909
H	 1.866808	 1.317558	 -0.257655
H	 2.622202	 -0.146729	 0.371620

	symmetry c1
}
set optking {
	frozen_dihedral = ("
		10 8 4 2
	")
}

ee = energy('scf')
oeprop('DIPOLE', 'QUADRUPOLE', 'MULLIKEN_CHARGES')
f=open( 'psi4out.xyz', 'w' )
f.write( "14  " )
f.write( str(ee) + "\n" )
f.write( MOL.save_string_xyz() )
f.close()
--------------------------------------------------------------------------

    Molecular point group: c1

    Geometry (in Angstrom), charge = 0, multiplicity = 1:

       Center              X                  Y                   Z               Mass
    ------------   -----------------  -----------------  -----------------  -----------------
           O         -0.644623863314     1.307028857895     0.107105392906    15.994914619560
           C         -0.822321863314     0.140382857895     0.250883392906    12.000000000000
           C         -2.135049863314    -0.488932142105     0.631551392906    12.000000000000
           O          0.121571136686    -0.776994142105     0.090609392906    15.994914619560
           H         -2.439359863314    -1.192734142105    -0.134390607094     1.007825032070
           H         -2.884811863314     0.279150857895     0.748740392906     1.007825032070
           H         -2.020511863314    -1.040809142105     1.557395392906     1.007825032070
           C          1.166873136686    -0.518427142105    -0.843887607094    12.000000000000
           C          2.270231136686     0.320666857895    -0.226500607094    12.000000000000
           H          0.751492136686    -0.039128142105    -1.717313607094     1.007825032070
           H          1.532585136686    -1.497223142105    -1.119048607094     1.007825032070
           H          3.084103136686     0.436303857895    -0.935704607094     1.007825032070
           H          1.905121136686     1.305752857895     0.035549392906     1.007825032070
           H          2.660515136686    -0.158534142105     0.664824392906     1.007825032070

  Charge       = 0
  Multiplicity = 1
  Basis Set: 6-31G*
  Basis Set:

    Orbital Energies (a.u.)
    -----------------------

    Doubly Occupied:

       1A    -20.597414     2A    -20.547281     3A    -11.376555
       4A    -11.289189     5A    -11.233458     6A    -11.213050
       7A     -1.466705     8A     -1.363840     9A     -1.053839
      10A     -0.997621    11A     -0.882078    12A     -0.767850
      13A     -0.698482    14A     -0.681740    15A     -0.656054
      16A     -0.608796    17A     -0.585806    18A     -0.571123
      19A     -0.560539    20A     -0.531673    21A     -0.506184
      22A     -0.498776    23A     -0.449350    24A     -0.436738

  @DF-RHF Final Energy:  -305.87002767357990

   => Energetics <=

    Nuclear Repulsion Energy =            248.9463281546575502
    One-Electron Energy =                -910.4844153157863502
    Two-Electron Energy =                 355.6680594875490442
    DFT Exchange-Correlation Energy =       0.0000000000000000
    Empirical Dispersion Energy =           0.0000000000000000
    PCM Polarization Energy =               0.0000000000000000
    EFP Energy =                            0.0000000000000000
    Total Energy =                       -305.8700276735797843

  Mulliken Charges: (a.u.)
   Center  Symbol    Alpha    Beta     Spin     Total
       1     O     4.27868  4.27868  0.00000 -0.55736
       2     C     2.62176  2.62176  0.00000  0.75648
       3     C     3.28160  3.28160  0.00000 -0.56321
       4     O     4.30779  4.30779  0.00000 -0.61558
       5     H     0.40219  0.40219  0.00000  0.19562
       6     H     0.39784  0.39784  0.00000  0.20432
       7     H     0.39942  0.39942  0.00000  0.20117
       8     C     3.00567  3.00567  0.00000 -0.01134
       9     C     3.25372  3.25372  0.00000 -0.50745
      10     H     0.41170  0.41170  0.00000  0.17660
      11     H     0.40890  0.40890  0.00000  0.18220
      12     H     0.42145  0.42145  0.00000  0.15709
      13     H     0.39455  0.39455  0.00000  0.21089
      14     H     0.41472  0.41472  0.00000  0.17056

   Total alpha = 24.00000, Total beta = 24.00000, Total charge = -0.00000
