  ==> Input File <==

--------------------------------------------------------------------------
set {
	reference rhf
	basis 6-31G*
}

set_num_threads( 1 )
memory 2 gb

molecule MOL {
0 1

O	 0.577080	 -0.216176	 0.176149
C	 1.705091	 0.115954	 0.001797
C	 2.177609	 1.529165	 -0.237847
O	 2.721346	 -0.737485	 -0.000216
C	 1.047121	 2.553671	 -0.243352
H	 2.913964	 1.759433	 0.527314
H	 2.718980	 1.535113	 -1.179972
C	 1.553925	 3.975912	 -0.487158
H	 0.518250	 2.507652	 0.703414
H	 0.323651	 2.283827	 -1.006296
C	 0.433029	 5.016772	 -0.494993
H	 2.281649	 4.239232	 0.279051
H	 2.085369	 4.014972	 -1.436854
C	 0.939884	 6.437473	 -0.739854
H	 -0.097230	 4.980799	 0.454044
H	 -0.294276	 4.755592	 -1.260467
H	 1.643990	 6.740983	 0.029776
H	 0.122425	 7.151765	 -0.739956
H	 1.445820	 6.513866	 -1.698240
C	 4.024888	 -0.184556	 -0.001949
H	 4.179030	 0.422472	 -0.882452
H	 4.701782	 -1.024608	 -0.003642
H	 4.181981	 0.421185	 0.878906

	symmetry c1
}
set optking {
	frozen_dihedral = ("
		15 11 8 12,
		9 5 8 12,
		1 2 3 6,
		9 5 3 6
	")
}

ee = energy('scf')
oeprop('DIPOLE', 'QUADRUPOLE', 'MULLIKEN_CHARGES')
f=open( 'psi4out.xyz', 'w' )
f.write( "23  " )
f.write( str(ee) + "\n" )
f.write( MOL.save_string_xyz() )
f.close()
--------------------------------------------------------------------------

    Molecular point group: c1

    Geometry (in Angstrom), charge = 0, multiplicity = 1:

       Center              X                  Y                   Z               Mass
    ------------   -----------------  -----------------  -----------------  -----------------
           O         -1.131391775780    -2.251109342596     0.399081363155    15.994914619560
           C         -0.003380775780    -1.918979342596     0.224729363155    12.000000000000
           C          0.469137224220    -0.505768342596    -0.014914636845    12.000000000000
           O          1.012874224220    -2.772418342596     0.222716363155    15.994914619560
           C         -0.661350775780     0.518737657404    -0.020419636845    12.000000000000
           H          1.205492224220    -0.275500342596     0.750246363155     1.007825032070
           H          1.010508224220    -0.499820342596    -0.957039636845     1.007825032070
           C         -0.154546775780     1.940978657404    -0.264225636845    12.000000000000
           H         -1.190221775780     0.472718657404     0.926346363155     1.007825032070
           H         -1.384820775780     0.248893657404    -0.783363636845     1.007825032070
           C         -1.275442775780     2.981838657404    -0.272060636845    12.000000000000
           H          0.573177224220     2.204298657404     0.501983363155     1.007825032070
           H          0.376897224220     1.980038657404    -1.213921636845     1.007825032070
           C         -0.768587775780     4.402539657404    -0.516921636845    12.000000000000
           H         -1.805701775780     2.945865657404     0.676976363155     1.007825032070
           H         -2.002747775780     2.720658657404    -1.037534636845     1.007825032070
           H         -0.064481775780     4.706049657404     0.252708363155     1.007825032070
           H         -1.586046775780     5.116831657404    -0.517023636845     1.007825032070
           H         -0.262651775780     4.478932657404    -1.475307636845     1.007825032070
           C          2.316416224220    -2.219489342596     0.220983363155    12.000000000000
           H          2.470558224220    -1.612461342596    -0.659519636845     1.007825032070
           H          2.993310224220    -3.059541342596     0.219290363155     1.007825032070
           H          2.473509224220    -1.613748342596     1.101838363155     1.007825032070

  Charge       = 0
  Multiplicity = 1
  Basis Set: 6-31G*
  Basis Set:

    Orbital Energies (a.u.)
    -----------------------

    Doubly Occupied:

       1A    -20.608207     2A    -20.543046     3A    -11.374705
       4A    -11.297506     5A    -11.242459     6A    -11.223193
       7A    -11.222183     8A    -11.219666     9A    -11.212578
      10A     -1.468700    11A     -1.368865    12A     -1.097479
      13A     -1.043950    14A     -0.989314    15A     -0.958413
      16A     -0.859302    17A     -0.800478    18A     -0.762425
      19A     -0.704422    20A     -0.702044    21A     -0.676423
      22A     -0.654248    23A     -0.609437    24A     -0.604619
      25A     -0.583417    26A     -0.564371    27A     -0.561773
      28A     -0.543460    29A     -0.532351    30A     -0.509231
      31A     -0.491194    32A     -0.473069    33A     -0.469451
      34A     -0.465077    35A     -0.449333    36A     -0.427465

  @DF-RHF Final Energy:  -422.94877927028386

   => Energetics <=

    Nuclear Repulsion Energy =            458.9864097980374140
    One-Electron Energy =               -1485.2425937882676408
    Two-Electron Energy =                 603.3074047199478400
    DFT Exchange-Correlation Energy =       0.0000000000000000
    Empirical Dispersion Energy =           0.0000000000000000
    PCM Polarization Energy =               0.0000000000000000
    EFP Energy =                            0.0000000000000000
    Total Energy =                       -422.9487792702824436

  Mulliken Charges: (a.u.)
   Center  Symbol    Alpha    Beta     Spin     Total
       1     O     4.27352  4.27352  0.00000 -0.54704
       2     C     2.58688  2.58688  0.00000  0.82623
       3     C     3.24848  3.24848  0.00000 -0.49697
       4     O     4.30118  4.30118  0.00000 -0.60236
       5     C     3.14646  3.14646  0.00000 -0.29293
       6     H     0.40348  0.40348  0.00000  0.19304
       7     H     0.40061  0.40061  0.00000  0.19879
       8     C     3.15321  3.15321  0.00000 -0.30643
       9     H     0.41003  0.41003  0.00000  0.17993
      10     H     0.40962  0.40962  0.00000  0.18076
      11     C     3.15190  3.15190  0.00000 -0.30380
      12     H     0.42549  0.42549  0.00000  0.14902
      13     H     0.42515  0.42515  0.00000  0.14970
      14     C     3.23967  3.23967  0.00000 -0.47935
      15     H     0.42061  0.42061  0.00000  0.15878
      16     H     0.42045  0.42045  0.00000  0.15910
      17     H     0.42206  0.42206  0.00000  0.15589
      18     H     0.41770  0.41770  0.00000  0.16460
      19     H     0.42194  0.42194  0.00000  0.15611
      20     C     3.10070  3.10070  0.00000 -0.20140
      21     H     0.41423  0.41423  0.00000  0.17154
      22     H     0.39449  0.39449  0.00000  0.21101
      23     H     0.41211  0.41211  0.00000  0.17578

   Total alpha = 36.00000, Total beta = 36.00000, Total charge = -0.00000
