                              Psi4 1.0.54 Driver

  ==> Input File <==

--------------------------------------------------------------------------
set {
	reference rhf
	basis cc-pvtz
}

set_num_threads( 4 )
memory 2 gb

molecule MOL {
0 1

H	 -2.062750	 0.490520	 -2.546605
N	 -1.103146	 0.386100	 -2.294955
C	 -0.836603	 -0.952360	 -1.801374
H	 -0.902396	 1.058251	 -1.585089
C	 0.617516	 -1.094653	 -1.414155
H	 -1.449027	 -1.227900	 -0.943727
H	 -1.047457	 -1.662746	 -2.593171
O	 0.881195	 -0.248324	 -0.336237
H	 0.827324	 -2.127324	 -1.138940
H	 1.248408	 -0.832461	 -2.260417
C	 2.208068	 -0.234417	 0.074171
H	 2.725499	 -1.027054	 -0.446768
H	 2.688377	 0.712084	 -0.164856
H	 2.295137	 -0.403407	 1.144883

	symmetry c1
}
set optking {
	frozen_dihedral = ("
		5 8 11 13
	")
}

ee,wfn = optimize('scf', return_wfn=True)
oeprop( wfn, 'DIPOLE', 'QUADRUPOLE', 'MULLIKEN_CHARGES')
f=open( 'psi4out.xyz', 'w' )
f.write( "14  " )
f.write( str(ee) + "\n" )
f.write( MOL.save_string_xyz() )
f.close()
--------------------------------------------------------------------------

    Molecular point group: c1
  Charge       = 0
  Multiplicity = 1
  Basis Set: CC-PVTZ
  Basis Set:
  @DF-RHF Final Energy:  -248.22178531859356
    Total Energy =                       -248.2217853185934473
    Molecular point group: c1
  Basis Set: CC-PVTZ
  Basis Set:
  Basis Set: CC-PVTZ
  Basis Set:
  @DF-RHF Final Energy:  -248.22258354931898
    Total Energy =                       -248.2225835493190971
  Basis Set: CC-PVTZ
  Basis Set:
  Basis Set: CC-PVTZ
  Basis Set:
  @DF-RHF Final Energy:  -248.22285247345366
    Total Energy =                       -248.2228524734534290
  Basis Set: CC-PVTZ
  Basis Set:
  Charge       = 0
  Multiplicity = 1
  Basis Set: CC-PVTZ
  Basis Set:

    Orbital Energies (a.u.)
    -----------------------

    Doubly Occupied:

       1A    -20.547432     2A    -15.523139     3A    -11.264385
       4A    -11.263215     5A    -11.239386     6A     -1.380051
       7A     -1.175569     8A     -1.000432     9A     -0.907848
      10A     -0.815305    11A     -0.684153    12A     -0.673582
      13A     -0.644869    14A     -0.611762    15A     -0.607339
      16A     -0.540584    17A     -0.535776    18A     -0.497358
      19A     -0.473659    20A     -0.414743    21A     -0.383532

  @DF-RHF Final Energy:  -248.22285483545548

   => Energetics <=

    Nuclear Repulsion Energy =            194.4149817520234649
    One-Electron Energy =                -722.9074334493429888
    Two-Electron Energy =                 280.2695968618639313
    DFT Exchange-Correlation Energy =       0.0000000000000000
    Empirical Dispersion Energy =           0.0000000000000000
    PCM Polarization Energy =               0.0000000000000000
    EFP Energy =                            0.0000000000000000
    Total Energy =                       -248.2228548354556210
    Molecular point group: c1
  Basis Set: CC-PVTZ
  Basis Set:

  -Total Gradient:
     Atom            X                  Y                   Z
    ------   -----------------  -----------------  -----------------
       1        0.000003121461    -0.000009814548     0.000003306257
       2        0.000007545893    -0.000012139037     0.000001653471
       3       -0.000021338566     0.000002213895    -0.000009939569
       4        0.000003465281    -0.000008550334     0.000001618626
       5       -0.000285453926    -0.000912552622     0.000741595918
       6        0.000005727544     0.000005330100    -0.000006578269
       7       -0.000017096688    -0.000004003490    -0.000013720193
       8        0.000442925377     0.001534611225    -0.000729906281
       9        0.000008793389     0.000024539938     0.000019953540
      10        0.000002618334     0.000005672131     0.000023377456
      11        0.000257419040    -0.001249617108    -0.001404411501
      12        0.000050728478    -0.000001573924     0.000003217976
      13       -0.000498221075     0.000593310555     0.001336338927
      14        0.000039765460     0.000032573217     0.000033493644

  **** Optimization is complete! (in 4 steps) ****
    Final optimized geometry and variables:
    Molecular point group: c1

    Geometry (in Angstrom), charge = 0, multiplicity = 1:

    H           -2.427054732683     0.891173003047    -1.398558658845
    N           -1.465951570046     0.787558357553    -1.152428386962
    C           -1.196777565789    -0.548712815567    -0.654570182755
    H           -1.260951570485     1.462281602725    -0.446263144118
    C            0.259989080186    -0.690812079341    -0.277573565619
    H           -1.802710163355    -0.819361584314     0.209238142892
    H           -1.414174488981    -1.263052429056    -1.441182507533
    O            0.528508762877     0.163629162250     0.794422820704
    H            0.468477236401    -1.721591128624     0.003055598483
    H            0.882158333102    -0.435528217375    -1.131757658618
    C            1.852727501179     0.205054293864     1.229034082894
    H            2.449730891244    -0.587016365256     0.789661757076
    H            2.302956488428     1.159978097220     0.978859400759
    H            1.876266057584     0.090856022330     2.306101723550

  Mulliken Charges: (a.u.)
   Center  Symbol    Alpha    Beta     Spin     Total
       1     H     0.43034  0.43034  0.00000  0.13931
       2     N     3.69425  3.69425  0.00000 -0.38851
       3     C     3.02422  3.02422  0.00000 -0.04845
       4     H     0.42221  0.42221  0.00000  0.15557
       5     C     2.96741  2.96741  0.00000  0.06518
       6     H     0.46486  0.46486  0.00000  0.07027
       7     H     0.45876  0.45876  0.00000  0.08248
       8     O     4.18425  4.18425  0.00000 -0.36851
       9     H     0.46961  0.46961  0.00000  0.06079
      10     H     0.46925  0.46925  0.00000  0.06150
      11     C     3.02759  3.02759  0.00000 -0.05518
      12     H     0.47144  0.47144  0.00000  0.05713
      13     H     0.45942  0.45942  0.00000  0.08115
      14     H     0.45637  0.45637  0.00000  0.08726

   Total alpha = 21.00000, Total beta = 21.00000, Total charge = -0.00000

*** Psi4 exiting successfully. Buy a developer a beer!
