  ==> Input File <==

--------------------------------------------------------------------------
set {
	reference rhf
	basis 6-31G*
}

set_num_threads( 1 )
memory 2 gb

molecule MOL {
0 1

O	 0.625848	 1.349995	 -0.000749
C	 0.486307	 0.169203	 0.000779
C	 1.608116	 -0.841643	 0.000302
O	 -0.698257	 -0.426125	 0.001050
C	 2.990107	 -0.200498	 -0.000684
H	 1.468623	 -1.481519	 -0.865924
H	 1.469683	 -1.481289	 0.866878
H	 3.129736	 0.423364	 -0.875135
H	 3.757882	 -0.966877	 -0.001197
H	 3.130964	 0.423383	 0.873533
C	 -0.921260	 -1.446931	 0.968327
C	 -2.330372	 -1.962863	 0.767009
H	 -0.785323	 -1.031136	 1.957377
H	 -0.186094	 -2.228340	 0.832231
H	 -3.054276	 -1.167202	 0.901341
H	 -2.543375	 -2.746216	 1.487174
H	 -2.451861	 -2.371043	 -0.229929

	symmetry c1
}
set optking {
	frozen_dihedral = ("
		2 4 11 13,
		4 2 3 6
	")
}

ee = energy('scf')
oeprop('DIPOLE', 'QUADRUPOLE', 'MULLIKEN_CHARGES')
f=open( 'psi4out.xyz', 'w' )
f.write( "17  " )
f.write( str(ee) + "\n" )
f.write( MOL.save_string_xyz() )
f.close()
--------------------------------------------------------------------------

    Molecular point group: c1

    Geometry (in Angstrom), charge = 0, multiplicity = 1:

       Center              X                  Y                   Z               Mass
    ------------   -----------------  -----------------  -----------------  -----------------
           O          0.382840016116     1.833410022062    -0.253704330601    15.994914619560
           C          0.243299016116     0.652618022062    -0.252176330601    12.000000000000
           C          1.365108016116    -0.358227977938    -0.252653330601    12.000000000000
           O         -0.941264983884     0.057290022062    -0.251905330601    15.994914619560
           C          2.747099016116     0.282917022062    -0.253639330601    12.000000000000
           H          1.225615016116    -0.998103977938    -1.118879330601     1.007825032070
           H          1.226675016116    -0.997873977938     0.613922669399     1.007825032070
           H          2.886728016116     0.906779022062    -1.128090330601     1.007825032070
           H          3.514874016116    -0.483461977938    -0.254152330601     1.007825032070
           H          2.887956016116     0.906798022062     0.620577669399     1.007825032070
           C         -1.164267983884    -0.963515977938     0.715371669399    12.000000000000
           C         -2.573379983884    -1.479447977938     0.514053669399    12.000000000000
           H         -1.028330983884    -0.547720977938     1.704421669399     1.007825032070
           H         -0.429101983884    -1.744924977938     0.579275669399     1.007825032070
           H         -3.297283983884    -0.683786977938     0.648385669399     1.007825032070
           H         -2.786382983884    -2.262800977938     1.234218669399     1.007825032070
           H         -2.694868983884    -1.887627977938    -0.482884330601     1.007825032070

  Charge       = 0
  Multiplicity = 1
  Basis Set: 6-31G*
  Basis Set:

    Orbital Energies (a.u.)
    -----------------------

    Doubly Occupied:

       1A    -20.592875     2A    -20.550006     3A    -11.373046
       4A    -11.300899     5A    -11.240699     6A    -11.229252
       7A    -11.218116     8A     -1.463631     9A     -1.368318
      10A     -1.064004    11A     -1.046737    12A     -0.902728
      13A     -0.883020    14A     -0.771752    15A     -0.703523
      16A     -0.690674    17A     -0.659753    18A     -0.640632
      19A     -0.600799    20A     -0.568562    21A     -0.558681
      22A     -0.540456    23A     -0.529172    24A     -0.517456
      25A     -0.511765    26A     -0.484754    27A     -0.453315
      28A     -0.431320

  @DF-RHF Final Energy:  -344.88648544852805

   => Energetics <=

    Nuclear Repulsion Energy =            317.4391224484267582
    One-Electron Energy =               -1098.8592872726362657
    Two-Electron Energy =                 436.5336793756813449
    DFT Exchange-Correlation Energy =       0.0000000000000000
    Empirical Dispersion Energy =           0.0000000000000000
    PCM Polarization Energy =               0.0000000000000000
    EFP Energy =                            0.0000000000000000
    Total Energy =                       -344.8864854485281057

  Mulliken Charges: (a.u.)
   Center  Symbol    Alpha    Beta     Spin     Total
       1     O     4.26324  4.26324  0.00000 -0.52647
       2     C     2.60273  2.60273  0.00000  0.79455
       3     C     3.22897  3.22897  0.00000 -0.45795
       4     O     4.30919  4.30919  0.00000 -0.61837
       5     C     3.23637  3.23637  0.00000 -0.47274
       6     H     0.39917  0.39917  0.00000  0.20165
       7     H     0.40425  0.40425  0.00000  0.19150
       8     H     0.40814  0.40814  0.00000  0.18372
       9     H     0.41947  0.41947  0.00000  0.16105
      10     H     0.41012  0.41012  0.00000  0.17975
      11     C     3.01153  3.01153  0.00000 -0.02306
      12     C     3.24569  3.24569  0.00000 -0.49138
      13     H     0.41307  0.41307  0.00000  0.17385
      14     H     0.41666  0.41666  0.00000  0.16669
      15     H     0.40514  0.40514  0.00000  0.18972
      16     H     0.41730  0.41730  0.00000  0.16540
      17     H     0.40896  0.40896  0.00000  0.18209

   Total alpha = 28.00000, Total beta = 28.00000, Total charge =  0.00000
