                              Psi4 1.0.54 Driver

  ==> Input File <==

--------------------------------------------------------------------------
set {
	reference rhf
	basis cc-pvtz
}

set_num_threads( 4 )
memory 2 gb

molecule MOL {
0 1

O	 -0.875433	 -1.369356	 -0.788822
C	 -0.628809	 -0.244949	 -0.457758
C	 -1.724848	 0.800762	 -0.453416
N	 0.622280	 0.144970	 -0.099307
H	 -1.486204	 1.625171	 -1.113525
H	 -2.628147	 0.322153	 -0.793235
H	 -1.884793	 1.200574	 0.540336
C	 1.664396	 -0.854993	 0.000772
C	 0.926560	 1.416669	 0.512207
H	 2.462727	 -0.615153	 -0.690869
H	 1.261798	 -1.821849	 -0.240651
H	 2.081615	 -0.891605	 1.003877
H	 1.914987	 1.732257	 0.203902
H	 0.231765	 2.181022	 0.209022
H	 0.919933	 1.356888	 1.598221

	symmetry c1
}
set optking {
	frozen_dihedral = ("
		2 4 8 10
	")
}

ee,wfn = optimize('scf', return_wfn=True)
oeprop( wfn, 'DIPOLE', 'QUADRUPOLE', 'MULLIKEN_CHARGES')
f=open( 'psi4out.xyz', 'w' )
f.write( "15  " )
f.write( str(ee) + "\n" )
f.write( MOL.save_string_xyz() )
f.close()
--------------------------------------------------------------------------

    Molecular point group: c1
  Charge       = 0
  Multiplicity = 1
  Basis Set: CC-PVTZ
  Basis Set:
  @DF-RHF Final Energy:  -286.13508674231650
    Total Energy =                       -286.1350867423162754
    Molecular point group: c1
  Basis Set: CC-PVTZ
  Basis Set:
  Basis Set: CC-PVTZ
  Basis Set:
  @DF-RHF Final Energy:  -286.13534715575020
    Total Energy =                       -286.1353471557504236
  Basis Set: CC-PVTZ
  Basis Set:
  Basis Set: CC-PVTZ
  Basis Set:
  @DF-RHF Final Energy:  -286.13515041574567
    Total Energy =                       -286.1351504157455565
  Basis Set: CC-PVTZ
  Basis Set:
  Basis Set: CC-PVTZ
  Basis Set:
  @DF-RHF Final Energy:  -286.13550269379482
    Total Energy =                       -286.1355026937948764
  Basis Set: CC-PVTZ
  Basis Set:
  @DF-RHF Final Energy:  -286.13552236438079
    Total Energy =                       -286.1355223643807903
  @DF-RHF Final Energy:  -286.13553387705383
    Total Energy =                       -286.1355338770536036
  @DF-RHF Final Energy:  -286.13553903172686
    Total Energy =                       -286.1355390317271485
  Basis Set: CC-PVTZ
  Basis Set:
  @DF-RHF Final Energy:  -286.13554354706508
    Total Energy =                       -286.1355435470651400
  Basis Set: CC-PVTZ
  Basis Set:
  Basis Set: CC-PVTZ
  Basis Set:
  @DF-RHF Final Energy:  -286.13555367457320
    Total Energy =                       -286.1355536745731456
  Basis Set: CC-PVTZ
  Basis Set:
  Basis Set: CC-PVTZ
  Basis Set:
  @DF-RHF Final Energy:  -286.13555666594971
    Total Energy =                       -286.1355566659499345
  Basis Set: CC-PVTZ
  Basis Set:
  Charge       = 0
  Multiplicity = 1
  Basis Set: CC-PVTZ
  Basis Set:

    Orbital Energies (a.u.)
    -----------------------

    Doubly Occupied:

       1A    -20.501911     2A    -15.578882     3A    -11.335248
       4A    -11.264253     5A    -11.246513     6A    -11.226352
       7A     -1.386147     8A     -1.246669     9A     -1.015055
      10A     -0.973605    11A     -0.921829    12A     -0.739537
      13A     -0.683240    14A     -0.662264    15A     -0.653833
      16A     -0.590722    17A     -0.577620    18A     -0.566658
      19A     -0.561927    20A     -0.548818    21A     -0.530542
      22A     -0.507609    23A     -0.412573    24A     -0.369449

  @DF-RHF Final Energy:  -286.13555723918330

   => Energetics <=

    Nuclear Repulsion Energy =            252.7786323466366127
    One-Electron Energy =                -889.6258667142875538
    Two-Electron Energy =                 350.7116771284674996
    DFT Exchange-Correlation Energy =       0.0000000000000000
    Empirical Dispersion Energy =           0.0000000000000000
    PCM Polarization Energy =               0.0000000000000000
    EFP Energy =                            0.0000000000000000
    Total Energy =                       -286.1355572391834130
    Molecular point group: c1
  Basis Set: CC-PVTZ
  Basis Set:

  -Total Gradient:
     Atom            X                  Y                   Z
    ------   -----------------  -----------------  -----------------
       1        0.000012198709     0.000012328768    -0.000011620161
       2        0.000022947052     0.000011220076    -0.000132554954
       3       -0.000001651724     0.000003084857     0.000014424756
       4       -0.000080521890    -0.000051938734     0.000145951573
       5       -0.000001627376    -0.000008636578    -0.000012340015
       6       -0.000002756487    -0.000001073006     0.000009581807
       7        0.000008207412     0.000008831668    -0.000005819011
       8        0.000148342964     0.000159245851     0.000139529781
       9       -0.000017062998    -0.000026436378     0.000048416041
      10       -0.000096185062    -0.000115881101    -0.000183929499
      11       -0.000000960471     0.000000393866     0.000000040480
      12        0.000004836730     0.000009788610    -0.000003945232
      13        0.000011584367    -0.000014349496     0.000024505563
      14        0.000021658603     0.000006125846    -0.000030646046
      15       -0.000029009829     0.000007295750    -0.000001595083

  **** Optimization is complete! (in 11 steps) ****
    Final optimized geometry and variables:
    Molecular point group: c1

    Geometry (in Angstrom), charge = 0, multiplicity = 1:

    O           -0.869843939600    -1.338532905380    -0.645945715227
    C           -0.635295569746    -0.230109373304    -0.255316909269
    C           -1.734904692291     0.812517633487    -0.242231775871
    N            0.595928333463     0.138770802147     0.176976563222
    H           -1.504851838654     1.631953307675    -0.912042552750
    H           -2.638695324169     0.329197842825    -0.573844025031
    H           -1.888238009640     1.219741177049     0.749080031736
    C            1.659567874909    -0.840443950784     0.233287789566
    C            0.932593135593     1.437934897784     0.705333827899
    H            2.485632803219    -0.539110017226    -0.402597338388
    H            1.289600420121    -1.793176650552    -0.098392337087
    H            2.030313503364    -0.935889704939     1.249178852382
    H            1.876852814621     1.766135288782     0.286435484330
    H            0.191170169813     2.176746254295     0.456661790051
    H            1.040384406530     1.410903203859     1.786393145758

  Mulliken Charges: (a.u.)
   Center  Symbol    Alpha    Beta     Spin     Total
       1     O     4.22289  4.22289  0.00000 -0.44578
       2     C     2.84714  2.84714  0.00000  0.30571
       3     C     3.16031  3.16031  0.00000 -0.32061
       4     N     3.55760  3.55760  0.00000 -0.11520
       5     H     0.44936  0.44936  0.00000  0.10129
       6     H     0.42851  0.42851  0.00000  0.14297
       7     H     0.44972  0.44972  0.00000  0.10056
       8     C     3.10105  3.10105  0.00000 -0.20210
       9     C     3.09510  3.09510  0.00000 -0.19020
      10     H     0.45587  0.45587  0.00000  0.08827
      11     H     0.42501  0.42501  0.00000  0.14998
      12     H     0.45808  0.45808  0.00000  0.08385
      13     H     0.45108  0.45108  0.00000  0.09785
      14     H     0.44507  0.44507  0.00000  0.10986
      15     H     0.45322  0.45322  0.00000  0.09355

   Total alpha = 24.00000, Total beta = 24.00000, Total charge =  0.00000

*** Psi4 exiting successfully. Buy a developer a beer!
