  ==> Input File <==

--------------------------------------------------------------------------
set {
	reference rhf
	basis 6-31G*
}

set_num_threads( 4 )
memory 2 gb

molecule MOL {
0 1

H	 -3.161837	 0.500524	 -0.000234
C	 -2.367097	 -0.232926	 -0.000000
O	 -1.158440	 0.455814	 -0.000122
H	 -2.468853	 -0.861886	 -0.882833
H	 -2.468942	 -0.861421	 0.883154
C	 -0.181941	 -0.098271	 -0.829166
C	 1.077355	 0.745518	 -0.735060
H	 -0.539089	 -0.131903	 -1.859318
H	 0.027293	 -1.125623	 -0.528038
C	 2.206300	 0.210687	 -1.615014
H	 0.831215	 1.764097	 -1.018914
H	 1.393714	 0.777321	 0.303017
H	 1.918322	 0.193574	 -2.662487
H	 3.091992	 0.831048	 -1.528130
H	 2.484407	 -0.800621	 -1.331615

	symmetry c1
}
set optking {
	frozen_dihedral = ("
		6 3 2 4
	")
}

ee = optimize('scf')
oeprop('DIPOLE', 'QUADRUPOLE', 'MULLIKEN_CHARGES')
f=open( 'psi4out.xyz', 'w' )
f.write( "15  " )
f.write( str(ee) + "\n" )
f.write( MOL.save_string_xyz() )
f.close()
--------------------------------------------------------------------------

    Molecular point group: c1
  Charge       = 0
  Multiplicity = 1
  Basis Set: 6-31G*
  Basis Set:
  @DF-RHF Final Energy:  -232.13619767768779
    Total Energy =                       -232.1361976776879033
    Molecular point group: c1
  Basis Set: 6-31G*
  Basis Set:
  Basis Set: 6-31G*
  Basis Set:
  @DF-RHF Final Energy:  -232.13638702395502
    Total Energy =                       -232.1363870239551375
  Basis Set: 6-31G*
  Basis Set:
  Basis Set: 6-31G*
  Basis Set:
  @DF-RHF Final Energy:  -232.13646468690561
    Total Energy =                       -232.1364646869055832
  Basis Set: 6-31G*
  Basis Set:
  Charge       = 0
  Multiplicity = 1
  Basis Set: 6-31G*
  Basis Set:

    Orbital Energies (a.u.)
    -----------------------

    Doubly Occupied:

       1A    -20.550340     2A    -11.266688     3A    -11.263576
       4A    -11.213831     5A    -11.212731     6A     -1.374183
       7A     -1.056941     8A     -0.955309     9A     -0.877356
      10A     -0.808855    11A     -0.671614    12A     -0.652347
      13A     -0.629925    14A     -0.607190    15A     -0.564603
      16A     -0.544473    17A     -0.502099    18A     -0.488908
      19A     -0.478580    20A     -0.460633    21A     -0.409033

  @DF-RHF Final Energy:  -232.13646512804311

   => Energetics <=

    Nuclear Repulsion Energy =            189.4670612528458662
    One-Electron Energy =                -690.0286244484543658
    Two-Electron Energy =                 268.4250980675655001
    DFT Exchange-Correlation Energy =       0.0000000000000000
    Empirical Dispersion Energy =           0.0000000000000000
    PCM Polarization Energy =               0.0000000000000000
    EFP Energy =                            0.0000000000000000
    Total Energy =                       -232.1364651280430280
    Molecular point group: c1
  Basis Set: 6-31G*
  Basis Set:

  -Total Gradient:
     Atom            X                  Y                   Z
    ------   -----------------  -----------------  -----------------
       1       -0.000028802940    -0.000002787029    -0.000005246177
       2       -0.001734255584     0.003177322214    -0.002341765116
       3        0.001176533774    -0.002358059946     0.002677307604
       4        0.001157330748    -0.001999071175     0.001293371493
       5        0.000017958456    -0.000004635352    -0.000000930817
       6       -0.000623595721     0.001180282888    -0.001576580927
       7       -0.000009020452    -0.000013220844    -0.000021006287
       8       -0.000004295944     0.000008002856     0.000021388650
       9       -0.000005062834     0.000007092020    -0.000013653709
      10        0.000041530685     0.000020145723    -0.000013680616
      11        0.000005834177    -0.000001183791     0.000002024213
      12       -0.000014901335    -0.000009264402    -0.000009902562
      13        0.000001888350    -0.000001808746     0.000002798945
      14        0.000021212063    -0.000007392839    -0.000014899584
      15       -0.000002353438     0.000004578421     0.000000774891

  **** Optimization is complete! (in 4 steps) ****
    Final optimized geometry and variables:
    Molecular point group: c1

    Geometry (in Angstrom), charge = 0, multiplicity = 1:

    H           -3.064197099910     0.307419619935     0.660296622205
    C           -2.266834566215    -0.424697019770     0.636907115143
    O           -1.042183788025     0.244523304601     0.622060485230
    H           -2.391410543540    -1.060056826236    -0.235669032101
    H           -2.346158227140    -1.055761484303     1.518728223971
    C           -0.059208363181    -0.310554683367    -0.200559288340
    C            1.194717772007     0.540280416122    -0.100384207762
    H           -0.410354177393    -0.345810161652    -1.231854481245
    H            0.157152665486    -1.335712238198     0.102301026076
    C            2.330117787226     0.013579644341    -0.977205933128
    H            0.942986683689     1.557818118416    -0.383159031231
    H            1.507246898340     0.572288699989     0.938791515113
    H            2.045803444928    -0.004004385625    -2.025692770902
    H            3.211755897118     0.639253299832    -0.886824343230
    H            2.613568997769    -0.996397718404    -0.694306668865

  Mulliken Charges: (a.u.)
   Center  Symbol    Alpha    Beta     Spin     Total
       1     H     0.41635  0.41635  0.00000  0.16730
       2     C     3.07639  3.07639  0.00000 -0.15279
       3     O     4.30963  4.30963  0.00000 -0.61925
       4     H     0.43059  0.43059  0.00000  0.13882
       5     H     0.42524  0.42524  0.00000  0.14952
       6     C     2.98147  2.98147  0.00000  0.03706
       7     C     3.15994  3.15994  0.00000 -0.31988
       8     H     0.43277  0.43277  0.00000  0.13445
       9     H     0.43363  0.43363  0.00000  0.13274
      10     C     3.24794  3.24794  0.00000 -0.49587
      11     H     0.41437  0.41437  0.00000  0.17125
      12     H     0.41434  0.41434  0.00000  0.17131
      13     H     0.42099  0.42099  0.00000  0.15802
      14     H     0.41543  0.41543  0.00000  0.16914
      15     H     0.42091  0.42091  0.00000  0.15819

   Total alpha = 21.00000, Total beta = 21.00000, Total charge = -0.00000
