  ==> Input File <==

--------------------------------------------------------------------------
set {
	reference rhf
	basis 6-31G*
}

set_num_threads( 4 )
memory 2 gb

molecule MOL {
0 1

H	 -3.161837	 0.500524	 -0.000234
C	 -2.367097	 -0.232926	 -0.000000
O	 -1.158440	 0.455814	 -0.000122
H	 -2.468853	 -0.861886	 -0.882833
H	 -2.468942	 -0.861421	 0.883154
C	 -0.029776	 -0.365156	 0.000148
C	 0.921856	 0.109439	 -1.084204
H	 -0.319500	 -1.401698	 -0.177444
H	 0.459196	 -0.330759	 0.974638
C	 2.192542	 -0.736047	 -1.157630
H	 0.399507	 0.084584	 -2.035621
H	 1.172836	 1.148006	 -0.891623
H	 1.964743	 -1.776084	 -1.374087
H	 2.853123	 -0.375195	 -1.938825
H	 2.743312	 -0.705699	 -0.221609

	symmetry c1
}
set optking {
	frozen_dihedral = ("
		8 6 3 2
	")
}

ee = optimize('scf')
oeprop('DIPOLE', 'QUADRUPOLE', 'MULLIKEN_CHARGES')
f=open( 'psi4out.xyz', 'w' )
f.write( "15  " )
f.write( str(ee) + "\n" )
f.write( MOL.save_string_xyz() )
f.close()
--------------------------------------------------------------------------

    Molecular point group: c1
  Charge       = 0
  Multiplicity = 1
  Basis Set: 6-31G*
  Basis Set:
  @DF-RHF Final Energy:  -232.13558514499223
    Total Energy =                       -232.1355851449922056
    Molecular point group: c1
  Basis Set: 6-31G*
  Basis Set:
  Basis Set: 6-31G*
  Basis Set:
  @DF-RHF Final Energy:  -232.13586283556089
    Total Energy =                       -232.1358628355608289
  Basis Set: 6-31G*
  Basis Set:
  Basis Set: 6-31G*
  Basis Set:
  @DF-RHF Final Energy:  -232.13595468812377
    Total Energy =                       -232.1359546881237748
  Basis Set: 6-31G*
  Basis Set:
  Charge       = 0
  Multiplicity = 1
  Basis Set: 6-31G*
  Basis Set:

    Orbital Energies (a.u.)
    -----------------------

    Doubly Occupied:

       1A    -20.550236     2A    -11.265870     3A    -11.264746
       4A    -11.214106     5A    -11.212932     6A     -1.373624
       7A     -1.056573     8A     -0.956068     9A     -0.878541
      10A     -0.808580    11A     -0.670405    12A     -0.652634
      13A     -0.633453    14A     -0.602032    15A     -0.568460
      16A     -0.539740    17A     -0.503798    18A     -0.492454
      19A     -0.480402    20A     -0.462351    21A     -0.405476

  @DF-RHF Final Energy:  -232.13595558749674

   => Energetics <=

    Nuclear Repulsion Energy =            189.8139468792387277
    One-Electron Energy =                -690.7148395345514018
    Two-Electron Energy =                 268.7649370678161063
    DFT Exchange-Correlation Energy =       0.0000000000000000
    Empirical Dispersion Energy =           0.0000000000000000
    PCM Polarization Energy =               0.0000000000000000
    EFP Energy =                            0.0000000000000000
    Total Energy =                       -232.1359555874965395
    Molecular point group: c1
  Basis Set: 6-31G*
  Basis Set:

  -Total Gradient:
     Atom            X                  Y                   Z
    ------   -----------------  -----------------  -----------------
       1       -0.000026293007    -0.000007972680    -0.000001216572
       2       -0.000145881999     0.000049607056    -0.001366250159
       3        0.000067235196    -0.000157734897     0.002446551810
       4        0.000051310403     0.000014760300     0.000013156243
       5        0.000030426278     0.000007953004    -0.000018420460
       6        0.000075850656     0.000400053833    -0.002784016933
       7        0.000026012654    -0.000003456924     0.000064485005
       8       -0.000121079198    -0.000296260936     0.001678910817
       9        0.000029011952     0.000008288257    -0.000021367577
      10        0.000007957259    -0.000009773525    -0.000023613647
      11       -0.000009198172    -0.000006312264     0.000017122486
      12       -0.000007294298     0.000004773257     0.000002786999
      13        0.000008951074     0.000005896474     0.000008896641
      14        0.000018429846    -0.000010822907    -0.000010163338
      15       -0.000005438642     0.000001001951    -0.000006861315

  **** Optimization is complete! (in 4 steps) ****
    Final optimized geometry and variables:
    Molecular point group: c1

    Geometry (in Angstrom), charge = 0, multiplicity = 1:

    H           -3.045455202828     0.708723395030     0.469748419847
    C           -2.274997631847    -0.050462841757     0.465684458063
    O           -1.045760169836     0.602302558402     0.448299427360
    H           -2.407058420671    -0.678591927820    -0.413056376944
    H           -2.391869203685    -0.669705939187     1.353024998371
    C            0.086246288566    -0.223896286062     0.410611155059
    C            1.047288001910     0.264196837163    -0.661608873956
    H           -0.199412912346    -1.257259632742     0.224348891141
    H            0.569834544257    -0.203828893743     1.385315442159
    C            2.337664859866    -0.553032318724    -0.708311647627
    H            0.543532600478     0.226271738395    -1.623404060637
    H            1.272400286520     1.308779998337    -0.469178384305
    H            2.137307833207    -1.599494537296    -0.922068047609
    H            3.004714230561    -0.182684311117    -1.479599701209
    H            2.870012477365    -0.505326842438     0.237538803153

  Mulliken Charges: (a.u.)
   Center  Symbol    Alpha    Beta     Spin     Total
       1     H     0.41312  0.41312  0.00000  0.17375
       2     C     3.07898  3.07898  0.00000 -0.15795
       3     O     4.30880  4.30880  0.00000 -0.61760
       4     H     0.43049  0.43049  0.00000  0.13903
       5     H     0.43008  0.43008  0.00000  0.13983
       6     C     2.98366  2.98366  0.00000  0.03268
       7     C     3.15789  3.15789  0.00000 -0.31577
       8     H     0.43232  0.43232  0.00000  0.13535
       9     H     0.42619  0.42619  0.00000  0.14761
      10     C     3.24882  3.24882  0.00000 -0.49765
      11     H     0.41891  0.41891  0.00000  0.16217
      12     H     0.41340  0.41340  0.00000  0.17319
      13     H     0.42170  0.42170  0.00000  0.15660
      14     H     0.41551  0.41551  0.00000  0.16899
      15     H     0.42012  0.42012  0.00000  0.15976

   Total alpha = 21.00000, Total beta = 21.00000, Total charge =  0.00000
