  ==> Input File <==

--------------------------------------------------------------------------
set {
	reference rhf
	basis 6-31G*
}

set_num_threads( 4 )
memory 2 gb

molecule MOL {
0 1

H	 -2.798360	 -0.862255	 -0.071053
N	 -1.863561	 -0.715187	 0.256814
C	 -1.344686	 0.554728	 -0.219830
H	 -1.300452	 -1.461917	 -0.101532
C	 0.081427	 0.741154	 0.254071
H	 -1.362155	 0.656231	 -1.305829
H	 -1.952773	 1.354456	 0.191809
O	 0.874168	 -0.245412	 -0.342030
H	 0.444037	 1.730782	 -0.023037
H	 0.121165	 0.653424	 1.337565
C	 0.974929	 -1.423022	 0.393260
H	 1.606992	 -2.103076	 -0.161465
H	 1.421948	 -1.245474	 1.369801
H	 0.000895	 -1.885573	 0.538564

	symmetry c1
}
set optking {
	frozen_dihedral = ("
		11 8 5 3
	")
}

ee = optimize('scf')
oeprop('DIPOLE', 'QUADRUPOLE', 'MULLIKEN_CHARGES')
f=open( 'psi4out.xyz', 'w' )
f.write( "14  " )
f.write( str(ee) + "\n" )
f.write( MOL.save_string_xyz() )
f.close()
--------------------------------------------------------------------------

    Molecular point group: c1
  Charge       = 0
  Multiplicity = 1
  Basis Set: 6-31G*
  Basis Set:
  @DF-RHF Final Energy:  -248.10745801546759
    Total Energy =                       -248.1074580154677278
    Molecular point group: c1
  Basis Set: 6-31G*
  Basis Set:
  Basis Set: 6-31G*
  Basis Set:
  @DF-RHF Final Energy:  -248.11634760684166
    Total Energy =                       -248.1163476068417140
  Basis Set: 6-31G*
  Basis Set:
  Basis Set: 6-31G*
  Basis Set:
  @DF-RHF Final Energy:  -248.11872575481567
    Total Energy =                       -248.1187257548156140
  Basis Set: 6-31G*
  Basis Set:
  Basis Set: 6-31G*
  Basis Set:
  @DF-RHF Final Energy:  -248.11894852214587
    Total Energy =                       -248.1189485221458426
  Basis Set: 6-31G*
  Basis Set:
  @DF-RHF Final Energy:  -248.11901097156525
    Total Energy =                       -248.1190109715652738
  Basis Set: 6-31G*
  Basis Set:
  @DF-RHF Final Energy:  -248.11902101373784
    Total Energy =                       -248.1190210137378358
  Basis Set: 6-31G*
  Basis Set:
  Basis Set: 6-31G*
  Basis Set:
  @DF-RHF Final Energy:  -248.11902453562922
    Total Energy =                       -248.1190245356291371
  Basis Set: 6-31G*
  Basis Set:
  Basis Set: 6-31G*
  Basis Set:
  @DF-RHF Final Energy:  -248.11902628988292
    Total Energy =                       -248.1190262898828678
  Basis Set: 6-31G*
  Basis Set:
  Charge       = 0
  Multiplicity = 1
  Basis Set: 6-31G*
  Basis Set:

    Orbital Energies (a.u.)
    -----------------------

    Doubly Occupied:

       1A    -20.549701     2A    -15.539777     3A    -11.263044
       4A    -11.258190     5A    -11.244093     6A     -1.370308
       7A     -1.180815     8A     -0.999733     9A     -0.908727
      10A     -0.810589    11A     -0.688238    12A     -0.666621
      13A     -0.637631    14A     -0.619983    15A     -0.596285
      16A     -0.540319    17A     -0.531947    18A     -0.509997
      19A     -0.458666    20A     -0.419208    21A     -0.379808

  @DF-RHF Final Energy:  -248.11902679159013

   => Energetics <=

    Nuclear Repulsion Energy =            196.3632036524126363
    One-Electron Energy =                -726.6170987433649771
    Two-Electron Energy =                 282.1348682993622674
    DFT Exchange-Correlation Energy =       0.0000000000000000
    Empirical Dispersion Energy =           0.0000000000000000
    PCM Polarization Energy =               0.0000000000000000
    EFP Energy =                            0.0000000000000000
    Total Energy =                       -248.1190267915901018
    Molecular point group: c1
  Basis Set: 6-31G*
  Basis Set:

  -Total Gradient:
     Atom            X                  Y                   Z
    ------   -----------------  -----------------  -----------------
       1        0.000002721165    -0.000001576577    -0.000007469274
       2       -0.000027686035     0.000013724455    -0.000014205128
       3       -0.000552594116    -0.001831330028     0.002278828963
       4       -0.000012418632     0.000008303592     0.000001561515
       5       -0.000342466941     0.001975307702    -0.004005484927
       6       -0.000002836837     0.000002780493     0.000002991061
       7        0.000002081753     0.000012009613     0.000009167868
       8        0.003410856273     0.001150722417     0.003518309709
       9       -0.000013456341    -0.000006769755    -0.000035783466
      10        0.000004583021     0.000021288364    -0.000006550246
      11       -0.002482813664    -0.001311862113    -0.001771677721
      12       -0.000005959672    -0.000006195633     0.000001392664
      13        0.000001518226    -0.000009404641     0.000008293038
      14        0.000018471797    -0.000016997887     0.000020625944

  **** Optimization is complete! (in 9 steps) ****
    Final optimized geometry and variables:
    Molecular point group: c1

    Geometry (in Angstrom), charge = 0, multiplicity = 1:

    H           -2.740379523850    -0.376154075844     0.061321197183
    N           -1.744019427394    -0.443319403343     0.137601905796
    C           -1.120206143611     0.794756795680    -0.309468843173
    H           -1.467232867583    -1.204558167214    -0.450701850047
    C            0.315296320064     0.950129890381     0.171592975337
    H           -1.137999828063     0.911229089193    -1.393549733966
    H           -1.685431034739     1.623222408405     0.107736426866
    O            1.207740450157     0.008097343503    -0.356250852812
    H            0.679017572355     1.921720660716    -0.144299408122
    H            0.334489816619     0.918740187894     1.258642741324
    C            1.373359702079    -1.179256808522     0.361179534290
    H            2.142412943323    -1.747306109266    -0.145342967084
    H            1.702043355937    -0.978904248513     1.378783042318
    H            0.468943666399    -1.771723442299     0.410642532907

  Mulliken Charges: (a.u.)
   Center  Symbol    Alpha    Beta     Spin     Total
       1     H     0.32955  0.32955  0.00000  0.34089
       2     N     3.92557  3.92557  0.00000 -0.85113
       3     C     3.07448  3.07448  0.00000 -0.14896
       4     H     0.32954  0.32954  0.00000  0.34091
       5     C     2.98694  2.98694  0.00000  0.02613
       6     H     0.42532  0.42532  0.00000  0.14935
       7     H     0.42243  0.42243  0.00000  0.15513
       8     O     4.31210  4.31210  0.00000 -0.62419
       9     H     0.41910  0.41910  0.00000  0.16180
      10     H     0.42632  0.42632  0.00000  0.14736
      11     C     3.07923  3.07923  0.00000 -0.15847
      12     H     0.41612  0.41612  0.00000  0.16777
      13     H     0.42886  0.42886  0.00000  0.14228
      14     H     0.42444  0.42444  0.00000  0.15112

   Total alpha = 21.00000, Total beta = 21.00000, Total charge = -0.00000
