  ==> Input File <==

--------------------------------------------------------------------------
set {
	reference rhf
	basis cc-pvtz
}

set_num_threads( 4 )
memory 2 gb

molecule MOL {
0 1

H	 1.128311	 0.207724	 1.465118
C	 1.134565	 0.093781	 0.372499
C	 0.062554	 0.862911	 -0.350953
O	 1.948932	 -0.587720	 -0.146651
C	 0.454186	 2.321667	 -0.606432
H	 -0.855812	 0.791797	 0.217414
H	 -0.092484	 0.361972	 -1.303894
C	 0.565498	 3.152547	 0.668675
H	 -0.285188	 2.764839	 -1.263318
H	 1.396063	 2.352056	 -1.147163
H	 -0.376235	 3.167276	 1.205778
H	 0.834527	 4.176450	 0.438703
H	 1.318630	 2.756838	 1.341164

	symmetry c1
}
set optking {
	frozen_dihedral = ("
		6 3 2 4
	")
}

ee = optimize('scf')
oeprop('DIPOLE', 'QUADRUPOLE', 'MULLIKEN_CHARGES')
f=open( 'psi4out.xyz', 'w' )
f.write( "13  " )
f.write( str(ee) + "\n" )
f.write( MOL.save_string_xyz() )
f.close()
--------------------------------------------------------------------------

    Molecular point group: c1
  Charge       = 0
  Multiplicity = 1
  Basis Set: CC-PVTZ
  Basis Set:
  @DF-RHF Final Energy:  -231.06853639485323
    Total Energy =                       -231.0685363948531119
    Molecular point group: c1
  Basis Set: CC-PVTZ
  Basis Set:
  Basis Set: CC-PVTZ
  Basis Set:
  @DF-RHF Final Energy:  -231.06895357395200
    Total Energy =                       -231.0689535739520863
  Basis Set: CC-PVTZ
  Basis Set:
  Basis Set: CC-PVTZ
  Basis Set:
  @DF-RHF Final Energy:  -231.06896983337089
    Total Energy =                       -231.0689698333708861
  Basis Set: CC-PVTZ
  Basis Set:
  Basis Set: CC-PVTZ
  Basis Set:
  @DF-RHF Final Energy:  -231.06889828098895
    Total Energy =                       -231.0688982809890888
  Basis Set: CC-PVTZ
  Basis Set:
  Basis Set: CC-PVTZ
  Basis Set:
  @DF-RHF Final Energy:  -231.06897744904546
    Total Energy =                       -231.0689774490456045
  Basis Set: CC-PVTZ
  Basis Set:
  Basis Set: CC-PVTZ
  Basis Set:
  @DF-RHF Final Energy:  -231.06897485020949
    Total Energy =                       -231.0689748502093153
  Basis Set: CC-PVTZ
  Basis Set:
  Charge       = 0
  Multiplicity = 1
  Basis Set: CC-PVTZ
  Basis Set:

    Orbital Energies (a.u.)
    -----------------------

    Doubly Occupied:

       1A    -20.552329     2A    -11.320980     3A    -11.236742
       4A    -11.234076     5A    -11.222827     6A     -1.406802
       7A     -1.085968     8A     -0.974004     9A     -0.855158
      10A     -0.779210    11A     -0.684507    12A     -0.648117
      13A     -0.609870    14A     -0.603110    15A     -0.567787
      16A     -0.537364    17A     -0.507960    18A     -0.494518
      19A     -0.482672    20A     -0.411308

  @DF-RHF Final Energy:  -231.06897826840006

   => Energetics <=

    Nuclear Repulsion Energy =            173.8256492252201326
    One-Electron Energy =                -657.3586397497882672
    Two-Electron Energy =                 252.4640122561679618
    DFT Exchange-Correlation Energy =       0.0000000000000000
    Empirical Dispersion Energy =           0.0000000000000000
    PCM Polarization Energy =               0.0000000000000000
    EFP Energy =                            0.0000000000000000
    Total Energy =                       -231.0689782684002012
    Molecular point group: c1
  Basis Set: CC-PVTZ
  Basis Set:

  -Total Gradient:
     Atom            X                  Y                   Z
    ------   -----------------  -----------------  -----------------
       1        0.000001663357     0.000001103327     0.000005680022
       2       -0.000284023588    -0.000343282048     0.000070065671
       3       -0.000015395460    -0.000183265272    -0.000192437470
       4        0.000204783501     0.000278691719    -0.000021435114
       5       -0.000000965397    -0.000024416807    -0.000004212220
       6        0.000091462177     0.000261574481     0.000155580821
       7       -0.000004524305    -0.000011249226    -0.000011274996
       8       -0.000003752188     0.000007988438     0.000002089951
       9        0.000006610381     0.000006023022     0.000000730137
      10        0.000001873199     0.000005673268    -0.000005064650
      11        0.000006228936    -0.000005877505     0.000000385598
      12       -0.000001522112     0.000005829793     0.000001633755
      13       -0.000002438499     0.000001206806    -0.000001741506

  **** Optimization is complete! (in 7 steps) ****
    Final optimized geometry and variables:
    Molecular point group: c1

    Geometry (in Angstrom), charge = 0, multiplicity = 1:

    H            0.279695504275    -0.942706098104     1.475442753571
    C            0.279189587693    -1.075108653425     0.387548821421
    C           -0.773272136642    -0.314095765757    -0.375944867489
    O            1.088055507021    -1.773319581165    -0.120291456628
    C           -0.385186401308     1.155548373636    -0.602492428600
    H           -1.707328741877    -0.360230164180     0.177000696544
    H           -0.910186219669    -0.807716473141    -1.328836320651
    C           -0.265908643444     1.985056440061     0.673750575109
    H           -1.135880518453     1.599924473360    -1.245944509650
    H            0.549702420103     1.189315464610    -1.151371964185
    H           -1.188132205737     1.961169889716     1.244747359735
    H           -0.052430000108     3.019801869297     0.434979548553
    H            0.531762703209     1.630685203798     1.316470311806

  Mulliken Charges: (a.u.)
   Center  Symbol    Alpha    Beta     Spin     Total
       1     H     0.46097  0.46097  0.00000  0.07805
       2     C     2.90704  2.90704  0.00000  0.18592
       3     C     3.08881  3.08881  0.00000 -0.17762
       4     O     4.16652  4.16652  0.00000 -0.33303
       5     C     3.09488  3.09488  0.00000 -0.18976
       6     H     0.45126  0.45126  0.00000  0.09748
       7     H     0.43817  0.43817  0.00000  0.12367
       8     C     3.15188  3.15188  0.00000 -0.30376
       9     H     0.44617  0.44617  0.00000  0.10767
      10     H     0.44465  0.44465  0.00000  0.11070
      11     H     0.45377  0.45377  0.00000  0.09246
      12     H     0.44365  0.44365  0.00000  0.11270
      13     H     0.45224  0.45224  0.00000  0.09552

   Total alpha = 20.00000, Total beta = 20.00000, Total charge = -0.00000
