  ==> Input File <==

--------------------------------------------------------------------------
set {
	reference rhf
	basis cc-pvtz
}

set_num_threads( 4 )
memory 2 gb

molecule MOL {
0 1

H	 -2.698799	 -0.000846	 0.036018
C	 -1.694291	 -0.000483	 0.434279
O	 -0.828718	 -0.000608	 -0.655022
H	 -1.576855	 0.881100	 1.056504
H	 -1.576401	 -0.881658	 1.057001
C	 -0.406773	 1.231089	 -1.186777
C	 -1.557500	 2.040303	 -1.774374
C	 0.425465	 2.041098	 -0.199096
H	 0.241894	 0.938953	 -2.003175
H	 -2.149195	 1.425023	 -2.440997
H	 -1.166341	 2.877237	 -2.341192
H	 -2.209697	 2.441928	 -1.007615
H	 1.208994	 1.426405	 0.226672
H	 0.888636	 2.878140	 -0.708611
H	 -0.174094	 2.442641	 0.609504

	symmetry c1
}
set optking {
	frozen_dihedral = ("
		6 3 2 1
	")
}

ee = optimize('scf')
oeprop('DIPOLE', 'QUADRUPOLE', 'MULLIKEN_CHARGES')
f=open( 'psi4out.xyz', 'w' )
f.write( "15  " )
f.write( str(ee) + "\n" )
f.write( MOL.save_string_xyz() )
f.close()
--------------------------------------------------------------------------

    Molecular point group: c1
  Charge       = 0
  Multiplicity = 1
  Basis Set: CC-PVTZ
  Basis Set:
  @DF-RHF Final Energy:  -232.22327217259306
    Total Energy =                       -232.2232721725931128
    Molecular point group: c1
  Basis Set: CC-PVTZ
  Basis Set:
  Basis Set: CC-PVTZ
  Basis Set:
  @DF-RHF Final Energy:  -232.22483935103287
    Total Energy =                       -232.2248393510328697
  Basis Set: CC-PVTZ
  Basis Set:
  Basis Set: CC-PVTZ
  Basis Set:
  @DF-RHF Final Energy:  -232.22522334382549
    Total Energy =                       -232.2252233438252915
  Basis Set: CC-PVTZ
  Basis Set:
  Basis Set: CC-PVTZ
  Basis Set:
  @DF-RHF Final Energy:  -232.22522267940764
    Total Energy =                       -232.2252226794075227
  Basis Set: CC-PVTZ
  Basis Set:
  Basis Set: CC-PVTZ
  Basis Set:
  @DF-RHF Final Energy:  -232.22525116116083
    Total Energy =                       -232.2252511611605996
  Basis Set: CC-PVTZ
  Basis Set:
  Basis Set: CC-PVTZ
  Basis Set:
  @DF-RHF Final Energy:  -232.22525401548282
    Total Energy =                       -232.2252540154829603
  Basis Set: CC-PVTZ
  Basis Set:
  Charge       = 0
  Multiplicity = 1
  Basis Set: CC-PVTZ
  Basis Set:

    Orbital Energies (a.u.)
    -----------------------

    Doubly Occupied:

       1A    -20.540795     2A    -11.272863     3A    -11.258852
       4A    -11.209301     5A    -11.208031     6A     -1.372566
       7A     -1.051223     8A     -0.940641     9A     -0.931336
      10A     -0.781605    11A     -0.676764    12A     -0.641526
      13A     -0.634172    14A     -0.571936    15A     -0.563987
      16A     -0.552882    17A     -0.536130    18A     -0.500467
      19A     -0.497790    20A     -0.444391    21A     -0.407619

  @DF-RHF Final Energy:  -232.22525417778161

   => Energetics <=

    Nuclear Repulsion Energy =            199.0190679021405913
    One-Electron Energy =                -709.2988853276071950
    Two-Electron Energy =                 278.0545632476848255
    DFT Exchange-Correlation Energy =       0.0000000000000000
    Empirical Dispersion Energy =           0.0000000000000000
    PCM Polarization Energy =               0.0000000000000000
    EFP Energy =                            0.0000000000000000
    Total Energy =                       -232.2252541777817783
    Molecular point group: c1
  Basis Set: CC-PVTZ
  Basis Set:

  -Total Gradient:
     Atom            X                  Y                   Z
    ------   -----------------  -----------------  -----------------
       1        0.000088811055    -0.001925652448     0.000109649009
       2        0.000453334425     0.002562427063     0.000391757657
       3       -0.001667715072    -0.000747138558    -0.001568481371
       4       -0.000019782689    -0.000008010191     0.000017490962
       5        0.000011347848     0.000003272912    -0.000015188159
       6        0.001128236277     0.000090900273     0.001085542278
       7        0.000002900857     0.000024816773    -0.000018169190
       8       -0.000003372767    -0.000012837102     0.000000165739
       9        0.000003948416     0.000010243011     0.000005342689
      10        0.000007481224     0.000000792805     0.000000952711
      11       -0.000008816767     0.000012676156    -0.000005734917
      12        0.000001203650    -0.000003734199     0.000001322238
      13        0.000007731061     0.000001431653     0.000005729142
      14       -0.000006653863    -0.000009713186    -0.000006306445
      15        0.000001346345     0.000000525039    -0.000004072344

  **** Optimization is complete! (in 7 steps) ****
    Final optimized geometry and variables:
    Molecular point group: c1

    Geometry (in Angstrom), charge = 0, multiplicity = 1:

    H           -1.933634004322    -1.112088057070     0.658348082877
    C           -0.925885640079    -1.042273306253     1.056978616247
    O            0.025767296286    -1.052769145681     0.039206480553
    H           -0.860359816760    -0.165883477902     1.690795857173
    H           -0.751621458720    -1.914431665897     1.672771535587
    C            0.431268061427     0.170083799289    -0.524284695985
    C           -0.735354946417     0.964613171571    -1.099457907408
    C            1.283225953014     0.992689962100     0.435961760906
    H            1.065473250580    -0.131526550673    -1.348637214611
    H           -1.316158399628     0.347625805489    -1.774249550902
    H           -0.365515334540     1.819413471132    -1.653667120821
    H           -1.394604897135     1.336280409410    -0.323083017798
    H            2.085571813843     0.385626865893     0.836262255249
    H            1.720902223608     1.835090013488    -0.087607070814
    H            0.706921488785     1.387841448285     1.264270645537

  Mulliken Charges: (a.u.)
   Center  Symbol    Alpha    Beta     Spin     Total
       1     H     0.46331  0.46331  0.00000  0.07339
       2     C     3.04051  3.04051  0.00000 -0.08101
       3     O     4.18517  4.18517  0.00000 -0.37034
       4     H     0.46981  0.46981  0.00000  0.06038
       5     H     0.44471  0.44471  0.00000  0.11058
       6     C     2.93772  2.93772  0.00000  0.12455
       7     C     3.15844  3.15844  0.00000 -0.31688
       8     C     3.15366  3.15366  0.00000 -0.30733
       9     H     0.44664  0.44664  0.00000  0.10673
      10     H     0.44437  0.44437  0.00000  0.11126
      11     H     0.44855  0.44855  0.00000  0.10291
      12     H     0.45513  0.45513  0.00000  0.08973
      13     H     0.44473  0.44473  0.00000  0.11054
      14     H     0.45128  0.45128  0.00000  0.09743
      15     H     0.45597  0.45597  0.00000  0.08807

   Total alpha = 21.00000, Total beta = 21.00000, Total charge = -0.00000
