                              Psi4 1.0.54 Driver

  ==> Input File <==

--------------------------------------------------------------------------
set {
	reference rhf
	basis cc-pvtz
}

set_num_threads( 4 )
memory 2 gb

molecule MOL {
0 1

H	 -2.371501	 -2.655154	 -2.102806
O	 -2.396871	 -1.939869	 -1.494596
C	 -1.093136	 -1.551103	 -1.151734
C	 -1.175688	 -0.398187	 -0.171891
H	 -0.554059	 -2.382086	 -0.701581
H	 -0.541634	 -1.244914	 -2.038257
C	 0.196029	 0.106276	 0.266738
H	 -1.747258	 -0.721859	 0.692264
H	 -1.738810	 0.406214	 -0.634220
C	 1.330220	 -0.826136	 -0.155230
H	 0.359542	 1.097229	 -0.145561
H	 0.212134	 0.218135	 1.348778
C	 2.719700	 -0.407669	 0.328325
H	 1.339388	 -0.911200	 -1.239363
H	 1.119001	 -1.821953	 0.224128
C	 3.241564	 0.893452	 -0.276737
H	 3.418299	 -1.204729	 0.093035
H	 2.711776	 -0.323368	 1.411960
H	 3.254204	 0.841071	 -1.360784
H	 2.634460	 1.745075	 0.005842
H	 4.254264	 1.092401	 0.054971

	symmetry c1
}
set optking {
	frozen_dihedral = ("
		8 4 7 10
	")
}

ee,wfn = optimize('scf', return_wfn=True)
oeprop( wfn, 'DIPOLE', 'QUADRUPOLE', 'MULLIKEN_CHARGES')
f=open( 'psi4out.xyz', 'w' )
f.write( "21  " )
f.write( str(ee) + "\n" )
f.write( MOL.save_string_xyz() )
f.close()
--------------------------------------------------------------------------

    Molecular point group: c1
  Charge       = 0
  Multiplicity = 1
  Basis Set: CC-PVTZ
  Basis Set:
  @DF-RHF Final Energy:  -310.31866448659116
    Total Energy =                       -310.3186644865912172
    Molecular point group: c1
  Basis Set: CC-PVTZ
  Basis Set:
  Basis Set: CC-PVTZ
  Basis Set:
  @DF-RHF Final Energy:  -310.01527275061665
    Total Energy =                       -310.0152727506170436
  Basis Set: CC-PVTZ
  Basis Set:
  Basis Set: CC-PVTZ
  Basis Set:
  @DF-RHF Final Energy:  -310.16992992356410
    Total Energy =                       -310.1699299235642684
  Basis Set: CC-PVTZ
  Basis Set:
  Basis Set: CC-PVTZ
  Basis Set:
  @DF-RHF Final Energy:  -310.29371429618703
    Total Energy =                       -310.2937142961867494
  Basis Set: CC-PVTZ
  Basis Set:
  @DF-RHF Final Energy:  -310.32042602403811
    Total Energy =                       -310.3204260240379995
  @DF-RHF Final Energy:  -310.32318358590277
    Total Energy =                       -310.3231835859028251
  @DF-RHF Final Energy:  -310.32358098410856
    Total Energy =                       -310.3235809841083892
  Basis Set: CC-PVTZ
  Basis Set:
  @DF-RHF Final Energy:  -310.32360173472892
    Total Energy =                       -310.3236017347292091
  Basis Set: CC-PVTZ
  Basis Set:
  Basis Set: CC-PVTZ
  Basis Set:
  @DF-RHF Final Energy:  -310.32359928833142
    Total Energy =                       -310.3235992883315930
  Basis Set: CC-PVTZ
  Basis Set:
  Basis Set: CC-PVTZ
  Basis Set:
  @DF-RHF Final Energy:  -310.32361175339781
    Total Energy =                       -310.3236117533978131
  Basis Set: CC-PVTZ
  Basis Set:
  Charge       = 0
  Multiplicity = 1
  Basis Set: CC-PVTZ
  Basis Set:

    Orbital Energies (a.u.)
    -----------------------

    Doubly Occupied:

       1A    -20.544799     2A    -11.264516     3A    -11.214488
       4A    -11.213613     5A    -11.213004     6A    -11.208906
       7A    -11.206804     8A     -1.362626     9A     -1.085395
      10A     -1.030484    11A     -0.952272    12A     -0.887464
      13A     -0.816058    14A     -0.763319    15A     -0.698698
      16A     -0.660397    17A     -0.620485    18A     -0.608674
      19A     -0.590627    20A     -0.566329    21A     -0.544326
      22A     -0.522304    23A     -0.514215    24A     -0.490855
      25A     -0.480277    26A     -0.460456    27A     -0.451882
      28A     -0.444888    29A     -0.429221

  @DF-RHF Final Energy:  -310.32361180212263

   => Energetics <=

    Nuclear Repulsion Energy =            317.1223421519056274
    One-Electron Energy =               -1049.1971419374201560
    Two-Electron Energy =                 421.7511879833918442
    DFT Exchange-Correlation Energy =       0.0000000000000000
    Empirical Dispersion Energy =           0.0000000000000000
    PCM Polarization Energy =               0.0000000000000000
    EFP Energy =                            0.0000000000000000
    Total Energy =                       -310.3236118021226844
    Molecular point group: c1
  Basis Set: CC-PVTZ
  Basis Set:

  -Total Gradient:
     Atom            X                  Y                   Z
    ------   -----------------  -----------------  -----------------
       1        0.000000623720     0.000001123957    -0.000005531867
       2       -0.000011183664    -0.000005439484     0.000001068072
       3        0.000034214989     0.000006444417     0.000006201144
       4        0.002376532171    -0.004370715036    -0.000875149590
       5       -0.000009971806    -0.000002084533    -0.000002837836
       6       -0.000009022563    -0.000005468988     0.000005697202
       7        0.000827486529     0.000333133335     0.004336493221
       8       -0.002271777427     0.003656911981    -0.000409351149
       9        0.000001804746     0.000001061912     0.000003892902
      10       -0.000946768113     0.000391058542    -0.003054142549
      11        0.000005778492    -0.000000837890     0.000001840708
      12        0.000002774693    -0.000002081072    -0.000003637960
      13        0.000004332845     0.000001950786    -0.000002409885
      14       -0.000003868295    -0.000000123277     0.000000000814
      15        0.000007352258     0.000007225974    -0.000004977723
      16       -0.000004413611    -0.000006678819     0.000002789989
      17        0.000001493421    -0.000000365646    -0.000001361673
      18       -0.000005974879    -0.000001698748    -0.000001207111
      19        0.000000078487     0.000000681570    -0.000001061381
      20        0.000001110318    -0.000000405474     0.000001646682
      21       -0.000000602317    -0.000003693508     0.000002037991

  **** Optimization is complete! (in 11 steps) ****
    Final optimized geometry and variables:
    Molecular point group: c1

    Geometry (in Angstrom), charge = 0, multiplicity = 1:

    H           -2.813148273223    -2.752013666004     0.259927704011
    O           -2.717327839748    -1.864167003312     0.550869295335
    C           -1.447999322202    -1.377212185106     0.199065378763
    C           -1.353480587560     0.049736361787     0.706554778894
    H           -0.673391267284    -1.998344454108     0.637808964523
    H           -1.321485081851    -1.405121116623    -0.880167065241
    C           -0.048695071036     0.825231564431     0.399830194547
    H           -1.544978758317     0.048947845162     1.773479701177
    H           -2.190183641218     0.589416592282     0.277244895817
    C            1.153718066404     0.003368251500    -0.073230742056
    H           -0.267530913291     1.568764186430    -0.357173632739
    H            0.241195824897     1.381527865183     1.284874541466
    C            2.420360830484     0.832793578224    -0.299315813965
    H            0.909592350874    -0.519160836394    -0.993330892975
    H            1.382018728675    -0.761679830938     0.662735085822
    C            2.342155771541     1.823312437869    -1.458822291082
    H            3.245336865954     0.151156037020    -0.482595111632
    H            2.666912756081     1.366430903047     0.614739215329
    H            2.084417202420     1.319090113272    -2.384860817702
    H            1.603261683261     2.596074851779    -1.286313517753
    H            3.296899821458     2.314826500131    -1.607043122720

  Mulliken Charges: (a.u.)
   Center  Symbol    Alpha    Beta     Spin     Total
       1     H     0.39781  0.39781  0.00000  0.20437
       2     O     4.19487  4.19487  0.00000 -0.38974
       3     C     2.96757  2.96757  0.00000  0.06487
       4     C     3.08983  3.08983  0.00000 -0.17965
       5     H     0.47170  0.47170  0.00000  0.05660
       6     H     0.47180  0.47180  0.00000  0.05640
       7     C     3.10604  3.10604  0.00000 -0.21208
       8     H     0.44849  0.44849  0.00000  0.10302
       9     H     0.44890  0.44890  0.00000  0.10220
      10     C     3.10478  3.10478  0.00000 -0.20955
      11     H     0.44973  0.44973  0.00000  0.10053
      12     H     0.44902  0.44902  0.00000  0.10196
      13     C     3.09029  3.09029  0.00000 -0.18058
      14     H     0.45198  0.45198  0.00000  0.09603
      15     H     0.44734  0.44734  0.00000  0.10532
      16     C     3.15222  3.15222  0.00000 -0.30445
      17     H     0.44826  0.44826  0.00000  0.10347
      18     H     0.45456  0.45456  0.00000  0.09089
      19     H     0.45548  0.45548  0.00000  0.08904
      20     H     0.45307  0.45307  0.00000  0.09386
      21     H     0.44626  0.44626  0.00000  0.10748

   Total alpha = 29.00000, Total beta = 29.00000, Total charge = -0.00000

*** Psi4 exiting successfully. Buy a developer a beer!
