  ==> Input File <==

--------------------------------------------------------------------------
set {
	reference rhf
	basis cc-pvtz
}

set_num_threads( 4 )
memory 2 gb

molecule MOL {
0 1

H	 0.836978	 -0.586888	 2.242330
C	 -0.118569	 -0.646375	 1.742227
O	 -0.000000	 0.000000	 0.518769
H	 -0.382768	 -1.694218	 1.615428
H	 -0.872306	 -0.175829	 2.370178
C	 -1.165153	 0.000000	 -0.236961
H	 -1.229451	 0.882440	 -0.870223
H	 -2.002557	 0.000000	 0.445289
H	 -1.229451	 -0.882440	 -0.870223

	symmetry c1
}
set optking {
	frozen_dihedral = ("
		2 3 6 7
	")
}

ee = optimize('scf')
oeprop('DIPOLE', 'QUADRUPOLE', 'MULLIKEN_CHARGES')
f=open( 'psi4out.xyz', 'w' )
f.write( "9  " )
f.write( str(ee) + "\n" )
f.write( MOL.save_string_xyz() )
f.close()
--------------------------------------------------------------------------

    Molecular point group: c1
  Charge       = 0
  Multiplicity = 1
  Basis Set: CC-PVTZ
  Basis Set:
  @DF-RHF Final Energy:  -154.12435802074378
    Total Energy =                       -154.1243580207436992
    Molecular point group: c1
  Basis Set: CC-PVTZ
  Basis Set:
  Basis Set: CC-PVTZ
  Basis Set:
  @DF-RHF Final Energy:  -154.12515999623616
    Total Energy =                       -154.1251599962361354
  Basis Set: CC-PVTZ
  Basis Set:
  Basis Set: CC-PVTZ
  Basis Set:
  @DF-RHF Final Energy:  -154.12535145570700
    Total Energy =                       -154.1253514557069479
  Basis Set: CC-PVTZ
  Basis Set:
  Charge       = 0
  Multiplicity = 1
  Basis Set: CC-PVTZ
  Basis Set:

    Orbital Energies (a.u.)
    -----------------------

    Doubly Occupied:

       1A    -20.548580     2A    -11.263413     3A    -11.262884
       4A     -1.380416     5A     -0.975853     6A     -0.872708
       7A     -0.662192     8A     -0.654773     9A     -0.645928
      10A     -0.556494    11A     -0.527505    12A     -0.475764
      13A     -0.418124

  @DF-RHF Final Energy:  -154.12535267158137

   => Energetics <=

    Nuclear Repulsion Energy =             84.7290528294160055
    One-Electron Energy =                -377.2195453857165148
    Two-Electron Energy =                 138.3651398847190421
    DFT Exchange-Correlation Energy =       0.0000000000000000
    Empirical Dispersion Energy =           0.0000000000000000
    PCM Polarization Energy =               0.0000000000000000
    EFP Energy =                            0.0000000000000000
    Total Energy =                       -154.1253526715814814
    Molecular point group: c1
  Basis Set: CC-PVTZ
  Basis Set:

  -Total Gradient:
     Atom            X                  Y                   Z
    ------   -----------------  -----------------  -----------------
       1        0.000011396866     0.000038842185    -0.000064094362
       2       -0.000797705124     0.001994131364     0.000977015873
       3        0.000622076333    -0.002521629280    -0.001010955299
       4        0.000010083607     0.000012153151    -0.000007215030
       5       -0.000005573973     0.000018858150    -0.000011712206
       6        0.001424322793    -0.000961841137    -0.002098921666
       7       -0.001308819169     0.001424271701     0.002170378701
       8       -0.000010284387    -0.000004720874     0.000026173681
       9        0.000054503054    -0.000000065260     0.000019330310

  **** Optimization is complete! (in 4 steps) ****
    Final optimized geometry and variables:
    Molecular point group: c1

    Geometry (in Angstrom), charge = 0, multiplicity = 1:

    H            1.300173883815    -0.354173112450     1.550211367083
    C            0.336782590018    -0.422104018926     1.065804803547
    O            0.434214661876     0.221198922433    -0.161477067432
    H            0.078910904055    -1.473283016320     0.952053774148
    H           -0.409376546293     0.048161507512     1.702003967386
    C           -0.732490434043     0.218537499605    -0.920017038640
    H           -0.745735032784     1.113763094212    -1.526410901382
    H           -1.617785722905     0.235232629776    -0.289103065977
    H           -0.785863764074    -0.656456850559    -1.561866841029

  Mulliken Charges: (a.u.)
   Center  Symbol    Alpha    Beta     Spin     Total
       1     H     0.44922  0.44922  0.00000  0.10157
       2     C     3.02138  3.02138  0.00000 -0.04277
       3     O     4.17009  4.17009  0.00000 -0.34017
       4     H     0.47369  0.47369  0.00000  0.05261
       5     H     0.47216  0.47216  0.00000  0.05569
       6     C     3.01880  3.01880  0.00000 -0.03761
       7     H     0.45213  0.45213  0.00000  0.09574
       8     H     0.47615  0.47615  0.00000  0.04770
       9     H     0.46638  0.46638  0.00000  0.06724

   Total alpha = 13.00000, Total beta = 13.00000, Total charge =  0.00000
