                              Psi4 1.0.54 Driver

  ==> Input File <==

--------------------------------------------------------------------------
set {
	reference rhf
	basis cc-pvtz
}

set_num_threads( 4 )
memory 2 gb

molecule MOL {
0 1

H	 1.419524	 0.920703	 0.803879
C	 0.848385	 0.440008	 0.000011
C	 -0.623497	 0.751021	 0.000090
O	 1.394853	 -0.259419	 -0.780641
C	 -1.523725	 -0.474323	 -0.000013
H	 -0.813143	 1.382932	 -0.864897
H	 -0.813071	 1.382716	 0.865253
H	 -1.342980	 -1.087348	 -0.873016
H	 -2.565269	 -0.177464	 0.000070
H	 -1.342898	 -1.087564	 0.872820

	symmetry c1
}
set optking {
	frozen_dihedral = ("
		4 2 3 6
	")
}

ee,wfn = optimize('scf', return_wfn=True)
oeprop( wfn, 'DIPOLE', 'QUADRUPOLE', 'MULLIKEN_CHARGES')
f=open( 'psi4out.xyz', 'w' )
f.write( "10  " )
f.write( str(ee) + "\n" )
f.write( MOL.save_string_xyz() )
f.close()
--------------------------------------------------------------------------

    Molecular point group: c1
  Charge       = 0
  Multiplicity = 1
  Basis Set: CC-PVTZ
  Basis Set:
  @DF-RHF Final Energy:  -192.02098778146086
    Total Energy =                       -192.0209877814608035
    Molecular point group: c1
  Basis Set: CC-PVTZ
  Basis Set:
  Basis Set: CC-PVTZ
  Basis Set:
  @DF-RHF Final Energy:  -192.02144713159532
    Total Energy =                       -192.0214471315954086
  Basis Set: CC-PVTZ
  Basis Set:
  Basis Set: CC-PVTZ
  Basis Set:
  @DF-RHF Final Energy:  -192.01962405917141
    Total Energy =                       -192.0196240591712922
  Basis Set: CC-PVTZ
  Basis Set:
  Basis Set: CC-PVTZ
  Basis Set:
  @DF-RHF Final Energy:  -192.02080205983526
    Total Energy =                       -192.0208020598353187
  Basis Set: CC-PVTZ
  Basis Set:
  Basis Set: CC-PVTZ
  Basis Set:
  @DF-RHF Final Energy:  -192.02174205908733
    Total Energy =                       -192.0217420590873019
  Basis Set: CC-PVTZ
  Basis Set:
  Charge       = 0
  Multiplicity = 1
  Basis Set: CC-PVTZ
  Basis Set:

    Orbital Energies (a.u.)
    -----------------------

    Doubly Occupied:

       1A    -20.553487     2A    -11.323664     3A    -11.238087
       4A    -11.223172     5A     -1.409196     6A     -1.060862
       7A     -0.907249     8A     -0.781490     9A     -0.686412
      10A     -0.641561    11A     -0.616791    12A     -0.563509
      13A     -0.537344    14A     -0.513871    15A     -0.494345
      16A     -0.414754

  @DF-RHF Final Energy:  -192.02174343363691

   => Energetics <=

    Nuclear Repulsion Energy =            118.9524692387038272
    One-Electron Energy =                -496.0168377901472354
    Two-Electron Energy =                 185.0426251178064661
    DFT Exchange-Correlation Energy =       0.0000000000000000
    Empirical Dispersion Energy =           0.0000000000000000
    PCM Polarization Energy =               0.0000000000000000
    EFP Energy =                            0.0000000000000000
    Total Energy =                       -192.0217434336369422
    Molecular point group: c1
  Basis Set: CC-PVTZ
  Basis Set:

  -Total Gradient:
     Atom            X                  Y                   Z
    ------   -----------------  -----------------  -----------------
       1       -0.000054882041     0.000020479803     0.000002692399
       2       -0.000138316585    -0.001949550228     0.000892084433
       3       -0.000048230954     0.001699845707     0.000705586878
       4        0.000108714625     0.001199510516    -0.000766280251
       5        0.000063580073     0.000082933686     0.000010410831
       6        0.000083177611    -0.001062157186    -0.000832750037
       7        0.000003761572     0.000024240354     0.000018790574
       8       -0.000001026698    -0.000027449611    -0.000033717483
       9       -0.000019028074     0.000004479393    -0.000004263968
      10        0.000002250472     0.000007667565     0.000007446625

  **** Optimization is complete! (in 6 steps) ****
    Final optimized geometry and variables:
    Molecular point group: c1

    Geometry (in Angstrom), charge = 0, multiplicity = 1:

    H            1.129706390139     0.973904218258     1.239420520427
    C            0.721031534104     0.460548411478     0.361267955058
    C           -0.778563972655     0.525681453986     0.181439566245
    O            1.448632713714    -0.081512038714    -0.396834245661
    C           -1.394108077515    -0.842875505351    -0.106198066684
    H           -0.958790696210     1.186862858976    -0.661292509185
    H           -1.229219033832     0.981144438492     1.055165573611
    H           -0.935887091914    -1.289248258585    -0.977432911249
    H           -2.457674821715    -0.748093554065    -0.285572727690
    H           -1.254552224855    -1.517810303777     0.730316213273

  Mulliken Charges: (a.u.)
   Center  Symbol    Alpha    Beta     Spin     Total
       1     H     0.45577  0.45577  0.00000  0.08846
       2     C     2.91139  2.91139  0.00000  0.17723
       3     C     3.08426  3.08426  0.00000 -0.16852
       4     O     4.16749  4.16749  0.00000 -0.33499
       5     C     3.14305  3.14305  0.00000 -0.28610
       6     H     0.44528  0.44528  0.00000  0.10945
       7     H     0.44893  0.44893  0.00000  0.10213
       8     H     0.44155  0.44155  0.00000  0.11689
       9     H     0.44869  0.44869  0.00000  0.10261
      10     H     0.45358  0.45358  0.00000  0.09283

   Total alpha = 16.00000, Total beta = 16.00000, Total charge = -0.00000

*** Psi4 exiting successfully. Buy a developer a beer!
