  ==> Input File <==

--------------------------------------------------------------------------
set {
	reference rhf
	basis 6-31G*
}

set_num_threads( 4 )
memory 2 gb

molecule MOL {
0 1

H	 3.126312	 0.345577	 0.848213
N	 2.261359	 -0.159580	 0.861835
C	 1.267428	 0.496480	 0.024474
H	 1.955495	 -0.184088	 1.816173
C	 -0.016086	 -0.325158	 -0.029487
H	 1.682002	 0.579791	 -0.975637
H	 1.033563	 1.512552	 0.352018
C	 -1.282277	 0.529072	 0.046735
H	 -0.012495	 -0.908639	 -0.945788
H	 -0.015903	 -1.041248	 0.791956
C	 -2.563920	 -0.301775	 -0.006060
H	 -1.284084	 1.244622	 -0.773004
H	 -1.271387	 1.115393	 0.963286
H	 -2.621848	 -0.873522	 -0.927727
H	 -3.445135	 0.329952	 0.047812
H	 -2.609542	 -1.004582	 0.821105

	symmetry c1
}
set optking {
	frozen_dihedral = ("
		6 3 5 9
	")
}

ee = optimize('scf')
oeprop('DIPOLE', 'QUADRUPOLE', 'MULLIKEN_CHARGES')
f=open( 'psi4out.xyz', 'w' )
f.write( "16  " )
f.write( str(ee) + "\n" )
f.write( MOL.save_string_xyz() )
f.close()
--------------------------------------------------------------------------

    Molecular point group: c1
  Charge       = 0
  Multiplicity = 1
  Basis Set: 6-31G*
  Basis Set:
  @DF-RHF Final Energy:  -212.31189342028475
    Total Energy =                       -212.3118934202847186
    Molecular point group: c1
  Basis Set: 6-31G*
  Basis Set:
  Basis Set: 6-31G*
  Basis Set:
  @DF-RHF Final Energy:  -212.31222884263897
    Total Energy =                       -212.3122288426390583
  Basis Set: 6-31G*
  Basis Set:
  Basis Set: 6-31G*
  Basis Set:
  @DF-RHF Final Energy:  -212.31233877734479
    Total Energy =                       -212.3123387773448485
  Basis Set: 6-31G*
  Basis Set:
  Basis Set: 6-31G*
  Basis Set:
  @DF-RHF Final Energy:  -212.31233997994252
    Total Energy =                       -212.3123399799425215
  Basis Set: 6-31G*
  Basis Set:
  Charge       = 0
  Multiplicity = 1
  Basis Set: 6-31G*
  Basis Set:

    Orbital Energies (a.u.)
    -----------------------

    Doubly Occupied:

       1A    -15.532313     2A    -11.240189     3A    -11.215090
       4A    -11.209847     5A    -11.207898     6A     -1.175419
       7A     -1.058657     8A     -0.956828     9A     -0.845225
      10A     -0.791133    11A     -0.667994    12A     -0.624556
      13A     -0.614778    14A     -0.575302    15A     -0.556500
      16A     -0.529990    17A     -0.504231    18A     -0.471752
      19A     -0.465142    20A     -0.455006    21A     -0.380254

  @DF-RHF Final Energy:  -212.31234011865459

   => Energetics <=

    Nuclear Repulsion Energy =            186.2587662062192351
    One-Electron Energy =                -654.9860070101101428
    Two-Electron Energy =                 256.4149006852361481
    DFT Exchange-Correlation Energy =       0.0000000000000000
    Empirical Dispersion Energy =           0.0000000000000000
    PCM Polarization Energy =               0.0000000000000000
    EFP Energy =                            0.0000000000000000
    Total Energy =                       -212.3123401186547881
    Molecular point group: c1
  Basis Set: 6-31G*
  Basis Set:

  -Total Gradient:
     Atom            X                  Y                   Z
    ------   -----------------  -----------------  -----------------
       1        0.000028871211    -0.000017140309     0.000023574976
       2        0.000038918713     0.000047794460    -0.000064198330
       3       -0.003208749727     0.004916692931    -0.001120659127
       4       -0.000022436529     0.000028004162    -0.000047058009
       5        0.002880917406    -0.004583629174     0.002514642136
       6        0.002206924525    -0.003445456923     0.000645634390
       7        0.000002012171    -0.000033415068     0.000003208465
       8        0.000005264769    -0.000010953100    -0.000014524255
       9       -0.001893683179     0.003078135126    -0.001949600961
      10       -0.000007381267     0.000019021010    -0.000009028914
      11       -0.000026687888     0.000009103901     0.000043114612
      12        0.000020849462    -0.000013654875    -0.000017494124
      13       -0.000005263311     0.000013050520    -0.000008774620
      14        0.000004133140     0.000010588277     0.000000290303
      15       -0.000018826507    -0.000009698758     0.000009739747
      16       -0.000004862988    -0.000008442181    -0.000008866289

  **** Optimization is complete! (in 5 steps) ****
    Final optimized geometry and variables:
    Molecular point group: c1

    Geometry (in Angstrom), charge = 0, multiplicity = 1:

    H            3.196703896909     0.290532733501     0.594967661848
    N            2.330304684316    -0.210966046291     0.638435805723
    C            1.307275458914     0.455982900005    -0.159165599114
    H            2.060121049708    -0.239314213726     1.603398530335
    C            0.015832134261    -0.378427967608    -0.192760612028
    H            1.713668583852     0.540524163558    -1.161021016974
    H            1.089072621319     1.466353336690     0.191274822202
    C           -1.254304690676     0.476001085237    -0.149627711286
    H           -0.006780563856    -0.973458268326    -1.101291344720
    H            0.014668215919    -1.074190456638     0.641473530518
    C           -2.534460618398    -0.354369942433    -0.228154920559
    H           -1.237581397758     1.190180684767    -0.970893602332
    H           -1.261951079063     1.066195841083     0.764750025815
    H           -2.576138319217    -0.924156856854    -1.152116783101
    H           -3.417015344249     0.276684980747    -0.188633201592
    H           -2.594673163552    -1.059790276514     0.595958851870

  Mulliken Charges: (a.u.)
   Center  Symbol    Alpha    Beta     Spin     Total
       1     H     0.33353  0.33353  0.00000  0.33294
       2     N     3.92155  3.92155  0.00000 -0.84309
       3     C     3.06378  3.06378  0.00000 -0.12756
       4     H     0.33604  0.33604  0.00000  0.32792
       5     C     3.15232  3.15232  0.00000 -0.30463
       6     H     0.41854  0.41854  0.00000  0.16291
       7     H     0.43153  0.43153  0.00000  0.13694
       8     C     3.15689  3.15689  0.00000 -0.31378
       9     H     0.41796  0.41796  0.00000  0.16407
      10     H     0.41837  0.41837  0.00000  0.16327
      11     C     3.23922  3.23922  0.00000 -0.47843
      12     H     0.42334  0.42334  0.00000  0.15332
      13     H     0.42451  0.42451  0.00000  0.15098
      14     H     0.42118  0.42118  0.00000  0.15764
      15     H     0.41966  0.41966  0.00000  0.16069
      16     H     0.42159  0.42159  0.00000  0.15682

   Total alpha = 21.00000, Total beta = 21.00000, Total charge = -0.00000
