  ==> Input File <==

--------------------------------------------------------------------------
set {
	reference rhf
	basis 6-31G*
}

set_num_threads( 4 )
memory 2 gb

molecule MOL {
0 1

H	 -3.715184	 0.291623	 -1.074405
O	 -3.517110	 -0.026191	 -0.205115
C	 -2.306886	 0.532354	 0.237577
C	 -1.177863	 -0.397191	 -0.171080
H	 -2.156308	 1.517575	 -0.201710
H	 -2.315015	 0.655684	 1.319734
C	 0.198102	 0.111031	 0.262842
H	 -1.208843	 -0.518759	 -1.250427
H	 -1.368741	 -1.376554	 0.258909
C	 1.331804	 -0.827780	 -0.158768
H	 0.361943	 1.100838	 -0.156218
H	 0.217265	 0.229072	 1.345532
C	 2.723619	 -0.410569	 0.329459
H	 1.342964	 -0.912588	 -1.244120
H	 1.116806	 -1.824343	 0.220779
C	 3.243875	 0.895854	 -0.272975
H	 3.424222	 -1.207124	 0.091250
H	 2.714788	 -0.329854	 1.414619
H	 3.251977	 0.848779	 -1.358681
H	 2.637085	 1.747371	 0.016682
H	 4.259473	 1.094070	 0.055697

	symmetry c1
}
set optking {
	frozen_dihedral = ("
		1 2 3 5
	")
}

ee = optimize('scf')
oeprop('DIPOLE', 'QUADRUPOLE', 'MULLIKEN_CHARGES')
f=open( 'psi4out.xyz', 'w' )
f.write( "21  " )
f.write( str(ee) + "\n" )
f.write( MOL.save_string_xyz() )
f.close()
--------------------------------------------------------------------------

    Molecular point group: c1
  Charge       = 0
  Multiplicity = 1
  Basis Set: 6-31G*
  Basis Set:
  @DF-RHF Final Energy:  -310.21058714256549
    Total Energy =                       -310.2105871425653731
    Molecular point group: c1
  Basis Set: 6-31G*
  Basis Set:
  Basis Set: 6-31G*
  Basis Set:
  @DF-RHF Final Energy:  -310.21153560178908
    Total Energy =                       -310.2115356017889098
  Basis Set: 6-31G*
  Basis Set:
  Basis Set: 6-31G*
  Basis Set:
  @DF-RHF Final Energy:  -310.21180556646766
    Total Energy =                       -310.2118055664678877
  Basis Set: 6-31G*
  Basis Set:
  Basis Set: 6-31G*
  Basis Set:
  @DF-RHF Final Energy:  -310.21180790878049
    Total Energy =                       -310.2118079087805427
  Basis Set: 6-31G*
  Basis Set:
  Basis Set: 6-31G*
  Basis Set:
  @DF-RHF Final Energy:  -310.21180628336509
    Total Energy =                       -310.2118062833653767
  Basis Set: 6-31G*
  Basis Set:
  Basis Set: 6-31G*
  Basis Set:
  @DF-RHF Final Energy:  -310.21180874931594
    Total Energy =                       -310.2118087493161056
  Basis Set: 6-31G*
  Basis Set:
  Charge       = 0
  Multiplicity = 1
  Basis Set: 6-31G*
  Basis Set:

    Orbital Energies (a.u.)
    -----------------------

    Doubly Occupied:

       1A    -20.551541     2A    -11.267370     3A    -11.217177
       4A    -11.216351     5A    -11.215220     6A    -11.212156
       7A    -11.209437     8A     -1.358083     9A     -1.087447
      10A     -1.033731    11A     -0.954866    12A     -0.878118
      13A     -0.813667    14A     -0.779773    15A     -0.699402
      16A     -0.644348    17A     -0.623419    18A     -0.605124
      19A     -0.592728    20A     -0.569640    21A     -0.546268
      22A     -0.521207    23A     -0.507130    24A     -0.495562
      25A     -0.469941    26A     -0.468963    27A     -0.461357
      28A     -0.456813    29A     -0.419088

  @DF-RHF Final Energy:  -310.21180866766161

   => Energetics <=

    Nuclear Repulsion Energy =            312.0893946704216546
    One-Electron Energy =               -1038.8505513877348676
    Two-Electron Energy =                 416.5493480496513712
    DFT Exchange-Correlation Energy =       0.0000000000000000
    Empirical Dispersion Energy =           0.0000000000000000
    PCM Polarization Energy =               0.0000000000000000
    EFP Energy =                            0.0000000000000000
    Total Energy =                       -310.2118086676618987
    Molecular point group: c1
  Basis Set: 6-31G*
  Basis Set:

  -Total Gradient:
     Atom            X                  Y                   Z
    ------   -----------------  -----------------  -----------------
       1       -0.000825886890     0.001365626146     0.000753616322
       2        0.001089855678    -0.001879803256    -0.001320195706
       3       -0.000987387051     0.001136530126     0.001779088035
       4        0.000054138221     0.000030950717    -0.000001644250
       5        0.000660436725    -0.000663319679    -0.001226792986
       6        0.000031269476     0.000013912281     0.000004045418
       7        0.000017950963    -0.000010793096     0.000012346806
       8       -0.000000404275    -0.000005747731    -0.000005340004
       9       -0.000010914519     0.000019757015     0.000010806681
      10        0.000009913246    -0.000008925949    -0.000014057042
      11        0.000002362062     0.000006604256     0.000003353275
      12       -0.000009756764    -0.000005290656     0.000009967458
      13       -0.000013133712     0.000011961370    -0.000003122398
      14       -0.000003586505    -0.000008451564    -0.000005649025
      15        0.000007690113     0.000000123963     0.000007676813
      16       -0.000001061566    -0.000001098613    -0.000002689847
      17       -0.000011758209    -0.000002708022    -0.000004705694
      18       -0.000002253891    -0.000001021030     0.000002624345
      19       -0.000001005462     0.000001081553    -0.000000442669
      20       -0.000008098804     0.000000596240     0.000001718058
      21        0.000001631163     0.000000015930    -0.000000603586

  **** Optimization is complete! (in 7 steps) ****
    Final optimized geometry and variables:
    Molecular point group: c1

    Geometry (in Angstrom), charge = 0, multiplicity = 1:

    H           -3.809741570461     0.329620613146    -0.997844163470
    O           -3.563500254448     0.002915326560    -0.145461741759
    C           -2.309626995131     0.524369527744     0.221182475969
    C           -1.172304410774    -0.405536293190    -0.182529663544
    H           -2.157493112671     1.506700884767    -0.221899022952
    H           -2.324633234988     0.652233861609     1.297176616669
    C            0.200698672249     0.105314850832     0.258270751204
    H           -1.188925689555    -0.533022906617    -1.263689724904
    H           -1.364198820033    -1.384966057078     0.246856559145
    C            1.340699229883    -0.830916655652    -0.151937152852
    H            0.365581669682     1.095323984248    -0.160627555331
    H            0.210231379464     0.225910978547     1.340737936081
    C            2.727479323097    -0.407316600612     0.345018016908
    H            1.360489603299    -0.919478064842    -1.237027660509
    H            1.126199594017    -1.826843993721     0.229447528796
    C            3.247364948415     0.899295219219    -0.257309888607
    H            3.432525626248    -1.202054779970     0.114047095054
    H            2.710445623055    -0.323647060271     1.429784781641
    H            3.263170500413     0.849430157342    -1.342862244667
    H            2.635839307265     1.749518747810     0.026118146725
    H            4.259996962523     1.101789575938     0.077711095995

  Mulliken Charges: (a.u.)
   Center  Symbol    Alpha    Beta     Spin     Total
       1     H     0.28114  0.28114  0.00000  0.43772
       2     O     4.37218  4.37218  0.00000 -0.74437
       3     C     2.99300  2.99300  0.00000  0.01399
       4     C     3.15953  3.15953  0.00000 -0.31906
       5     H     0.43235  0.43235  0.00000  0.13530
       6     H     0.41844  0.41844  0.00000  0.16312
       7     C     3.16254  3.16254  0.00000 -0.32507
       8     H     0.42616  0.42616  0.00000  0.14768
       9     H     0.41434  0.41434  0.00000  0.17132
      10     C     3.15143  3.15143  0.00000 -0.30285
      11     H     0.42247  0.42247  0.00000  0.15507
      12     H     0.42263  0.42263  0.00000  0.15474
      13     C     3.15253  3.15253  0.00000 -0.30506
      14     H     0.42405  0.42405  0.00000  0.15189
      15     H     0.42063  0.42063  0.00000  0.15873
      16     C     3.24126  3.24126  0.00000 -0.48251
      17     H     0.42053  0.42053  0.00000  0.15894
      18     H     0.42299  0.42299  0.00000  0.15402
      19     H     0.42243  0.42243  0.00000  0.15514
      20     H     0.42049  0.42049  0.00000  0.15902
      21     H     0.41888  0.41888  0.00000  0.16224

   Total alpha = 29.00000, Total beta = 29.00000, Total charge =  0.00000
