  ==> Input File <==

--------------------------------------------------------------------------
set {
	reference rhf
	basis 6-31G*
}

set_num_threads( 4 )
memory 2 gb

molecule MOL {
0 1

H	 -0.289610	 2.178005	 0.242750
C	 -0.114289	 1.262548	 0.798216
N	 -0.528168	 0.128977	 -0.000000
H	 -0.708458	 1.306994	 1.703768
H	 0.941545	 1.242386	 1.081189
C	 0.248044	 -0.037491	 -1.209632
H	 -0.482080	 -0.706157	 0.549049
H	 0.998722	 0.743888	 -1.266824
H	 -0.398417	 0.061950	 -2.074060
H	 0.763621	 -0.999315	 -1.275517

	symmetry c1
}
set optking {
	frozen_dihedral = ("
		2 3 6 8
	")
}

ee = optimize('scf')
oeprop('DIPOLE', 'QUADRUPOLE', 'MULLIKEN_CHARGES')
f=open( 'psi4out.xyz', 'w' )
f.write( "10  " )
f.write( str(ee) + "\n" )
f.write( MOL.save_string_xyz() )
f.close()
--------------------------------------------------------------------------

    Molecular point group: c1
  Charge       = 0
  Multiplicity = 1
  Basis Set: 6-31G*
  Basis Set:
  @DF-RHF Final Energy:  -134.23274814220252
    Total Energy =                       -134.2327481422025244
    Molecular point group: c1
  Basis Set: 6-31G*
  Basis Set:
  Basis Set: 6-31G*
  Basis Set:
  @DF-RHF Final Energy:  -134.23331015716121
    Total Energy =                       -134.2333101571612133
  Basis Set: 6-31G*
  Basis Set:
  Basis Set: 6-31G*
  Basis Set:
  @DF-RHF Final Energy:  -134.23344727446084
    Total Energy =                       -134.2334472744608433
  Basis Set: 6-31G*
  Basis Set:
  Basis Set: 6-31G*
  Basis Set:
  @DF-RHF Final Energy:  -134.23344959476540
    Total Energy =                       -134.2334495947653181
  Basis Set: 6-31G*
  Basis Set:
  Charge       = 0
  Multiplicity = 1
  Basis Set: 6-31G*
  Basis Set:

    Orbital Energies (a.u.)
    -----------------------

    Doubly Occupied:

       1A    -15.534520     2A    -11.236057     3A    -11.235673
       4A     -1.194131     5A     -0.947607     6A     -0.854517
       7A     -0.659467     8A     -0.608964     9A     -0.587662
      10A     -0.545812    11A     -0.510393    12A     -0.505805
      13A     -0.355356

  @DF-RHF Final Energy:  -134.23344992725993

   => Energetics <=

    Nuclear Repulsion Energy =             84.3580522948316371
    One-Electron Energy =                -347.6310789295148425
    Two-Electron Energy =                 129.0395767074232936
    DFT Exchange-Correlation Energy =       0.0000000000000000
    Empirical Dispersion Energy =           0.0000000000000000
    PCM Polarization Energy =               0.0000000000000000
    EFP Energy =                            0.0000000000000000
    Total Energy =                       -134.2334499272599260
    Molecular point group: c1
  Basis Set: 6-31G*
  Basis Set:

  -Total Gradient:
     Atom            X                  Y                   Z
    ------   -----------------  -----------------  -----------------
       1        0.000004106924    -0.000000826001     0.000000257836
       2        0.000351679184    -0.000265994300     0.000251350414
       3       -0.000649205258     0.000500653381    -0.000435585990
       4        0.000000345901    -0.000001973315    -0.000006675594
       5       -0.000008707146    -0.000006346743    -0.000007122811
       6        0.000736776730    -0.000618739628     0.000463240704
       7        0.000005089832    -0.000014487908     0.000028164997
       8       -0.000430995574     0.000395519958    -0.000318639459
       9       -0.000002222096     0.000014127858     0.000022868447
      10       -0.000006868496    -0.000001933301     0.000002141457

  **** Optimization is complete! (in 5 steps) ****
    Final optimized geometry and variables:
    Molecular point group: c1

    Geometry (in Angstrom), charge = 0, multiplicity = 1:

    H           -0.189429289217     1.733476193261     0.408506185493
    C           -0.008639241874     0.810306577053     0.948612138192
    N           -0.407481972361    -0.316506266117     0.133466145063
    H           -0.612538124535     0.834978443226     1.848675469170
    H            1.043687049377     0.797492429089     1.243865431487
    C            0.354969268064    -0.491618355665    -1.095081670775
    H           -0.387906415133    -1.152855379773     0.678029786985
    H            1.118589159458     0.273988650051    -1.199625797183
    H           -0.290857160957    -0.429289710285    -1.965723248707
    H            0.856459743155    -1.454707757581    -1.124165563868

  Mulliken Charges: (a.u.)
   Center  Symbol    Alpha    Beta     Spin     Total
       1     H     0.41773  0.41773  0.00000  0.16453
       2     C     3.14316  3.14316  0.00000 -0.28631
       3     N     3.84592  3.84592  0.00000 -0.69183
       4     H     0.41809  0.41809  0.00000  0.16383
       5     H     0.43488  0.43488  0.00000  0.13024
       6     C     3.14406  3.14406  0.00000 -0.28812
       7     H     0.33053  0.33053  0.00000  0.33895
       8     H     0.42369  0.42369  0.00000  0.15262
       9     H     0.41671  0.41671  0.00000  0.16658
      10     H     0.42524  0.42524  0.00000  0.14952

   Total alpha = 13.00000, Total beta = 13.00000, Total charge = -0.00000
