  ==> Input File <==

--------------------------------------------------------------------------
set {
	reference rhf
	basis cc-pvtz
}

set_num_threads( 4 )
memory 2 gb

molecule MOL {
0 1

H	 -1.391009	 1.045102	 -2.125915
C	 -1.063166	 0.572876	 -1.223997
C	 -1.921220	 0.444315	 -0.085415
C	 0.173698	 0.079566	 -1.124775
H	 -2.922007	 0.830741	 -0.132913
C	 -1.486262	 -0.150445	 1.029776
H	 0.874050	 0.137816	 -1.934253
N	 0.640204	 -0.530428	 -0.000115
H	 -2.099679	 -0.264177	 1.899687
C	 -0.137141	 -0.687261	 1.134331
C	 2.006991	 -1.033007	 -0.000020
O	 0.289851	 -1.227899	 2.118013
H	 2.182444	 -1.636914	 -0.880881
H	 2.678769	 -0.195442	 -0.002236
H	 2.183828	 -1.633244	 0.883082

	symmetry c1
}
set optking {
	frozen_dihedral = ("
		10 8 11 13
	")
}

ee = optimize('scf')
oeprop('DIPOLE', 'QUADRUPOLE', 'MULLIKEN_CHARGES')
f=open( 'psi4out.xyz', 'w' )
f.write( "15  " )
f.write( str(ee) + "\n" )
f.write( MOL.save_string_xyz() )
f.close()
--------------------------------------------------------------------------

    Molecular point group: c1
  Charge       = 0
  Multiplicity = 1
  Basis Set: CC-PVTZ
  Basis Set:
  @DF-RHF Final Energy:  -360.72223853757362
    Total Energy =                       -360.7222385375739577
    Molecular point group: c1
  Basis Set: CC-PVTZ
  Basis Set:
  Basis Set: CC-PVTZ
  Basis Set:
  @DF-RHF Final Energy:  -360.72254368843443
    Total Energy =                       -360.7225436884344276
  Basis Set: CC-PVTZ
  Basis Set:
  Basis Set: CC-PVTZ
  Basis Set:
  @DF-RHF Final Energy:  -360.72256576277749
    Total Energy =                       -360.7225657627770943
  Basis Set: CC-PVTZ
  Basis Set:
  Basis Set: CC-PVTZ
  Basis Set:
  @DF-RHF Final Energy:  -360.72258221996952
    Total Energy =                       -360.7225822199692402
  Basis Set: CC-PVTZ
  Basis Set:
  Charge       = 0
  Multiplicity = 1
  Basis Set: CC-PVTZ
  Basis Set:

    Orbital Energies (a.u.)
    -----------------------

    Doubly Occupied:

       1A    -20.501781     2A    -15.616480     3A    -11.339559
       4A    -11.293208     5A    -11.263518     6A    -11.258214
       7A    -11.230671     8A    -11.228375     9A     -1.390565
      10A     -1.285767    11A     -1.118800    12A     -1.028865
      13A     -0.972294    14A     -0.875736    15A     -0.838571
      16A     -0.719110    17A     -0.703071    18A     -0.663389
      19A     -0.652778    20A     -0.625221    21A     -0.611930
      22A     -0.573879    23A     -0.558166    24A     -0.550437
      25A     -0.529339    26A     -0.482823    27A     -0.420147
      28A     -0.410818    29A     -0.310997

  @DF-RHF Final Energy:  -360.72258438920659

   => Energetics <=

    Nuclear Repulsion Energy =            358.4539243302689897
    One-Electron Energy =               -1200.2439945911983159
    Two-Electron Energy =                 481.0674858717223970
    DFT Exchange-Correlation Energy =       0.0000000000000000
    Empirical Dispersion Energy =           0.0000000000000000
    PCM Polarization Energy =               0.0000000000000000
    EFP Energy =                            0.0000000000000000
    Total Energy =                       -360.7225843892068724
    Molecular point group: c1
  Basis Set: CC-PVTZ
  Basis Set:

  -Total Gradient:
     Atom            X                  Y                   Z
    ------   -----------------  -----------------  -----------------
       1        0.000010144965     0.000011843874     0.000009964253
       2        0.000032801710     0.000028422771     0.000027760786
       3       -0.000025004501    -0.000038390851     0.000002989455
       4       -0.000046911930    -0.000107863828    -0.000043446807
       5       -0.000001761606     0.000007226402     0.000007647731
       6       -0.000008803556     0.000024022768     0.000003273534
       7        0.000022999236     0.000018792122     0.000011645573
       8        0.000117689639     0.000340964815     0.000178685410
       9       -0.000002325607     0.000005739968    -0.000000954130
      10       -0.000107241747    -0.000230185984    -0.000114256913
      11        0.000078794272     0.000270867500    -0.000294684432
      12        0.000013171277    -0.000003478697    -0.000010965632
      13       -0.000081085279    -0.000242714239     0.000158176970
      14       -0.000036826175    -0.000033193734    -0.000005808140
      15        0.000034359304    -0.000052052887     0.000069972339

  **** Optimization is complete! (in 5 steps) ****
    Final optimized geometry and variables:
    Molecular point group: c1

    Geometry (in Angstrom), charge = 0, multiplicity = 1:

    H           -1.265705696624     1.397013128278    -2.382763535135
    C           -0.937101057059     0.922939773288    -1.482086554083
    C           -1.794983340428     0.790008654354    -0.343715774830
    C            0.299593265395     0.428397544639    -1.385827766797
    H           -2.796439083526     1.174864049714    -0.390127052095
    C           -1.358950890339     0.193045567195     0.769811357102
    H            0.998812583580     0.488451262173    -2.196086917574
    N            0.766422191654    -0.185748803555    -0.263668629557
    H           -1.971560939478     0.076699508583     1.640036281095
    C           -0.007211076855    -0.337569695763     0.873960583125
    C            2.135465762908    -0.681680749065    -0.259388700068
    O            0.426071811623    -0.868946688960     1.859755371667
    H            2.307057447185    -1.291258091550    -1.136262209716
    H            2.838240214904     0.141968169136    -0.253963286985
    H            2.281874929700    -1.275224263798     0.623718946562

  Mulliken Charges: (a.u.)
   Center  Symbol    Alpha    Beta     Spin     Total
       1     H     0.41409  0.41409  0.00000  0.17182
       2     C     3.10222  3.10222  0.00000 -0.20445
       3     C     3.06190  3.06190  0.00000 -0.12380
       4     C     3.03296  3.03296  0.00000 -0.06593
       5     H     0.41834  0.41834  0.00000  0.16333
       6     C     3.11622  3.11622  0.00000 -0.23244
       7     H     0.42059  0.42059  0.00000  0.15882
       8     N     3.51260  3.51260  0.00000 -0.02521
       9     H     0.40889  0.40889  0.00000  0.18223
      10     C     2.84547  2.84547  0.00000  0.30906
      11     C     3.10869  3.10869  0.00000 -0.21739
      12     O     4.23656  4.23656  0.00000 -0.47312
      13     H     0.45199  0.45199  0.00000  0.09603
      14     H     0.44806  0.44806  0.00000  0.10389
      15     H     0.42142  0.42142  0.00000  0.15715

   Total alpha = 29.00000, Total beta = 29.00000, Total charge =  0.00000
