  ==> Input File <==

--------------------------------------------------------------------------
set {
	reference rhf
	basis 6-31G*
}

set_num_threads( 4 )
memory 2 gb

molecule MOL {
0 1

H	 2.014914	 -0.726108	 2.709555
O	 2.443552	 -0.199062	 2.049108
C	 1.588601	 0.138381	 1.063021
C	 2.088218	 0.915726	 0.022799
C	 0.264988	 -0.256789	 1.058397
H	 3.120453	 1.210081	 0.049334
C	 1.262564	 1.293602	 -1.015743
H	 -0.146399	 -0.855765	 1.846759
C	 -0.536158	 0.140425	 0.000000
H	 1.656573	 1.893771	 -1.814750
C	 -0.071340	 0.909175	 -1.043319
N	 -1.935604	 -0.280333	 0.000000
H	 -0.724095	 1.194445	 -1.842029
O	 -2.161694	 -1.452901	 0.000000
O	 -2.770341	 0.571417	 0.000000

	symmetry c1
}
set optking {
	frozen_dihedral = ("
		11 9 12 14
	")
}

ee = optimize('scf')
oeprop('DIPOLE', 'QUADRUPOLE', 'MULLIKEN_CHARGES')
f=open( 'psi4out.xyz', 'w' )
f.write( "15  " )
f.write( str(ee) + "\n" )
f.write( MOL.save_string_xyz() )
f.close()
--------------------------------------------------------------------------

    Molecular point group: c1
  Charge       = 0
  Multiplicity = 1
  Basis Set: 6-31G*
  Basis Set:
  @DF-RHF Final Energy:  -509.01996797865587
    Total Energy =                       -509.0199679786556999
    Molecular point group: c1
  Basis Set: 6-31G*
  Basis Set:
  Basis Set: 6-31G*
  Basis Set:
  @DF-RHF Final Energy:  -509.01482629235574
    Total Energy =                       -509.0148262923562470
  Basis Set: 6-31G*
  Basis Set:
  Basis Set: 6-31G*
  Basis Set:
  @DF-RHF Final Energy:  -509.02028619901068
    Total Energy =                       -509.0202861990103429
  Basis Set: 6-31G*
  Basis Set:
  Basis Set: 6-31G*
  Basis Set:
  @DF-RHF Final Energy:  -509.02061624152941
    Total Energy =                       -509.0206162415296376
  Basis Set: 6-31G*
  Basis Set:
  @DF-RHF Final Energy:  -509.02062040692368
    Total Energy =                       -509.0206204069240812
  @DF-RHF Final Energy:  -509.02062066241888
    Total Energy =                       -509.0206206624187644
  @DF-RHF Final Energy:  -509.01951251359844
    Total Energy =                       -509.0195125135983290
  @DF-RHF Final Energy:  -509.02061321908218
    Total Energy =                       -509.0206132190824064
  @DF-RHF Final Energy:  -509.02062041656183
    Total Energy =                       -509.0206204165618828
  @DF-RHF Final Energy:  -509.02061975107802
    Total Energy =                       -509.0206197510776747
  Basis Set: 6-31G*
  Basis Set:
  @DF-RHF Final Energy:  -509.02061714601791
    Total Energy =                       -509.0206171460176847
  Basis Set: 6-31G*
  Basis Set:
  Basis Set: 6-31G*
  Basis Set:
  @DF-RHF Final Energy:  -509.01775687410077
    Total Energy =                       -509.0177568741009964
  Basis Set: 6-31G*
  Basis Set:
  Basis Set: 6-31G*
  Basis Set:
  @DF-RHF Final Energy:  -509.02061132236508
    Total Energy =                       -509.0206113223653119
  Basis Set: 6-31G*
  Basis Set:
  Charge       = 0
  Multiplicity = 1
  Basis Set: 6-31G*
  Basis Set:

    Orbital Energies (a.u.)
    -----------------------

    Doubly Occupied:

       1A    -20.617618     2A    -20.609084     3A    -20.608743
       4A    -15.859011     5A    -11.333051     6A    -11.315388
       7A    -11.268589     8A    -11.268537     9A    -11.263809
      10A    -11.256410    11A     -1.640559    12A     -1.438597
      13A     -1.424562    14A     -1.202415    15A     -1.095837
      16A     -1.048374    17A     -0.965886    18A     -0.883380
      19A     -0.829933    20A     -0.789314    21A     -0.761491
      22A     -0.734526    23A     -0.720678    24A     -0.710657
      25A     -0.669482    26A     -0.635535    27A     -0.617737
      28A     -0.593328    29A     -0.563099    30A     -0.548178
      31A     -0.529287    32A     -0.490530    33A     -0.487642
      34A     -0.454474    35A     -0.374488    36A     -0.343316

  @DF-RHF Final Energy:  -509.02062112654880

   => Energetics <=

    Nuclear Repulsion Energy =            502.9200438673318558
    One-Electron Energy =               -1691.9742369350074114
    Two-Electron Energy =                 680.0335719411269793
    DFT Exchange-Correlation Energy =       0.0000000000000000
    Empirical Dispersion Energy =           0.0000000000000000
    PCM Polarization Energy =               0.0000000000000000
    EFP Energy =                            0.0000000000000000
    Total Energy =                       -509.0206211265484626
    Molecular point group: c1
  Basis Set: 6-31G*
  Basis Set:

  -Total Gradient:
     Atom            X                  Y                   Z
    ------   -----------------  -----------------  -----------------
       1       -0.000001605657     0.000010615837     0.000007462090
       2        0.000005711834    -0.000024794910    -0.000001835244
       3       -0.000007633048     0.000023364267     0.000015434559
       4        0.000005145568     0.000010585619     0.000010577551
       5       -0.000055898158     0.000104656406     0.000088384456
       6       -0.000004119802    -0.000000550426     0.000000463504
       7       -0.000010872011     0.000003502280    -0.000003248631
       8        0.000015793964    -0.000038372478    -0.000015736089
       9       -0.002105190482     0.006331647909     0.001246952078
      10       -0.000008322363     0.000001688105    -0.000003075632
      11        0.001517935917    -0.004537569496    -0.002547296754
      12        0.000400920840    -0.001713913274     0.007413855540
      13        0.000006714672    -0.000015023638    -0.000024474815
      14        0.000220048021    -0.000234574360    -0.006243325346
      15        0.000021370711     0.000078738166     0.000055862730

  **** Optimization is complete! (in 14 steps) ****
    Final optimized geometry and variables:
    Molecular point group: c1

    Geometry (in Angstrom), charge = 0, multiplicity = 1:

    H            2.060050171103    -0.875650590959     2.457115324626
    O            2.483505015045    -0.341661383100     1.799004857869
    C            1.626334163909     0.000919989829     0.818726388899
    C            2.125856986886     0.770202630415    -0.227760917269
    C            0.300081109853    -0.391795585862     0.817868516516
    H            3.161507196222     1.052542658804    -0.210592090670
    C            1.297600029003     1.148655954664    -1.263541506422
    H           -0.103483054481    -1.015687803802     1.593967751015
    C           -0.504468502207     0.037298281047    -0.220596006258
    H            1.695006324519     1.732177683154    -2.073245175605
    C           -0.044107042231     0.787016806104    -1.275423405261
    N           -1.891067325277    -0.418553787920    -0.243749649694
    H           -0.704348902361     1.085935816224    -2.065819426652
    O           -2.076783307430    -1.596643084724    -0.216867439715
    O           -2.738171351604     0.415236429327    -0.336561684858

  Mulliken Charges: (a.u.)
   Center  Symbol    Alpha    Beta     Spin     Total
       1     H     0.26739  0.26739  0.00000  0.46522
       2     O     4.37440  4.37440  0.00000 -0.74881
       3     C     2.79221  2.79221  0.00000  0.41559
       4     C     3.11387  3.11387  0.00000 -0.22774
       5     C     3.13465  3.13465  0.00000 -0.26930
       6     H     0.38189  0.38189  0.00000  0.23623
       7     C     3.09702  3.09702  0.00000 -0.19405
       8     H     0.37892  0.37892  0.00000  0.24217
       9     C     2.89250  2.89250  0.00000  0.21500
      10     H     0.38661  0.38661  0.00000  0.22677
      11     C     3.09974  3.09974  0.00000 -0.19948
      12     N     3.25789  3.25789  0.00000  0.48422
      13     H     0.37433  0.37433  0.00000  0.25135
      14     O     4.22563  4.22563  0.00000 -0.45125
      15     O     4.22296  4.22296  0.00000 -0.44591

   Total alpha = 36.00000, Total beta = 36.00000, Total charge =  0.00000
