                              Psi4 1.0.54 Driver

  ==> Input File <==

--------------------------------------------------------------------------
set {
	reference rhf
	basis cc-pvtz
}

set_num_threads( 4 )
memory 2 gb

molecule MOL {
0 1

H	 2.704186	 -0.876047	 -0.434451
N	 2.326826	 -0.066186	 0.000000
C	 0.934676	 -0.005420	 0.000000
H	 2.746621	 0.096145	 0.885688
C	 0.226436	 -0.001077	 -1.195129
C	 0.226436	 -0.001077	 1.195129
H	 0.759091	 -0.011439	 -2.128123
C	 -1.153391	 0.009141	 -1.189028
H	 0.759091	 -0.011439	 2.128123
C	 -1.153391	 0.009141	 1.189028
H	 -1.680905	 0.012964	 -2.124348
C	 -1.857876	 0.014675	 0.000000
H	 -1.680905	 0.012964	 2.124348
H	 -2.930222	 0.022904	 0.000000

	symmetry c1
}
set optking {
	frozen_dihedral = ("
		1 2 3 5
	")
}

ee,wfn = optimize('scf', return_wfn=True)
oeprop( wfn, 'DIPOLE', 'QUADRUPOLE', 'MULLIKEN_CHARGES')
f=open( 'psi4out.xyz', 'w' )
f.write( "14  " )
f.write( str(ee) + "\n" )
f.write( MOL.save_string_xyz() )
f.close()
--------------------------------------------------------------------------

    Molecular point group: c1
  Charge       = 0
  Multiplicity = 1
  Basis Set: CC-PVTZ
  Basis Set:
  @DF-RHF Final Energy:  -285.83040902425881
    Total Energy =                       -285.8304090242588131
    Molecular point group: c1
  Basis Set: CC-PVTZ
  Basis Set:
  Basis Set: CC-PVTZ
  Basis Set:
  @DF-RHF Final Energy:  -285.83156890550640
    Total Energy =                       -285.8315689055064013
  Basis Set: CC-PVTZ
  Basis Set:
  Basis Set: CC-PVTZ
  Basis Set:
  @DF-RHF Final Energy:  -285.83180747150959
    Total Energy =                       -285.8318074715095918
  Basis Set: CC-PVTZ
  Basis Set:
  Basis Set: CC-PVTZ
  Basis Set:
  @DF-RHF Final Energy:  -285.83181704233510
    Total Energy =                       -285.8318170423351603
  Basis Set: CC-PVTZ
  Basis Set:
  Charge       = 0
  Multiplicity = 1
  Basis Set: CC-PVTZ
  Basis Set:

    Orbital Energies (a.u.)
    -----------------------

    Doubly Occupied:

       1A    -15.553117     2A    -11.267608     3A    -11.228011
       4A    -11.227443     5A    -11.219145     6A    -11.216937
       7A    -11.215598     8A     -1.222324     9A     -1.131738
      10A     -1.014713    11A     -0.989184    12A     -0.832622
      13A     -0.812640    14A     -0.707124    15A     -0.680381
      16A     -0.652520    17A     -0.607764    18A     -0.594862
      19A     -0.583757    20A     -0.524124    21A     -0.506060
      22A     -0.490028    23A     -0.443828    24A     -0.336678
      25A     -0.303949

  @DF-RHF Final Energy:  -285.83181793399490

   => Energetics <=

    Nuclear Repulsion Energy =            273.4895555667112603
    One-Electron Energy =                -927.9184339231179592
    Two-Electron Energy =                 368.5970604224116869
    DFT Exchange-Correlation Energy =       0.0000000000000000
    Empirical Dispersion Energy =           0.0000000000000000
    PCM Polarization Energy =               0.0000000000000000
    EFP Energy =                            0.0000000000000000
    Total Energy =                       -285.8318179339950120
    Molecular point group: c1
  Basis Set: CC-PVTZ
  Basis Set:

  -Total Gradient:
     Atom            X                  Y                   Z
    ------   -----------------  -----------------  -----------------
       1        0.000138953306    -0.001783398845     0.002766117543
       2       -0.000160362511     0.003468744823    -0.003443235133
       3        0.000055483337    -0.004149091710     0.000435945502
       4        0.000019882216    -0.000022720840    -0.000020351409
       5        0.000090721644     0.002493395967     0.000163986278
       6       -0.000175630381     0.000005417672     0.000093530857
       7       -0.000003178705     0.000005782345    -0.000020603348
       8       -0.000143804297    -0.000056887909     0.000100157902
       9        0.000007758290     0.000024337909    -0.000000914025
      10        0.000173308529    -0.000068948891     0.000095746455
      11        0.000017921318     0.000013076213    -0.000000192975
      12       -0.000005821747     0.000059097508    -0.000182923737
      13       -0.000014035794     0.000005297134    -0.000006733226
      14       -0.000001195205     0.000005898624     0.000019469313

  **** Optimization is complete! (in 5 steps) ****
    Final optimized geometry and variables:
    Molecular point group: c1

    Geometry (in Angstrom), charge = 0, multiplicity = 1:

    H            2.731848823587    -0.773894450916    -0.505873345144
    N            2.338292542770     0.001764106146    -0.018623595363
    C            0.931134849657    -0.027691120180     0.004088500443
    H            2.729308115834     0.028807602198     0.896722707564
    C            0.228577642178    -0.009787763509    -1.194110503727
    C            0.221687275196     0.003693382256     1.194176637112
    H            0.771239869431    -0.000633975020    -2.120450035973
    C           -1.150033081870     0.006313821251    -1.194700944844
    H            0.750387785636    -0.001563747263     2.129646486319
    C           -1.160526628395     0.041014618172     1.185845774335
    H           -1.675896884049     0.012765665079    -2.130784990992
    C           -1.857048663422     0.035523688292    -0.005335056454
    H           -1.691639119894     0.067195947470     2.118622561383
    H           -2.929395653126     0.058583936524    -0.009628537733

  Mulliken Charges: (a.u.)
   Center  Symbol    Alpha    Beta     Spin     Total
       1     H     0.41999  0.41999  0.00000  0.16002
       2     N     3.67837  3.67837  0.00000 -0.35673
       3     C     2.88895  2.88895  0.00000  0.22210
       4     H     0.42724  0.42724  0.00000  0.14552
       5     C     3.11365  3.11365  0.00000 -0.22731
       6     C     3.11652  3.11652  0.00000 -0.23304
       7     H     0.42642  0.42642  0.00000  0.14716
       8     C     3.06081  3.06081  0.00000 -0.12161
       9     H     0.43387  0.43387  0.00000  0.13227
      10     C     3.06299  3.06299  0.00000 -0.12598
      11     H     0.42420  0.42420  0.00000  0.15160
      12     C     3.09787  3.09787  0.00000 -0.19573
      13     H     0.42439  0.42439  0.00000  0.15122
      14     H     0.42473  0.42473  0.00000  0.15053

   Total alpha = 25.00000, Total beta = 25.00000, Total charge = -0.00000

*** Psi4 exiting successfully. Buy a developer a beer!
