  ==> Input File <==

--------------------------------------------------------------------------
set {
	reference rhf
	basis 6-31G*
}

set_num_threads( 1 )
memory 2 gb

molecule MOL {
0 1

O	 -0.988096	 -1.408613	 0.050699
C	 -0.676749	 -0.249230	 -0.009274
C	 -1.746085	 0.827156	 -0.009539
N	 0.623947	 0.147590	 -0.102813
H	 -1.701500	 1.431508	 -0.908902
H	 -2.703425	 0.330732	 0.036390
H	 -1.647323	 1.487769	 0.845106
C	 1.575772	 -0.737716	 -0.744794
C	 1.203401	 1.215629	 0.681897
H	 2.277133	 -0.151783	 -1.328568
H	 1.051719	 -1.417829	 -1.393451
H	 2.136956	 -1.313009	 -0.011629
H	 1.985884	 1.694539	 0.105351
H	 0.472248	 1.969080	 0.928191
H	 1.645341	 0.847232	 1.605903

	symmetry c1
}
set optking {
	frozen_dihedral = ("
		2 4 8 10
	")
}

ee = energy('scf')
oeprop('DIPOLE', 'QUADRUPOLE', 'MULLIKEN_CHARGES')
f=open( 'psi4out.xyz', 'w' )
f.write( "15  " )
f.write( str(ee) + "\n" )
f.write( MOL.save_string_xyz() )
f.close()
--------------------------------------------------------------------------

    Molecular point group: c1

    Geometry (in Angstrom), charge = 0, multiplicity = 1:

       Center              X                  Y                   Z               Mass
    ------------   -----------------  -----------------  -----------------  -----------------
           O         -0.996747665079    -1.375564831684     0.070589708787    15.994914619560
           C         -0.685400665079    -0.216181831684     0.010616708787    12.000000000000
           C         -1.754736665079     0.860204168316     0.010351708787    12.000000000000
           N          0.615295334921     0.180638168316    -0.082922291213    14.003074004780
           H         -1.710151665079     1.464556168316    -0.889011291213     1.007825032070
           H         -2.712076665079     0.363780168316     0.056280708787     1.007825032070
           H         -1.655974665079     1.520817168316     0.864996708787     1.007825032070
           C          1.567120334921    -0.704667831684    -0.724903291213    12.000000000000
           C          1.194749334921     1.248677168316     0.701787708787    12.000000000000
           H          2.268481334921    -0.118734831684    -1.308677291213     1.007825032070
           H          1.043067334921    -1.384780831684    -1.373560291213     1.007825032070
           H          2.128304334921    -1.279960831684     0.008261708787     1.007825032070
           H          1.977232334921     1.727587168316     0.125241708787     1.007825032070
           H          0.463596334921     2.002128168316     0.948081708787     1.007825032070
           H          1.636689334921     0.880280168316     1.625793708787     1.007825032070

  Charge       = 0
  Multiplicity = 1
  Basis Set: 6-31G*
  Basis Set:

    Orbital Energies (a.u.)
    -----------------------

    Doubly Occupied:

       1A    -20.524667     2A    -15.573222     3A    -11.342947
       4A    -11.265658     5A    -11.249992     6A    -11.226292
       7A     -1.388594     8A     -1.240562     9A     -1.010794
      10A     -0.973555    11A     -0.917543    12A     -0.738189
      13A     -0.677983    14A     -0.656297    15A     -0.650325
      16A     -0.595669    17A     -0.578305    18A     -0.570364
      19A     -0.557986    20A     -0.548354    21A     -0.532801
      22A     -0.492142    23A     -0.415427    24A     -0.362349

  @DF-RHF Final Energy:  -286.01848477916934

   => Energetics <=

    Nuclear Repulsion Energy =            251.7600081252748510
    One-Electron Energy =                -887.3769586064952364
    Two-Electron Energy =                 349.5984657020509871
    DFT Exchange-Correlation Energy =       0.0000000000000000
    Empirical Dispersion Energy =           0.0000000000000000
    PCM Polarization Energy =               0.0000000000000000
    EFP Energy =                            0.0000000000000000
    Total Energy =                       -286.0184847791693414

  Mulliken Charges: (a.u.)
   Center  Symbol    Alpha    Beta     Spin     Total
       1     O     4.28698  4.28698  0.00000 -0.57397
       2     C     2.64208  2.64208  0.00000  0.71585
       3     C     3.28842  3.28842  0.00000 -0.57684
       4     N     3.82047  3.82047  0.00000 -0.64093
       5     H     0.40526  0.40526  0.00000  0.18948
       6     H     0.39391  0.39391  0.00000  0.21217
       7     H     0.41062  0.41062  0.00000  0.17876
       8     C     3.13658  3.13658  0.00000 -0.27317
       9     C     3.14115  3.14115  0.00000 -0.28230
      10     H     0.41931  0.41931  0.00000  0.16138
      11     H     0.39797  0.39797  0.00000  0.20406
      12     H     0.41863  0.41863  0.00000  0.16273
      13     H     0.41366  0.41366  0.00000  0.17268
      14     H     0.41060  0.41060  0.00000  0.17881
      15     H     0.41437  0.41437  0.00000  0.17127

   Total alpha = 24.00000, Total beta = 24.00000, Total charge = -0.00000
