  ==> Input File <==

--------------------------------------------------------------------------
set {
	reference rhf
	basis cc-pvtz
}

set_num_threads( 4 )
memory 2 gb

molecule MOL {
0 1

H	 -2.303434	 0.899356	 2.853845
C	 -2.320136	 0.232878	 2.016089
C	 -1.225995	 0.044817	 1.319787
H	 -3.236473	 -0.266517	 1.769653
O	 -1.189946	 -0.765863	 0.237511
H	 -0.300202	 0.533568	 1.563009
C	 0.026572	 -0.995256	 -0.379403
C	 1.057223	 0.049888	 -0.004615
H	 -0.054361	 -1.010670	 -1.459674
H	 0.397526	 -1.952058	 -0.044198
F	 2.203233	 -0.234060	 -0.590375
F	 0.698147	 1.254887	 -0.392621
F	 1.266440	 0.094219	 1.288722

	symmetry c1
}
set optking {
	frozen_dihedral = ("
		3 5 7 9
	")
}

ee = optimize('scf')
oeprop('DIPOLE', 'QUADRUPOLE', 'MULLIKEN_CHARGES')
f=open( 'psi4out.xyz', 'w' )
f.write( "13  " )
f.write( str(ee) + "\n" )
f.write( MOL.save_string_xyz() )
f.close()
--------------------------------------------------------------------------

    Molecular point group: c1
  Charge       = 0
  Multiplicity = 1
  Basis Set: CC-PVTZ
  Basis Set:
  @DF-RHF Final Energy:  -527.71104112240550
    Total Energy =                       -527.7110411224058453
    Molecular point group: c1
  Basis Set: CC-PVTZ
  Basis Set:
  Basis Set: CC-PVTZ
  Basis Set:
  @DF-RHF Final Energy:  -527.72687742250469
    Total Energy =                       -527.7268774225045718
  Basis Set: CC-PVTZ
  Basis Set:
  Basis Set: CC-PVTZ
  Basis Set:
  @DF-RHF Final Energy:  -527.73153652771271
    Total Energy =                       -527.7315365277124783
  Basis Set: CC-PVTZ
  Basis Set:
  Basis Set: CC-PVTZ
  Basis Set:
  @DF-RHF Final Energy:  -527.73268454628226
    Total Energy =                       -527.7326845462821439
  Basis Set: CC-PVTZ
  Basis Set:
  @DF-RHF Final Energy:  -527.73304541132211
    Total Energy =                       -527.7330454113217684
  @DF-RHF Final Energy:  -527.73313715508618
    Total Energy =                       -527.7331371550862968
  @DF-RHF Final Energy:  -527.73315874857644
    Total Energy =                       -527.7331587485770115
  @DF-RHF Final Energy:  -527.73316729367662
    Total Energy =                       -527.7331672936768427
  Basis Set: CC-PVTZ
  Basis Set:
  @DF-RHF Final Energy:  -527.73317094264189
    Total Energy =                       -527.7331709426418911
  Basis Set: CC-PVTZ
  Basis Set:
  Basis Set: CC-PVTZ
  Basis Set:
  @DF-RHF Final Energy:  -527.73317457624580
    Total Energy =                       -527.7331745762460287
  Basis Set: CC-PVTZ
  Basis Set:
  Basis Set: CC-PVTZ
  Basis Set:
  @DF-RHF Final Energy:  -527.73317751662421
    Total Energy =                       -527.7331775166243233
  Basis Set: CC-PVTZ
  Basis Set:
  Charge       = 0
  Multiplicity = 1
  Basis Set: CC-PVTZ
  Basis Set:

    Orbital Energies (a.u.)
    -----------------------

    Doubly Occupied:

       1A    -26.347681     2A    -26.347302     3A    -26.346868
       4A    -20.598008     5A    -11.506936     6A    -11.320830
       7A    -11.294945     8A    -11.212750     9A     -1.758038
      10A     -1.653788    11A     -1.652957    12A     -1.435093
      13A     -1.088160    14A     -1.023880    15A     -0.937494
      16A     -0.851970    17A     -0.847450    18A     -0.842189
      19A     -0.764762    20A     -0.732488    21A     -0.729017
      22A     -0.709563    23A     -0.688749    24A     -0.671010
      25A     -0.661944    26A     -0.658358    27A     -0.651276
      28A     -0.592351    29A     -0.561998    30A     -0.530993
      31A     -0.496454    32A     -0.356564

  @DF-RHF Final Energy:  -527.73317844341204

   => Energetics <=

    Nuclear Repulsion Energy =            416.3757489323668892
    One-Electron Energy =               -1556.4741234256780444
    Two-Electron Energy =                 612.3651960498992821
    DFT Exchange-Correlation Energy =       0.0000000000000000
    Empirical Dispersion Energy =           0.0000000000000000
    PCM Polarization Energy =               0.0000000000000000
    EFP Energy =                            0.0000000000000000
    Total Energy =                       -527.7331784434119299
    Molecular point group: c1
  Basis Set: CC-PVTZ
  Basis Set:

  -Total Gradient:
     Atom            X                  Y                   Z
    ------   -----------------  -----------------  -----------------
       1        0.000003249313    -0.000005980088     0.000004154543
       2       -0.000030853766    -0.000001381019     0.000038253375
       3        0.000029601109     0.002360268245    -0.001800118736
       4       -0.000008192121    -0.000004368909    -0.000000860397
       5        0.000325365676    -0.002920564908     0.002574382921
       6       -0.000024321277    -0.000010618986     0.000024572928
       7       -0.001038831913    -0.002318604284    -0.000960570626
       8        0.000142124372    -0.000023008708    -0.000093389414
       9        0.000730863575     0.002918725724    -0.000042198615
      10       -0.000032932511     0.000027320092    -0.000010672998
      11       -0.000076434183     0.000004443666     0.000083897316
      12       -0.000124911067    -0.000047321005     0.000034082673
      13        0.000105272792     0.000021090183     0.000148467031

  **** Optimization is complete! (in 12 steps) ****
    Final optimized geometry and variables:
    Molecular point group: c1

    Geometry (in Angstrom), charge = 0, multiplicity = 1:

    H           -2.806782337728     0.850082316495     2.521495681419
    C           -2.682659759253     0.161604715863     1.710567363611
    C           -1.641862664166     0.274332805588     0.921014894072
    H           -3.427238484851    -0.594519341740     1.555573686757
    O           -1.491554306947    -0.526707707067    -0.160863157208
    H           -0.900881180597     1.032565597663     1.068573555663
    C           -0.264016106926    -0.885256253695    -0.702713051263
    C            0.930187822615     0.001718197439    -0.404429508753
    H           -0.369870511390    -0.862905973878    -1.777596977495
    H            0.008213344962    -1.885215843959    -0.388378714006
    F            1.950910467579    -0.432083074087    -1.112483553730
    F            0.720383290143     1.257949914810    -0.733414590330
    F            1.292866355124    -0.022258833194     0.860380208143

  Mulliken Charges: (a.u.)
   Center  Symbol    Alpha    Beta     Spin     Total
       1     H     0.42532  0.42532  0.00000  0.14937
       2     C     3.19262  3.19262  0.00000 -0.38525
       3     C     2.96656  2.96656  0.00000  0.06688
       4     H     0.42491  0.42491  0.00000  0.15018
       5     O     4.15031  4.15031  0.00000 -0.30062
       6     H     0.42797  0.42797  0.00000  0.14405
       7     C     2.98990  2.98990  0.00000  0.02020
       8     C     2.69086  2.69086  0.00000  0.61828
       9     H     0.44847  0.44847  0.00000  0.10306
      10     H     0.45462  0.45462  0.00000  0.09076
      11     F     4.60627  4.60627  0.00000 -0.21254
      12     F     4.61119  4.61119  0.00000 -0.22238
      13     F     4.61099  4.61099  0.00000 -0.22199

   Total alpha = 32.00000, Total beta = 32.00000, Total charge = -0.00000
