  ==> Input File <==

--------------------------------------------------------------------------
set {
	reference rhf
	basis 6-31G*
}

set_num_threads( 4 )
memory 2 gb

molecule MOL {
0 1

H	 -4.163480	 0.312530	 0.754578
O	 -3.445485	 -0.247917	 0.497115
C	 -2.306886	 0.532354	 0.237577
C	 -1.177863	 -0.397191	 -0.171080
H	 -2.506649	 1.248752	 -0.558146
H	 -2.021108	 1.099348	 1.122557
C	 0.198102	 0.111031	 0.262842
H	 -1.208843	 -0.518759	 -1.250427
H	 -1.368741	 -1.376554	 0.258909
C	 1.331804	 -0.827780	 -0.158768
H	 0.361943	 1.100838	 -0.156218
H	 0.217265	 0.229072	 1.345532
C	 2.723619	 -0.410569	 0.329459
H	 1.342964	 -0.912588	 -1.244120
H	 1.116806	 -1.824343	 0.220779
C	 3.243875	 0.895854	 -0.272975
H	 3.424222	 -1.207124	 0.091250
H	 2.714788	 -0.329854	 1.414619
H	 3.251977	 0.848779	 -1.358681
H	 2.637085	 1.747371	 0.016682
H	 4.259473	 1.094070	 0.055697

	symmetry c1
}
set optking {
	frozen_dihedral = ("
		2 3 4 8
	")
}

ee = optimize('scf')
oeprop('DIPOLE', 'QUADRUPOLE', 'MULLIKEN_CHARGES')
f=open( 'psi4out.xyz', 'w' )
f.write( "21  " )
f.write( str(ee) + "\n" )
f.write( MOL.save_string_xyz() )
f.close()
--------------------------------------------------------------------------

    Molecular point group: c1
  Charge       = 0
  Multiplicity = 1
  Basis Set: 6-31G*
  Basis Set:
  @DF-RHF Final Energy:  -310.20936088870349
    Total Energy =                       -310.2093608887034861
    Molecular point group: c1
  Basis Set: 6-31G*
  Basis Set:
  Basis Set: 6-31G*
  Basis Set:
  @DF-RHF Final Energy:  -310.20966306931388
    Total Energy =                       -310.2096630693140469
  Basis Set: 6-31G*
  Basis Set:
  Basis Set: 6-31G*
  Basis Set:
  @DF-RHF Final Energy:  -310.20972841304734
    Total Energy =                       -310.2097284130475146
  Basis Set: 6-31G*
  Basis Set:
  Basis Set: 6-31G*
  Basis Set:
  @DF-RHF Final Energy:  -310.20972657658353
    Total Energy =                       -310.2097265765833072
  Basis Set: 6-31G*
  Basis Set:
  Basis Set: 6-31G*
  Basis Set:
  @DF-RHF Final Energy:  -310.20973632533531
    Total Energy =                       -310.2097363253352000
  Basis Set: 6-31G*
  Basis Set:
  Basis Set: 6-31G*
  Basis Set:
  @DF-RHF Final Energy:  -310.20973517978075
    Total Energy =                       -310.2097351797807505
  Basis Set: 6-31G*
  Basis Set:
  Charge       = 0
  Multiplicity = 1
  Basis Set: 6-31G*
  Basis Set:

    Orbital Energies (a.u.)
    -----------------------

    Doubly Occupied:

       1A    -20.551558     2A    -11.267232     3A    -11.214909
       4A    -11.214799     5A    -11.213019     6A    -11.210787
       7A    -11.208086     8A     -1.357916     9A     -1.085566
      10A     -1.032147    11A     -0.953409    12A     -0.875430
      13A     -0.807513    14A     -0.778514    15A     -0.696935
      16A     -0.652016    17A     -0.626745    18A     -0.603299
      19A     -0.584904    20A     -0.572599    21A     -0.535273
      22A     -0.521590    23A     -0.509069    24A     -0.485174
      25A     -0.482422    26A     -0.460568    27A     -0.455117
      28A     -0.443462    29A     -0.430158

  @DF-RHF Final Energy:  -310.20973643840364

   => Energetics <=

    Nuclear Repulsion Energy =            312.4690665184831460
    One-Electron Energy =               -1039.6971722456928546
    Two-Electron Energy =                 417.0183692888060705
    DFT Exchange-Correlation Energy =       0.0000000000000000
    Empirical Dispersion Energy =           0.0000000000000000
    PCM Polarization Energy =               0.0000000000000000
    EFP Energy =                            0.0000000000000000
    Total Energy =                       -310.2097364384036382
    Molecular point group: c1
  Basis Set: 6-31G*
  Basis Set:

  -Total Gradient:
     Atom            X                  Y                   Z
    ------   -----------------  -----------------  -----------------
       1        0.000005551634     0.000000118883    -0.000000497543
       2        0.000909731582    -0.000259048746     0.003367283600
       3       -0.000509559686     0.001177443692    -0.004465418413
       4       -0.003232786002    -0.004424438346     0.001601263365
       5        0.000007789257     0.000002483312     0.000000955357
       6       -0.000006760452     0.000000136922     0.000002039098
       7       -0.000005994288     0.000002419470    -0.000006505558
       8        0.002842717844     0.003507657474    -0.000491282512
       9        0.000000584698    -0.000001659768    -0.000003738149
      10        0.000004633730    -0.000006287407    -0.000005121547
      11        0.000000773907     0.000001463287    -0.000000880381
      12       -0.000009317386    -0.000002192193    -0.000001610238
      13       -0.000004861444     0.000005685012     0.000002721683
      14       -0.000002683645    -0.000000911934    -0.000000789519
      15        0.000001852738    -0.000000785847     0.000001141819
      16        0.000000756871    -0.000001715153    -0.000001150058
      17       -0.000001378403     0.000000268419     0.000000032096
      18       -0.000001562869     0.000000737399     0.000001186259
      19       -0.000002511283     0.000000461082     0.000000079030
      20        0.000001497131    -0.000000319546     0.000001598836
      21        0.000001526081    -0.000001516012    -0.000001307223

  **** Optimization is complete! (in 7 steps) ****
    Final optimized geometry and variables:
    Molecular point group: c1

    Geometry (in Angstrom), charge = 0, multiplicity = 1:

    H           -4.197775786157     0.407304673394     0.555674881832
    O           -3.475783430721    -0.179020501337     0.379230337444
    C           -2.313131305439     0.568688591624     0.123542840960
    C           -1.188225475171    -0.392641581974    -0.251911220318
    H           -2.481289201023     1.289393257651    -0.674101220348
    H           -2.036024581272     1.131304722700     1.014048931115
    C            0.191748878934     0.126814352614     0.162862006541
    H           -1.185751757259    -0.546376326890    -1.327707443208
    H           -1.386731693860    -1.348120759247     0.220996259668
    C            1.328009608374    -0.797188067791    -0.282079066913
    H            0.339229198401     1.121615392881    -0.252300665140
    H            0.222969366428     0.239026413813     1.245396417990
    C            2.721130878943    -0.377489516433     0.200370242781
    H            1.331287556425    -0.867001061280    -1.368717317983
    H            1.122787071156    -1.800614610106     0.085028686409
    C            3.225188341648     0.943241164563    -0.384371424941
    H            3.425784146869    -1.164193370136    -0.057784877017
    H            2.721640855992    -0.315233038444     1.286712155802
    H            3.223031719639     0.915010964223    -1.470804085911
    H            2.614429005143     1.784595034959    -0.074064549452
    H            4.242366599064     1.144029419362    -0.062209860649

  Mulliken Charges: (a.u.)
   Center  Symbol    Alpha    Beta     Spin     Total
       1     H     0.28175  0.28175  0.00000  0.43651
       2     O     4.37161  4.37161  0.00000 -0.74321
       3     C     2.99189  2.99189  0.00000  0.01622
       4     C     3.16159  3.16159  0.00000 -0.32317
       5     H     0.43115  0.43115  0.00000  0.13771
       6     H     0.43143  0.43143  0.00000  0.13715
       7     C     3.16251  3.16251  0.00000 -0.32501
       8     H     0.41901  0.41901  0.00000  0.16198
       9     H     0.40717  0.40717  0.00000  0.18566
      10     C     3.15246  3.15246  0.00000 -0.30492
      11     H     0.42300  0.42300  0.00000  0.15399
      12     H     0.42219  0.42219  0.00000  0.15562
      13     C     3.15240  3.15240  0.00000 -0.30479
      14     H     0.42396  0.42396  0.00000  0.15208
      15     H     0.42063  0.42063  0.00000  0.15873
      16     C     3.24116  3.24116  0.00000 -0.48232
      17     H     0.42075  0.42075  0.00000  0.15850
      18     H     0.42319  0.42319  0.00000  0.15363
      19     H     0.42234  0.42234  0.00000  0.15532
      20     H     0.42061  0.42061  0.00000  0.15878
      21     H     0.41923  0.41923  0.00000  0.16155

   Total alpha = 29.00000, Total beta = 29.00000, Total charge = -0.00000
