  ==> Input File <==

--------------------------------------------------------------------------
set {
	reference rhf
	basis 6-31G*
}

set_num_threads( 4 )
memory 2 gb

molecule MOL {
0 1

H	 -1.386618	 -0.788132	 0.756091
N	 -1.172117	 -0.314371	 -0.100254
C	 -0.024542	 0.565565	 0.069209
H	 -0.973498	 -1.022486	 -0.781577
C	 1.271298	 -0.229563	 -0.014192
H	 -0.049409	 1.297310	 -0.731596
H	 -0.046881	 1.125219	 1.006750
H	 1.332152	 -0.753033	 -0.961461
H	 2.134169	 0.422483	 0.080702
H	 1.326077	 -0.968298	 0.781395

	symmetry c1
}
set optking {
	frozen_dihedral = ("
		1 2 3 6
	")
}

ee = optimize('scf')
oeprop('DIPOLE', 'QUADRUPOLE', 'MULLIKEN_CHARGES')
f=open( 'psi4out.xyz', 'w' )
f.write( "10  " )
f.write( str(ee) + "\n" )
f.write( MOL.save_string_xyz() )
f.close()
--------------------------------------------------------------------------

    Molecular point group: c1
  Charge       = 0
  Multiplicity = 1
  Basis Set: 6-31G*
  Basis Set:
  @DF-RHF Final Energy:  -134.24421915922449
    Total Energy =                       -134.2442191592244853
    Molecular point group: c1
  Basis Set: 6-31G*
  Basis Set:
  Basis Set: 6-31G*
  Basis Set:
  @DF-RHF Final Energy:  -134.24650363246485
    Total Energy =                       -134.2465036324648793
  Basis Set: 6-31G*
  Basis Set:
  Basis Set: 6-31G*
  Basis Set:
  @DF-RHF Final Energy:  -134.24677347564244
    Total Energy =                       -134.2467734756424420
  Basis Set: 6-31G*
  Basis Set:
  Basis Set: 6-31G*
  Basis Set:
  @DF-RHF Final Energy:  -134.24678047644102
    Total Energy =                       -134.2467804764409607
  Basis Set: 6-31G*
  Basis Set:
  Charge       = 0
  Multiplicity = 1
  Basis Set: 6-31G*
  Basis Set:

    Orbital Energies (a.u.)
    -----------------------

    Doubly Occupied:

       1A    -15.532013     2A    -11.242554     3A    -11.211093
       4A     -1.175752     5A     -0.987816     6A     -0.832170
       7A     -0.673854     8A     -0.599862     9A     -0.578500
      10A     -0.556352    11A     -0.507793    12A     -0.483097
      13A     -0.378508

  @DF-RHF Final Energy:  -134.24678090266855

   => Energetics <=

    Nuclear Repulsion Energy =             83.1698660625415158
    One-Electron Energy =                -345.3145656284560800
    Two-Electron Energy =                 127.8979186632461165
    DFT Exchange-Correlation Energy =       0.0000000000000000
    Empirical Dispersion Energy =           0.0000000000000000
    PCM Polarization Energy =               0.0000000000000000
    EFP Energy =                            0.0000000000000000
    Total Energy =                       -134.2467809026684336
    Molecular point group: c1
  Basis Set: 6-31G*
  Basis Set:

  -Total Gradient:
     Atom            X                  Y                   Z
    ------   -----------------  -----------------  -----------------
       1       -0.001481117240     0.002043884980     0.000822707784
       2        0.001544234893    -0.002204969940    -0.000728828444
       3        0.001148736624    -0.001364768193    -0.001618849899
       4        0.000012001938     0.000013001890     0.000018632332
       5       -0.000040654848    -0.000000056805     0.000003779923
       6       -0.001206426609     0.001470956733     0.001484883811
       7        0.000008338165     0.000026053654     0.000017258925
       8       -0.000003314581     0.000006534990     0.000018842560
       9        0.000015328658     0.000007078103     0.000000693976
      10        0.000002873002     0.000002284588    -0.000019120969

  **** Optimization is complete! (in 5 steps) ****
    Final optimized geometry and variables:
    Molecular point group: c1

    Geometry (in Angstrom), charge = 0, multiplicity = 1:

    H           -1.418312622722    -0.757738065857     0.788484354507
    N           -1.229714914344    -0.269515921349    -0.064538105402
    C           -0.036917234278     0.554479949848     0.054109754668
    H           -1.137601480635    -0.949075804797    -0.794423330719
    C            1.290913854687    -0.199678911010     0.002283137555
    H           -0.067319968726     1.311689679940    -0.723356564114
    H           -0.110370236905     1.095908899936     0.992078069037
    H            1.399325435402    -0.731648300213    -0.939557446232
    H            2.133088495080     0.480137652087     0.096837390264
    H            1.356157199449    -0.929080633225     0.805192062691

  Mulliken Charges: (a.u.)
   Center  Symbol    Alpha    Beta     Spin     Total
       1     H     0.33375  0.33375  0.00000  0.33251
       2     N     3.91972  3.91972  0.00000 -0.83944
       3     C     3.06212  3.06212  0.00000 -0.12424
       4     H     0.33445  0.33445  0.00000  0.33109
       5     C     3.24423  3.24423  0.00000 -0.48846
       6     H     0.41761  0.41761  0.00000  0.16477
       7     H     0.42005  0.42005  0.00000  0.15990
       8     H     0.42377  0.42377  0.00000  0.15247
       9     H     0.42066  0.42066  0.00000  0.15868
      10     H     0.42364  0.42364  0.00000  0.15271

   Total alpha = 13.00000, Total beta = 13.00000, Total charge = -0.00000
