  ==> Input File <==

--------------------------------------------------------------------------
set {
	reference rhf
	basis cc-pvtz
}

set_num_threads( 4 )
memory 2 gb

molecule MOL {
0 1

H	 -2.816458	 -0.841657	 -0.064679
N	 -1.878861	 -0.711874	 0.250184
C	 -1.341419	 0.551458	 -0.220231
H	 -1.333674	 -1.468530	 -0.105118
C	 0.082190	 0.731516	 0.254705
H	 -1.357065	 0.652078	 -1.304747
H	 -1.939897	 1.357530	 0.189797
O	 0.066115	 1.059475	 1.611131
H	 0.642921	 -0.189104	 0.099105
H	 0.560919	 1.523085	 -0.317279
C	 1.317038	 1.319855	 2.155753
H	 1.181684	 1.556827	 3.201176
H	 1.973285	 0.455771	 2.075788
H	 1.797198	 2.162879	 1.664509

	symmetry c1
}
set optking {
	frozen_dihedral = ("
		8 5 3 6
	")
}

ee = optimize('scf')
oeprop('DIPOLE', 'QUADRUPOLE', 'MULLIKEN_CHARGES')
f=open( 'psi4out.xyz', 'w' )
f.write( "14  " )
f.write( str(ee) + "\n" )
f.write( MOL.save_string_xyz() )
f.close()
--------------------------------------------------------------------------

    Molecular point group: c1
  Charge       = 0
  Multiplicity = 1
  Basis Set: CC-PVTZ
  Basis Set:
  @DF-RHF Final Energy:  -248.22077567085029
    Total Energy =                       -248.2207756708502302
    Molecular point group: c1
  Basis Set: CC-PVTZ
  Basis Set:
  Basis Set: CC-PVTZ
  Basis Set:
  @DF-RHF Final Energy:  -248.22126869513406
    Total Energy =                       -248.2212686951340856
  Basis Set: CC-PVTZ
  Basis Set:
  Basis Set: CC-PVTZ
  Basis Set:
  @DF-RHF Final Energy:  -248.22137650100936
    Total Energy =                       -248.2213765010093312
  Basis Set: CC-PVTZ
  Basis Set:
  Basis Set: CC-PVTZ
  Basis Set:
  @DF-RHF Final Energy:  -248.22141216591368
    Total Energy =                       -248.2214121659134776
  Basis Set: CC-PVTZ
  Basis Set:
  Basis Set: CC-PVTZ
  Basis Set:
  @DF-RHF Final Energy:  -248.22141857893354
    Total Energy =                       -248.2214185789335943
  Basis Set: CC-PVTZ
  Basis Set:
  Basis Set: CC-PVTZ
  Basis Set:
  @DF-RHF Final Energy:  -248.22141958645497
    Total Energy =                       -248.2214195864549993
  Basis Set: CC-PVTZ
  Basis Set:
  Charge       = 0
  Multiplicity = 1
  Basis Set: CC-PVTZ
  Basis Set:

    Orbital Energies (a.u.)
    -----------------------

    Doubly Occupied:

       1A    -20.543842     2A    -15.526727     3A    -11.264254
       4A    -11.259066     5A    -11.241349     6A     -1.379956
       7A     -1.178077     8A     -0.999684     9A     -0.903064
      10A     -0.819214    11A     -0.683058    12A     -0.668626
      13A     -0.648183    14A     -0.619741    15A     -0.598680
      16A     -0.548885    17A     -0.521689    18A     -0.502546
      19A     -0.465770    20A     -0.415325    21A     -0.384320

  @DF-RHF Final Energy:  -248.22142030025600

   => Energetics <=

    Nuclear Repulsion Energy =            193.3094397207388511
    One-Electron Energy =                -720.7176056390917438
    Two-Electron Energy =                 279.1867456180966656
    DFT Exchange-Correlation Energy =       0.0000000000000000
    Empirical Dispersion Energy =           0.0000000000000000
    PCM Polarization Energy =               0.0000000000000000
    EFP Energy =                            0.0000000000000000
    Total Energy =                       -248.2214203002562272
    Molecular point group: c1
  Basis Set: CC-PVTZ
  Basis Set:

  -Total Gradient:
     Atom            X                  Y                   Z
    ------   -----------------  -----------------  -----------------
       1        0.000013171591    -0.000024376051    -0.000048560742
       2       -0.000067530903     0.000036513438     0.000010541947
       3        0.000241909102    -0.000979438949    -0.000165954660
       4        0.000040882236     0.000003010644     0.000042109169
       5        0.000059012317    -0.000795015750     0.000275595568
       6       -0.000238717742     0.000994820337     0.000078184712
       7        0.000020498365     0.000003416114     0.000024276934
       8       -0.000080654125     0.000758381703    -0.000212760073
       9        0.000001991061     0.000002783902    -0.000003441299
      10        0.000002414658    -0.000000708143     0.000001639572
      11        0.000006311715    -0.000000352748    -0.000002383778
      12       -0.000001897004     0.000000731039    -0.000002297803
      13        0.000000004037     0.000000580099     0.000002099788
      14        0.000002604692    -0.000000345632     0.000000950668

  **** Optimization is complete! (in 7 steps) ****
    Final optimized geometry and variables:
    Molecular point group: c1

    Geometry (in Angstrom), charge = 0, multiplicity = 1:

    H           -2.483441443684    -1.420298089828    -0.746432587942
    N           -1.506832877002    -1.334509402176    -0.564066219228
    C           -0.993676372019    -0.063953459897    -1.042124432905
    H           -1.050600285352    -2.100177771236    -1.013612563626
    C            0.417371996378     0.195858797455    -0.554282169745
    H           -0.995701323235     0.022447286796    -2.129237141919
    H           -1.627719069828     0.726570432652    -0.660581482591
    O            0.400854728400     0.542531690564     0.791228336636
    H            1.033428745368    -0.690244355115    -0.712107794337
    H            0.856383973363     1.003436347809    -1.140276168967
    C            1.656665138562     0.715779326532     1.354947701587
    H            1.519628661512     0.994116973643     2.389783379373
    H            2.242309261565    -0.200280545425     1.314578714113
    H            2.216649315693     1.502963083004     0.852861156812

  Mulliken Charges: (a.u.)
   Center  Symbol    Alpha    Beta     Spin     Total
       1     H     0.42848  0.42848  0.00000  0.14304
       2     N     3.68613  3.68613  0.00000 -0.37227
       3     C     3.02432  3.02432  0.00000 -0.04864
       4     H     0.43260  0.43260  0.00000  0.13479
       5     C     2.95873  2.95873  0.00000  0.08255
       6     H     0.46897  0.46897  0.00000  0.06205
       7     H     0.45392  0.45392  0.00000  0.09215
       8     O     4.16784  4.16784  0.00000 -0.33569
       9     H     0.48041  0.48041  0.00000  0.03918
      10     H     0.47365  0.47365  0.00000  0.05270
      11     C     3.03192  3.03192  0.00000 -0.06383
      12     H     0.44678  0.44678  0.00000  0.10644
      13     H     0.47202  0.47202  0.00000  0.05597
      14     H     0.47422  0.47422  0.00000  0.05157

   Total alpha = 21.00000, Total beta = 21.00000, Total charge =  0.00000
