  ==> Input File <==

--------------------------------------------------------------------------
set {
	reference rhf
	basis 6-31G*
}

set_num_threads( 4 )
memory 2 gb

molecule MOL {
0 1

H	 -3.244177	 0.510135	 -0.848500
C	 -2.205239	 0.296081	 -0.675698
C	 -1.784494	 -1.006715	 -0.430916
C	 -1.268378	 1.308720	 -0.693175
H	 -2.500864	 -1.808801	 -0.413561
C	 -0.453156	 -1.285011	 -0.208906
H	 -1.575443	 2.322411	 -0.880861
C	 0.078967	 1.044590	 -0.471013
H	 -0.114684	 -2.286551	 -0.018674
C	 0.487499	 -0.257384	 -0.228018
H	 0.783215	 1.853479	 -0.491003
O	 1.765256	 -0.628444	 0.000000
C	 2.778419	 0.335181	 0.000000
H	 2.731280	 0.961222	 -0.884976
H	 3.711703	 -0.207767	 0.000000
H	 2.731280	 0.961222	 0.884976

	symmetry c1
}
set optking {
	frozen_dihedral = ("
		10 12 13 14
	")
}

ee = optimize('scf')
oeprop('DIPOLE', 'QUADRUPOLE', 'MULLIKEN_CHARGES')
f=open( 'psi4out.xyz', 'w' )
f.write( "16  " )
f.write( str(ee) + "\n" )
f.write( MOL.save_string_xyz() )
f.close()
--------------------------------------------------------------------------

    Molecular point group: c1
  Charge       = 0
  Multiplicity = 1
  Basis Set: 6-31G*
  Basis Set:
  @DF-RHF Final Energy:  -344.58218787905389
    Total Energy =                       -344.5821878790540040
    Molecular point group: c1
  Basis Set: 6-31G*
  Basis Set:
  Basis Set: 6-31G*
  Basis Set:
  @DF-RHF Final Energy:  -344.58242054362046
    Total Energy =                       -344.5824205436202874
  Basis Set: 6-31G*
  Basis Set:
  Basis Set: 6-31G*
  Basis Set:
  @DF-RHF Final Energy:  -344.58250798254375
    Total Energy =                       -344.5825079825436887
  Basis Set: 6-31G*
  Basis Set:
  Charge       = 0
  Multiplicity = 1
  Basis Set: 6-31G*
  Basis Set:

    Orbital Energies (a.u.)
    -----------------------

    Doubly Occupied:

       1A    -20.584734     2A    -11.293936     3A    -11.279932
       4A    -11.232848     5A    -11.231334     6A    -11.223802
       7A    -11.219322     8A    -11.219197     9A     -1.413853
      10A     -1.145733    11A     -1.021627    12A     -1.012653
      13A     -0.941485    14A     -0.830383    15A     -0.804607
      16A     -0.721562    17A     -0.663950    18A     -0.661571
      19A     -0.655569    20A     -0.616787    21A     -0.586805
      22A     -0.576181    23A     -0.523843    24A     -0.520050
      25A     -0.508745    26A     -0.476067    27A     -0.461037
      28A     -0.334563    29A     -0.305058

  @DF-RHF Final Energy:  -344.58251140671462

   => Energetics <=

    Nuclear Repulsion Energy =            348.1005141457206946
    One-Electron Energy =               -1157.2315836464231324
    Two-Electron Energy =                 464.5485580939877082
    DFT Exchange-Correlation Energy =       0.0000000000000000
    Empirical Dispersion Energy =           0.0000000000000000
    PCM Polarization Energy =               0.0000000000000000
    EFP Energy =                            0.0000000000000000
    Total Energy =                       -344.5825114067147297
    Molecular point group: c1
  Basis Set: 6-31G*
  Basis Set:

  -Total Gradient:
     Atom            X                  Y                   Z
    ------   -----------------  -----------------  -----------------
       1        0.000010300725     0.000008869430    -0.000016769834
       2        0.000005079215     0.000111997626     0.000012640767
       3        0.000067387003    -0.000052345141     0.000007616894
       4       -0.000129589945    -0.000036857879     0.000020950348
       5       -0.000000852029     0.000002180413     0.000009273430
       6       -0.000118762954    -0.000036651159    -0.000023231947
       7       -0.000007639608     0.000007111554    -0.000012080429
       8        0.000051613385    -0.000020609718    -0.000008200255
       9        0.000015094186     0.000009261067     0.000005429778
      10        0.000288043554    -0.000347942150    -0.001246507350
      11       -0.000059631878    -0.000002752600    -0.000007319276
      12       -0.000486132438     0.000825140207     0.001898037592
      13        0.001256184132    -0.001641434847    -0.001203682737
      14       -0.000917514813     0.001062887352     0.000557047934
      15       -0.000068939938     0.000015149859     0.000006272031
      16        0.000095361400     0.000095995989     0.000000523055

  **** Optimization is complete! (in 4 steps) ****
    Final optimized geometry and variables:
    Molecular point group: c1

    Geometry (in Angstrom), charge = 0, multiplicity = 1:

    H           -3.255980538473     0.520797023299    -0.594502750294
    C           -2.221359906359     0.312292562805    -0.391537531743
    C           -1.797420894418    -0.991413416016    -0.156315120719
    C           -1.293701680561     1.332857153764    -0.359270967090
    H           -2.507200187734    -1.799315783072    -0.176895435627
    C           -0.471329183388    -1.263063474328     0.101989177832
    H           -1.603779284535     2.347680177381    -0.535646619784
    C            0.048016413854     1.075461325817    -0.097804197028
    H           -0.129891417128    -2.265136059007     0.283882800702
    C            0.460631026139    -0.227671549430     0.130615596980
    H            0.744337839016     1.891105449111    -0.070344932764
    O            1.732443195026    -0.589667125220     0.402086752155
    C            2.765274987198     0.344069114729     0.268314008604
    H            2.725716219807     0.845593694593    -0.692540874553
    H            3.688943053849    -0.208807006061     0.349929829102
    H            2.727544773469     1.090422330700     1.055858652263

  Mulliken Charges: (a.u.)
   Center  Symbol    Alpha    Beta     Spin     Total
       1     H     0.40123  0.40123  0.00000  0.19753
       2     C     3.11199  3.11199  0.00000 -0.22397
       3     C     3.09192  3.09192  0.00000 -0.18383
       4     C     3.09106  3.09106  0.00000 -0.18212
       5     H     0.39879  0.39879  0.00000  0.20243
       6     C     3.12539  3.12539  0.00000 -0.25077
       7     H     0.39967  0.39967  0.00000  0.20067
       8     C     3.14440  3.14440  0.00000 -0.28880
       9     H     0.39296  0.39296  0.00000  0.21408
      10     C     2.78264  2.78264  0.00000  0.43471
      11     H     0.39746  0.39746  0.00000  0.20509
      12     O     4.32631  4.32631  0.00000 -0.65262
      13     C     3.09189  3.09189  0.00000 -0.18378
      14     H     0.41957  0.41957  0.00000  0.16086
      15     H     0.40483  0.40483  0.00000  0.19034
      16     H     0.41990  0.41990  0.00000  0.16019

   Total alpha = 29.00000, Total beta = 29.00000, Total charge =  0.00000
