  ==> Input File <==

--------------------------------------------------------------------------
set {
	reference rhf
	basis 6-31G*
}

set_num_threads( 4 )
memory 2 gb

molecule MOL {
0 1

O	 -1.487788	 1.240889	 -0.102860
C	 -1.083277	 0.139568	 0.115197
C	 0.323299	 -0.082943	 0.642902
C	 -1.933017	 -1.084621	 -0.143902
C	 1.355627	 -0.005344	 -0.493127
H	 0.396251	 -1.044647	 1.143147
H	 0.528637	 0.693580	 1.371677
C	 0.895485	 0.897702	 -1.635941
H	 2.303273	 0.360194	 -0.103740
H	 1.537036	 -1.008613	 -0.864182
H	 1.637709	 0.931148	 -2.426938
H	 0.730485	 1.914900	 -1.292564
H	 -0.033735	 0.538172	 -2.067607
H	 -1.393885	 -1.806447	 -0.750509
H	 -2.850323	 -0.799888	 -0.640100
H	 -2.169004	 -1.571158	 0.798858

	symmetry c1
}
set optking {
	frozen_dihedral = ("
		9 5 3 2
	")
}

ee = optimize('scf')
oeprop('DIPOLE', 'QUADRUPOLE', 'MULLIKEN_CHARGES')
f=open( 'psi4out.xyz', 'w' )
f.write( "16  " )
f.write( str(ee) + "\n" )
f.write( MOL.save_string_xyz() )
f.close()
--------------------------------------------------------------------------

    Molecular point group: c1
  Charge       = 0
  Multiplicity = 1
  Basis Set: 6-31G*
  Basis Set:
  @DF-RHF Final Energy:  -270.02128464807805
    Total Energy =                       -270.0212846480779945
    Molecular point group: c1
  Basis Set: 6-31G*
  Basis Set:
  Basis Set: 6-31G*
  Basis Set:
  @DF-RHF Final Energy:  -270.02386254566397
    Total Energy =                       -270.0238625456639170
  Basis Set: 6-31G*
  Basis Set:
  Basis Set: 6-31G*
  Basis Set:
  @DF-RHF Final Energy:  -270.02460451611364
    Total Energy =                       -270.0246045161138682
  Basis Set: 6-31G*
  Basis Set:
  Basis Set: 6-31G*
  Basis Set:
  @DF-RHF Final Energy:  -270.02515382379534
    Total Energy =                       -270.0251538237953923
  Basis Set: 6-31G*
  Basis Set:
  @DF-RHF Final Energy:  -270.02534750253449
    Total Energy =                       -270.0253475025346006
  @DF-RHF Final Energy:  -270.02550604271141
    Total Energy =                       -270.0255060427111289
  @DF-RHF Final Energy:  -270.02557504558956
    Total Energy =                       -270.0255750455895623
  Basis Set: 6-31G*
  Basis Set:
  @DF-RHF Final Energy:  -270.02560568709646
    Total Energy =                       -270.0256056870966290
  Basis Set: 6-31G*
  Basis Set:
  Basis Set: 6-31G*
  Basis Set:
  @DF-RHF Final Energy:  -270.02561062598181
    Total Energy =                       -270.0256106259817557
  Basis Set: 6-31G*
  Basis Set:
  Basis Set: 6-31G*
  Basis Set:
  @DF-RHF Final Energy:  -270.02561207305905
    Total Energy =                       -270.0256120730590510
  Basis Set: 6-31G*
  Basis Set:
  Charge       = 0
  Multiplicity = 1
  Basis Set: 6-31G*
  Basis Set:

    Orbital Energies (a.u.)
    -----------------------

    Doubly Occupied:

       1A    -20.548671     2A    -11.324719     3A    -11.235209
       4A    -11.229778     5A    -11.228115     6A    -11.216246
       7A     -1.394240     8A     -1.080372     9A     -1.009268
      10A     -0.950522    11A     -0.834726    12A     -0.726689
      13A     -0.653864    14A     -0.646298    15A     -0.623167
      16A     -0.607344    17A     -0.576995    18A     -0.559219
      19A     -0.536675    20A     -0.505689    21A     -0.505321
      22A     -0.480761    23A     -0.474188    24A     -0.397956

  @DF-RHF Final Energy:  -270.02561237199268

   => Energetics <=

    Nuclear Repulsion Energy =            243.2245908569688311
    One-Electron Energy =                -847.8083444017214561
    Two-Electron Energy =                 334.5581411727600312
    DFT Exchange-Correlation Energy =       0.0000000000000000
    Empirical Dispersion Energy =           0.0000000000000000
    PCM Polarization Energy =               0.0000000000000000
    EFP Energy =                            0.0000000000000000
    Total Energy =                       -270.0256123719926222
    Molecular point group: c1
  Basis Set: 6-31G*
  Basis Set:

  -Total Gradient:
     Atom            X                  Y                   Z
    ------   -----------------  -----------------  -----------------
       1        0.000011451137     0.000006770298    -0.000010077608
       2        0.000471729415     0.004304175587     0.000280657784
       3       -0.001027736295    -0.004908950955    -0.000679381769
       4        0.000004611085     0.000007618264     0.000015382940
       5        0.002195719834    -0.004756141696     0.001938592379
       6        0.000007135017     0.000000846234    -0.000014969975
       7        0.000002018930    -0.000005259473     0.000003076967
       8        0.000001445328    -0.000011802204    -0.000008358712
       9       -0.001653442909     0.005360775984    -0.001522551731
      10       -0.000009973949     0.000000055472     0.000007207395
      11       -0.000006880408    -0.000000989138     0.000004960309
      12       -0.000003437249     0.000005553490     0.000001757240
      13       -0.000003452191     0.000004778168    -0.000001285316
      14        0.000003794305     0.000001404262    -0.000007338958
      15        0.000002024172    -0.000003668229    -0.000005114139
      16        0.000004993781    -0.000005166063    -0.000002556807

  **** Optimization is complete! (in 11 steps) ****
    Final optimized geometry and variables:
    Molecular point group: c1

    Geometry (in Angstrom), charge = 0, multiplicity = 1:

    O           -1.300377104653     1.045414023063     0.552107015520
    C           -0.768491182189    -0.019736270086     0.476497302324
    C            0.680598253304    -0.207562120380     0.889678303818
    C           -1.511258613753    -1.240396151246    -0.024146323645
    C            1.677271308299    -0.237556763936    -0.296963480965
    H            0.783381568085    -1.116801848019     1.475014288851
    H            0.916561275412     0.630762717215     1.533829559976
    C            1.268393396214     0.622984940163    -1.497632276724
    H            2.621165070125     0.156070699939     0.064872949931
    H            1.849729230444    -1.258725486179    -0.621058400592
    H            2.064324227568     0.635899872632    -2.235196458258
    H            1.070447916540     1.646216671233    -1.197316123699
    H            0.375871017314     0.248721361191    -1.989147351425
    H           -0.924236173087    -1.785353446083    -0.756900392956
    H           -2.458064768948    -0.945974843333    -0.455454474370
    H           -1.693952590985    -1.915934678930     0.807648900134

  Mulliken Charges: (a.u.)
   Center  Symbol    Alpha    Beta     Spin     Total
       1     O     4.26186  4.26186  0.00000 -0.52371
       2     C     2.73579  2.73579  0.00000  0.52842
       3     C     3.20373  3.20373  0.00000 -0.40746
       4     C     3.28913  3.28913  0.00000 -0.57827
       5     C     3.15975  3.15975  0.00000 -0.31950
       6     H     0.41308  0.41308  0.00000  0.17383
       7     H     0.40009  0.40009  0.00000  0.19983
       8     C     3.24946  3.24946  0.00000 -0.49892
       9     H     0.41175  0.41175  0.00000  0.17651
      10     H     0.41793  0.41793  0.00000  0.16414
      11     H     0.41631  0.41631  0.00000  0.16738
      12     H     0.40748  0.40748  0.00000  0.18505
      13     H     0.41984  0.41984  0.00000  0.16031
      14     H     0.41051  0.41051  0.00000  0.17899
      15     H     0.39700  0.39700  0.00000  0.20600
      16     H     0.40630  0.40630  0.00000  0.18740

   Total alpha = 24.00000, Total beta = 24.00000, Total charge =  0.00000
