  ==> Input File <==

--------------------------------------------------------------------------
set {
	reference rhf
	basis 6-31G*
}

set_num_threads( 1 )
memory 2 gb

molecule MOL {
0 1

H	 -3.161837	 0.500524	 -0.000234
C	 -2.367097	 -0.232926	 -0.000000
O	 -1.158440	 0.455814	 -0.000122
H	 -2.468853	 -0.861886	 -0.882833
H	 -2.468942	 -0.861421	 0.883154
C	 -0.029776	 -0.365156	 0.000148
C	 1.004401	 0.223587	 0.943823
H	 0.378467	 -0.442411	 -1.008450
H	 -0.299436	 -1.373937	 0.315665
C	 2.280951	 -0.613791	 1.007834
H	 1.234123	 1.232880	 0.616383
H	 0.561042	 0.307844	 1.931261
H	 2.754210	 -0.690267	 0.032846
H	 3.000635	 -0.171203	 1.688288
H	 2.076256	 -1.622245	 1.356438

	symmetry c1
}
set optking {
	frozen_dihedral = ("
		6 3 2 4,
		11 7 6 8
	")
}

ee = energy('scf')
oeprop('DIPOLE', 'QUADRUPOLE', 'MULLIKEN_CHARGES')
f=open( 'psi4out.xyz', 'w' )
f.write( "15  " )
f.write( str(ee) + "\n" )
f.write( MOL.save_string_xyz() )
f.close()
--------------------------------------------------------------------------

    Molecular point group: c1

    Geometry (in Angstrom), charge = 0, multiplicity = 1:

       Center              X                  Y                   Z               Mass
    ------------   -----------------  -----------------  -----------------  -----------------
           H         -3.077472149156     0.616382532937    -0.383514824504     1.007825032070
           C         -2.282732149156    -0.117067467063    -0.383280824504    12.000000000000
           O         -1.074075149156     0.571672532937    -0.383402824504    15.994914619560
           H         -2.384488149156    -0.746027467063    -1.266113824504     1.007825032070
           H         -2.384577149156    -0.745562467063     0.499873175496     1.007825032070
           C          0.054588850844    -0.249297467063    -0.383132824504    12.000000000000
           C          1.088765850844     0.339445532937     0.560542175496    12.000000000000
           H          0.462831850844    -0.326552467063    -1.391730824504     1.007825032070
           H         -0.215071149156    -1.258078467063    -0.067615824504     1.007825032070
           C          2.365315850844    -0.497932467063     0.624553175496    12.000000000000
           H          1.318487850844     1.348738532937     0.233102175496     1.007825032070
           H          0.645406850844     0.423702532937     1.547980175496     1.007825032070
           H          2.838574850844    -0.574408467063    -0.350434824504     1.007825032070
           H          3.084999850844    -0.055344467063     1.305007175496     1.007825032070
           H          2.160620850844    -1.506386467063     0.973157175496     1.007825032070

  Charge       = 0
  Multiplicity = 1
  Basis Set: 6-31G*
  Basis Set:

    Orbital Energies (a.u.)
    -----------------------

    Doubly Occupied:

       1A    -20.551651     2A    -11.265677     3A    -11.264804
       4A    -11.213314     5A    -11.212314     6A     -1.377981
       7A     -1.056461     8A     -0.955470     9A     -0.878566
      10A     -0.808918    11A     -0.673162    12A     -0.653075
      13A     -0.633894    14A     -0.603463    15A     -0.567473
      16A     -0.538964    17A     -0.503122    18A     -0.490973
      19A     -0.480727    20A     -0.463709    21A     -0.407369

  @DF-RHF Final Energy:  -232.13624962247735

   => Energetics <=

    Nuclear Repulsion Energy =            190.2656154474274217
    One-Electron Energy =                -691.6015939490732762
    Two-Electron Energy =                 269.1997288791687879
    DFT Exchange-Correlation Energy =       0.0000000000000000
    Empirical Dispersion Energy =           0.0000000000000000
    PCM Polarization Energy =               0.0000000000000000
    EFP Energy =                            0.0000000000000000
    Total Energy =                       -232.1362496224770666

  Mulliken Charges: (a.u.)
   Center  Symbol    Alpha    Beta     Spin     Total
       1     H     0.41296  0.41296  0.00000  0.17409
       2     C     3.08072  3.08072  0.00000 -0.16145
       3     O     4.30558  4.30558  0.00000 -0.61117
       4     H     0.42998  0.42998  0.00000  0.14005
       5     H     0.42989  0.42989  0.00000  0.14022
       6     C     2.98433  2.98433  0.00000  0.03135
       7     C     3.15744  3.15744  0.00000 -0.31488
       8     H     0.42767  0.42767  0.00000  0.14465
       9     H     0.43318  0.43318  0.00000  0.13363
      10     C     3.24873  3.24873  0.00000 -0.49747
      11     H     0.41383  0.41383  0.00000  0.17233
      12     H     0.41774  0.41774  0.00000  0.16451
      13     H     0.42052  0.42052  0.00000  0.15896
      14     H     0.41574  0.41574  0.00000  0.16852
      15     H     0.42167  0.42167  0.00000  0.15665

   Total alpha = 21.00000, Total beta = 21.00000, Total charge = -0.00000
