                              Psi4 1.0.54 Driver

  ==> Input File <==

--------------------------------------------------------------------------
set {
	reference rhf
	basis cc-pvtz
}

set_num_threads( 4 )
memory 2 gb

molecule MOL {
0 1

H	 -3.553909	 1.682006	 -0.690698
O	 -2.851618	 1.101803	 -0.919493
C	 -2.302264	 0.528872	 0.237390
C	 -1.175688	 -0.398187	 -0.171891
H	 -1.922782	 1.302307	 0.901893
H	 -3.060736	 -0.028479	 0.783201
C	 0.196029	 0.106276	 0.266738
H	 -1.201873	 -0.515469	 -1.250677
H	 -1.365975	 -1.378728	 0.252664
C	 1.330220	 -0.826136	 -0.155230
H	 0.359542	 1.097229	 -0.145561
H	 0.212134	 0.218135	 1.348778
C	 2.719700	 -0.407669	 0.328325
H	 1.339388	 -0.911200	 -1.239363
H	 1.119001	 -1.821953	 0.224128
C	 3.241564	 0.893452	 -0.276737
H	 3.418299	 -1.204729	 0.093035
H	 2.711776	 -0.323368	 1.411960
H	 3.254204	 0.841071	 -1.360784
H	 2.634460	 1.745075	 0.005842
H	 4.254264	 1.092401	 0.054971

	symmetry c1
}
set optking {
	frozen_dihedral = ("
		2 3 4 8
	")
}

ee,wfn = optimize('scf', return_wfn=True)
oeprop( wfn, 'DIPOLE', 'QUADRUPOLE', 'MULLIKEN_CHARGES')
f=open( 'psi4out.xyz', 'w' )
f.write( "21  " )
f.write( str(ee) + "\n" )
f.write( MOL.save_string_xyz() )
f.close()
--------------------------------------------------------------------------

    Molecular point group: c1
  Charge       = 0
  Multiplicity = 1
  Basis Set: CC-PVTZ
  Basis Set:
  @DF-RHF Final Energy:  -310.32721490811696
    Total Energy =                       -310.3272149081171847
    Molecular point group: c1
  Basis Set: CC-PVTZ
  Basis Set:
  Basis Set: CC-PVTZ
  Basis Set:
  @DF-RHF Final Energy:  -310.32758902605622
    Total Energy =                       -310.3275890260558185
  Basis Set: CC-PVTZ
  Basis Set:
  Basis Set: CC-PVTZ
  Basis Set:
  @DF-RHF Final Energy:  -310.32770779120386
    Total Energy =                       -310.3277077912040340
  Basis Set: CC-PVTZ
  Basis Set:
  Basis Set: CC-PVTZ
  Basis Set:
  @DF-RHF Final Energy:  -310.32770964954960
    Total Energy =                       -310.3277096495496608
  Basis Set: CC-PVTZ
  Basis Set:
  Charge       = 0
  Multiplicity = 1
  Basis Set: CC-PVTZ
  Basis Set:

    Orbital Energies (a.u.)
    -----------------------

    Doubly Occupied:

       1A    -20.545260     2A    -11.265334     3A    -11.211683
       4A    -11.210327     5A    -11.209257     6A    -11.208976
       7A    -11.204171     8A     -1.362208     9A     -1.084823
      10A     -1.031355    11A     -0.953655    12A     -0.876328
      13A     -0.806842    14A     -0.777321    15A     -0.704952
      16A     -0.644678    17A     -0.625580    18A     -0.604563
      19A     -0.591883    20A     -0.564361    21A     -0.541399
      22A     -0.520108    23A     -0.506839    24A     -0.493238
      25A     -0.477468    26A     -0.459412    27A     -0.456135
      28A     -0.447166    29A     -0.426587

  @DF-RHF Final Energy:  -310.32770996577631

   => Energetics <=

    Nuclear Repulsion Energy =            314.3706708418292237
    One-Electron Energy =               -1043.7729473129236339
    Two-Electron Energy =                 419.0745665053179891
    DFT Exchange-Correlation Energy =       0.0000000000000000
    Empirical Dispersion Energy =           0.0000000000000000
    PCM Polarization Energy =               0.0000000000000000
    EFP Energy =                            0.0000000000000000
    Total Energy =                       -310.3277099657764211
    Molecular point group: c1
  Basis Set: CC-PVTZ
  Basis Set:

  -Total Gradient:
     Atom            X                  Y                   Z
    ------   -----------------  -----------------  -----------------
       1       -0.000054567867     0.000054761895    -0.000044586282
       2       -0.001138834080    -0.001358286509    -0.000022113651
       3        0.001872760421     0.002009919019     0.000164840572
       4       -0.002004541124    -0.002646001830     0.000157355092
       5       -0.000016204962     0.000030047259    -0.000038549804
       6       -0.000014749529     0.000011095164    -0.000029460025
       7       -0.000057225550     0.000019708848     0.000004136476
       8        0.001404461645     0.001821384973    -0.000228981702
       9       -0.000031309035     0.000053542915     0.000031256483
      10       -0.000026232131     0.000017785109    -0.000005048284
      11       -0.000009493673    -0.000027041424    -0.000002258917
      12        0.000005584056     0.000020225478     0.000008275956
      13        0.000014829443    -0.000010414819     0.000014779979
      14        0.000003410122     0.000004574623     0.000006945495
      15        0.000004297839     0.000000505968    -0.000013081295
      16        0.000013626516     0.000002556529    -0.000004883677
      17        0.000019131937     0.000003020087     0.000011684554
      18       -0.000005107474     0.000002452735    -0.000002072823
      19       -0.000001150545     0.000003809430    -0.000005783221
      20        0.000023633735    -0.000009201785     0.000001452552
      21       -0.000002319744    -0.000004443662    -0.000003907478

  **** Optimization is complete! (in 5 steps) ****
    Final optimized geometry and variables:
    Molecular point group: c1

    Geometry (in Angstrom), charge = 0, multiplicity = 1:

    H           -3.651716222535     1.517342545097    -0.537438494106
    O           -2.970703512745     0.913271121900    -0.770040943856
    C           -2.423245586780     0.335890218426     0.389542289990
    C           -1.277848314149    -0.596105552657    -0.014324092439
    H           -2.060856181169     1.111015077050     1.059400038378
    H           -3.191945194400    -0.218298922280     0.920600570971
    C            0.102058219845    -0.080074528242     0.391100915609
    H           -1.311444226271    -0.698662609630    -1.092226125846
    H           -1.433870698275    -1.582422462613     0.408887350943
    C            1.234613421024    -0.996899903551    -0.064774616916
    H            0.235191887911     0.914086225676    -0.023303719792
    H            0.144674845648     0.028644789189     1.472950094685
    C            2.631362334030    -0.568974546116     0.389192052042
    H            1.218640153929    -1.072873943004    -1.149531511837
    H            1.042836610476    -1.998609555529     0.310726583201
    C            3.126138517651     0.741020799707    -0.219284592294
    H            3.332095001219    -1.357558670723     0.132441920684
    H            2.647877976878    -0.491661690474     1.473283746153
    H            3.113889566908     0.695433304413    -1.303554307235
    H            2.516799552307     1.584315913576     0.082372561766
    H            4.144241960331     0.948138744626     0.090270729908

  Mulliken Charges: (a.u.)
   Center  Symbol    Alpha    Beta     Spin     Total
       1     H     0.39555  0.39555  0.00000  0.20890
       2     O     4.19809  4.19809  0.00000 -0.39618
       3     C     2.96696  2.96696  0.00000  0.06609
       4     C     3.09058  3.09058  0.00000 -0.18117
       5     H     0.47501  0.47501  0.00000  0.04999
       6     H     0.47120  0.47120  0.00000  0.05759
       7     C     3.09943  3.09943  0.00000 -0.19886
       8     H     0.44605  0.44605  0.00000  0.10790
       9     H     0.45134  0.45134  0.00000  0.09733
      10     C     3.09635  3.09635  0.00000 -0.19269
      11     H     0.44802  0.44802  0.00000  0.10397
      12     H     0.45674  0.45674  0.00000  0.08652
      13     C     3.09000  3.09000  0.00000 -0.18001
      14     H     0.45255  0.45255  0.00000  0.09489
      15     H     0.45044  0.45044  0.00000  0.09912
      16     C     3.15177  3.15177  0.00000 -0.30354
      17     H     0.44885  0.44885  0.00000  0.10230
      18     H     0.45555  0.45555  0.00000  0.08890
      19     H     0.45442  0.45442  0.00000  0.09115
      20     H     0.45396  0.45396  0.00000  0.09209
      21     H     0.44714  0.44714  0.00000  0.10572

   Total alpha = 29.00000, Total beta = 29.00000, Total charge =  0.00000

*** Psi4 exiting successfully. Buy a developer a beer!
