  ==> Input File <==

--------------------------------------------------------------------------
set {
	reference rhf
	basis 6-31G*
}

set_num_threads( 4 )
memory 2 gb

molecule MOL {
0 1

H	 -2.499100	 -0.730091	 -0.745082
O	 -2.347518	 -0.290803	 0.079804
C	 -1.184022	 0.487508	 -0.006784
C	 0.062599	 -0.378592	 0.031606
H	 -1.176523	 1.099369	 -0.904519
H	 -1.187323	 1.153111	 0.844927
O	 -0.043959	 -1.331029	 -0.978982
H	 0.152937	 -0.862108	 1.006301
H	 0.944499	 0.244194	 -0.106143
C	 1.051901	 -2.183439	 -1.086827
H	 1.203606	 -2.754072	 -0.172501
H	 0.853769	 -2.869137	 -1.898901
H	 1.964096	 -1.631937	 -1.304857

	symmetry c1
}
set optking {
	frozen_dihedral = ("
		8 4 3 5
	")
}

ee = optimize('scf')
oeprop('DIPOLE', 'QUADRUPOLE', 'MULLIKEN_CHARGES')
f=open( 'psi4out.xyz', 'w' )
f.write( "13  " )
f.write( str(ee) + "\n" )
f.write( MOL.save_string_xyz() )
f.close()
--------------------------------------------------------------------------

    Molecular point group: c1
  Charge       = 0
  Multiplicity = 1
  Basis Set: 6-31G*
  Basis Set:
  @DF-RHF Final Energy:  -267.95240385461886
    Total Energy =                       -267.9524038546187512
    Molecular point group: c1
  Basis Set: 6-31G*
  Basis Set:
  Basis Set: 6-31G*
  Basis Set:
  @DF-RHF Final Energy:  -267.95379079963919
    Total Energy =                       -267.9537907996392505
  Basis Set: 6-31G*
  Basis Set:
  Basis Set: 6-31G*
  Basis Set:
  @DF-RHF Final Energy:  -267.95402629880965
    Total Energy =                       -267.9540262988093673
  Basis Set: 6-31G*
  Basis Set:
  Basis Set: 6-31G*
  Basis Set:
  @DF-RHF Final Energy:  -267.95405764601401
    Total Energy =                       -267.9540576460138936
  Basis Set: 6-31G*
  Basis Set:
  Charge       = 0
  Multiplicity = 1
  Basis Set: 6-31G*
  Basis Set:

    Orbital Energies (a.u.)
    -----------------------

    Doubly Occupied:

       1A    -20.570164     2A    -20.547510     3A    -11.275302
       4A    -11.274681     5A    -11.268011     6A     -1.396970
       7A     -1.353667     8A     -1.020685     9A     -0.923096
      10A     -0.835919    11A     -0.702574    12A     -0.682554
      13A     -0.666692    14A     -0.635199    15A     -0.583778
      16A     -0.581918    17A     -0.543758    18A     -0.494211
      19A     -0.482473    20A     -0.433372    21A     -0.427650

  @DF-RHF Final Energy:  -267.95406011617240

   => Energetics <=

    Nuclear Repulsion Energy =            194.8939363685523460
    One-Electron Energy =                -752.2956270533197767
    Two-Electron Energy =                 289.4476305685944908
    DFT Exchange-Correlation Energy =       0.0000000000000000
    Empirical Dispersion Energy =           0.0000000000000000
    PCM Polarization Energy =               0.0000000000000000
    EFP Energy =                            0.0000000000000000
    Total Energy =                       -267.9540601161729683
    Molecular point group: c1
  Basis Set: 6-31G*
  Basis Set:

  -Total Gradient:
     Atom            X                  Y                   Z
    ------   -----------------  -----------------  -----------------
       1        0.000037101708     0.000000488051    -0.000012815066
       2       -0.000014952674     0.000031433077     0.000018870331
       3       -0.001095910299    -0.001717043306    -0.001295463624
       4       -0.001230029966    -0.001923491189    -0.000930962168
       5        0.001166477779     0.001667264333     0.001242468167
       6        0.000004857344    -0.000017641805     0.000012571789
       7       -0.000021309728    -0.000022621365    -0.000015247339
       8        0.001198995447     0.001895865144     0.000925080178
       9       -0.000003050384     0.000041666319     0.000030239111
      10       -0.000020210852     0.000022744070     0.000012215556
      11        0.000002907271    -0.000005747773     0.000011381790
      12       -0.000018301191     0.000021720983     0.000003577032
      13       -0.000006574455     0.000005363462    -0.000001915757

  **** Optimization is complete! (in 5 steps) ****
    Final optimized geometry and variables:
    Molecular point group: c1

    Geometry (in Angstrom), charge = 0, multiplicity = 1:

    H           -1.761230830735    -0.208305949480    -0.213346623224
    O           -1.833415182428     0.458684570885     0.457310268496
    C           -0.676574954515     1.237496441290     0.408042471483
    C            0.574875559054     0.382760211216     0.440097885834
    H           -0.658411541732     1.872814060562    -0.475063692527
    H           -0.692044258585     1.887306308580     1.274635639453
    O            0.482366970701    -0.539334729151    -0.605822816307
    H            0.658287820016    -0.125944511318     1.398826845322
    H            1.458503971243     1.009526109782     0.320590097625
    C            1.531037767932    -1.455595273143    -0.668540271802
    H            1.590583892771    -2.051062414277     0.239626033051
    H            1.342900967986    -2.110575100103    -1.507832459404
    H            2.484638398619    -0.954376800568    -0.818901383440

  Mulliken Charges: (a.u.)
   Center  Symbol    Alpha    Beta     Spin     Total
       1     H     0.27190  0.27190  0.00000  0.45621
       2     O     4.37283  4.37283  0.00000 -0.74567
       3     C     2.99701  2.99701  0.00000  0.00597
       4     C     3.00412  3.00412  0.00000 -0.00824
       5     H     0.42540  0.42540  0.00000  0.14920
       6     H     0.41745  0.41745  0.00000  0.16510
       7     O     4.31401  4.31401  0.00000 -0.62803
       8     H     0.42420  0.42420  0.00000  0.15160
       9     H     0.42978  0.42978  0.00000  0.14044
      10     C     3.08001  3.08001  0.00000 -0.16001
      11     H     0.42587  0.42587  0.00000  0.14827
      12     H     0.41035  0.41035  0.00000  0.17930
      13     H     0.42707  0.42707  0.00000  0.14585

   Total alpha = 21.00000, Total beta = 21.00000, Total charge = -0.00000
