  ==> Input File <==

--------------------------------------------------------------------------
set {
	reference rhf
	basis cc-pvtz
}

set_num_threads( 4 )
memory 2 gb

molecule MOL {
0 1

H	 -2.777964	 0.415369	 0.231421
C	 -2.410411	 0.306206	 -0.780117
C	 -1.144022	 -0.535224	 -0.812792
H	 -2.227065	 1.298868	 -1.168988
H	 -3.185586	 -0.158096	 -1.377973
C	 0.000000	 0.039916	 0.000014
H	 -0.791509	 -0.663258	 -1.832714
H	 -1.337602	 -1.539109	 -0.444507
C	 1.286532	 -0.763243	 0.000268
O	 -0.105349	 1.058951	 0.600720
C	 2.547023	 0.087626	 -0.000114
H	 1.264245	 -1.421103	 -0.864380
H	 1.264290	 -1.420353	 0.865489
H	 2.584452	 0.725630	 -0.872909
H	 3.427035	 -0.544422	 0.000125
H	 2.584484	 0.726356	 0.872143

	symmetry c1
}
set optking {
	frozen_dihedral = ("
		3 6 9 12
	")
}

ee = optimize('scf')
oeprop('DIPOLE', 'QUADRUPOLE', 'MULLIKEN_CHARGES')
f=open( 'psi4out.xyz', 'w' )
f.write( "16  " )
f.write( str(ee) + "\n" )
f.write( MOL.save_string_xyz() )
f.close()
--------------------------------------------------------------------------

    Molecular point group: c1
  Charge       = 0
  Multiplicity = 1
  Basis Set: CC-PVTZ
  Basis Set:
  @DF-RHF Final Energy:  -270.13043283258844
    Total Energy =                       -270.1304328325883830
    Molecular point group: c1
  Basis Set: CC-PVTZ
  Basis Set:
  Basis Set: CC-PVTZ
  Basis Set:
  @DF-RHF Final Energy:  -270.13081710241750
    Total Energy =                       -270.1308171024176090
  Basis Set: CC-PVTZ
  Basis Set:
  Basis Set: CC-PVTZ
  Basis Set:
  @DF-RHF Final Energy:  -270.12962349029556
    Total Energy =                       -270.1296234902957849
  Basis Set: CC-PVTZ
  Basis Set:
  Basis Set: CC-PVTZ
  Basis Set:
  @DF-RHF Final Energy:  -270.13088854453986
    Total Energy =                       -270.1308885445399142
  Basis Set: CC-PVTZ
  Basis Set:
  Basis Set: CC-PVTZ
  Basis Set:
  @DF-RHF Final Energy:  -270.13089816886088
    Total Energy =                       -270.1308981688609947
  Basis Set: CC-PVTZ
  Basis Set:
  Charge       = 0
  Multiplicity = 1
  Basis Set: CC-PVTZ
  Basis Set:

    Orbital Energies (a.u.)
    -----------------------

    Doubly Occupied:

       1A    -20.537802     2A    -11.318058     3A    -11.232909
       4A    -11.231633     5A    -11.214860     6A    -11.211920
       7A     -1.398611     8A     -1.069657     9A     -1.037593
      10A     -0.916574    11A     -0.848688    12A     -0.726199
      13A     -0.668764    14A     -0.644806    15A     -0.623332
      16A     -0.605854    17A     -0.562949    18A     -0.534036
      19A     -0.527407    20A     -0.512156    21A     -0.503561
      22A     -0.495935    23A     -0.482575    24A     -0.399481

  @DF-RHF Final Energy:  -270.13089847642777

   => Energetics <=

    Nuclear Repulsion Energy =            240.2996084021376930
    One-Electron Energy =                -842.2502940706174286
    Two-Electron Energy =                 331.8197871920518764
    DFT Exchange-Correlation Energy =       0.0000000000000000
    Empirical Dispersion Energy =           0.0000000000000000
    PCM Polarization Energy =               0.0000000000000000
    EFP Energy =                            0.0000000000000000
    Total Energy =                       -270.1308984764278875
    Molecular point group: c1
  Basis Set: CC-PVTZ
  Basis Set:

  -Total Gradient:
     Atom            X                  Y                   Z
    ------   -----------------  -----------------  -----------------
       1       -0.000004824970     0.000006660688    -0.000003974275
       2       -0.000019689313    -0.000019483019     0.000034035449
       3        0.000402544729     0.000554717035    -0.000982836591
       4        0.000010039521    -0.000007510563    -0.000002595147
       5       -0.000003119250     0.000001801725    -0.000002477775
       6       -0.000720052027    -0.001010174201     0.001568805340
       7       -0.000004292078    -0.000015761331    -0.000003665774
       8        0.000002921805     0.000017382175     0.000013529102
       9        0.001034084309     0.001486850421    -0.001488441969
      10       -0.000006081269     0.000000508252    -0.000004682103
      11        0.000004615155    -0.000004254156    -0.000000279101
      12       -0.000694102894    -0.000997215578     0.000861478949
      13        0.000003739446    -0.000005046545     0.000012768863
      14       -0.000002761426    -0.000007118868     0.000003254869
      15        0.000000923581     0.000000217552    -0.000005207564
      16       -0.000003945320    -0.000001573585     0.000000287727

  **** Optimization is complete! (in 6 steps) ****
    Final optimized geometry and variables:
    Molecular point group: c1

    Geometry (in Angstrom), charge = 0, multiplicity = 1:

    H           -2.808043674197     0.273734357325     0.476191465257
    C           -2.468745041901     0.228298463864    -0.550468237238
    C           -1.177214804592    -0.565510505393    -0.663230320430
    H           -2.329328974398     1.244641477997    -0.892643553627
    H           -3.247287995556    -0.231625413301    -1.147305102432
    C           -0.022431672612     0.010750306418     0.128191990472
    H           -0.848455552260    -0.627043402345    -1.698171120086
    H           -1.319901195870    -1.595029728142    -0.344631148921
    C            1.246126257538    -0.822525746855     0.178423650454
    O           -0.098777898102     1.056328530399     0.686632778183
    C            2.520584408684     0.011629424056     0.204546825152
    H            1.251918520081    -1.533126155901    -0.640113699310
    H            1.174378105109    -1.417383414450     1.086673107171
    H            2.625832656435     0.589987408300    -0.705959898074
    H            3.389578774660    -0.628215801592     0.297861575616
    H            2.508317019181     0.701687883505     1.035714794176

  Mulliken Charges: (a.u.)
   Center  Symbol    Alpha    Beta     Spin     Total
       1     H     0.44927  0.44927  0.00000  0.10146
       2     C     3.14119  3.14119  0.00000 -0.28239
       3     C     3.10125  3.10125  0.00000 -0.20249
       4     H     0.44623  0.44623  0.00000  0.10754
       5     H     0.45074  0.45074  0.00000  0.09852
       6     C     2.86992  2.86992  0.00000  0.26017
       7     H     0.44567  0.44567  0.00000  0.10865
       8     H     0.44529  0.44529  0.00000  0.10942
       9     C     3.09660  3.09660  0.00000 -0.19319
      10     O     4.17503  4.17503  0.00000 -0.35006
      11     C     3.14296  3.14296  0.00000 -0.28592
      12     H     0.44547  0.44547  0.00000  0.10907
      13     H     0.44574  0.44574  0.00000  0.10851
      14     H     0.45416  0.45416  0.00000  0.09168
      15     H     0.44985  0.44985  0.00000  0.10031
      16     H     0.44063  0.44063  0.00000  0.11873

   Total alpha = 24.00000, Total beta = 24.00000, Total charge =  0.00000
