  ==> Input File <==

--------------------------------------------------------------------------
set {
	reference rhf
	basis cc-pvtz
}

set_num_threads( 4 )
memory 2 gb

molecule MOL {
0 1

H	 -0.939693	 0.000281	 1.681345
O	 -0.046262	 -0.000157	 1.387678
C	 -0.000837	 0.000006	 -0.025491
C	 0.264643	 -1.417529	 -0.528744
C	 -1.320819	 0.532822	 -0.579476
C	 1.150459	 0.926346	 -0.392371
H	 0.340870	 -1.442993	 -1.609640
H	 -0.539844	 -2.086240	 -0.237715
H	 1.187423	 -1.797975	 -0.108982
H	 -1.302601	 0.578809	 -1.662223
H	 -2.147133	 -0.109070	 -0.289213
H	 -1.515066	 1.526420	 -0.195422
H	 1.265865	 0.992233	 -1.467838
H	 2.076302	 0.559698	 0.032593
H	 0.970298	 1.920297	 -0.002731

	symmetry c1
}
set optking {
	frozen_dihedral = ("
		4 3 2 1
	")
}

ee = optimize('scf')
oeprop('DIPOLE', 'QUADRUPOLE', 'MULLIKEN_CHARGES')
f=open( 'psi4out.xyz', 'w' )
f.write( "15  " )
f.write( str(ee) + "\n" )
f.write( MOL.save_string_xyz() )
f.close()
--------------------------------------------------------------------------

    Molecular point group: c1
  Charge       = 0
  Multiplicity = 1
  Basis Set: CC-PVTZ
  Basis Set:
  @DF-RHF Final Energy:  -232.24509482138649
    Total Energy =                       -232.2450948213864876
    Molecular point group: c1
  Basis Set: CC-PVTZ
  Basis Set:
  Basis Set: CC-PVTZ
  Basis Set:
  @DF-RHF Final Energy:  -232.24524368683359
    Total Energy =                       -232.2452436868334757
  Basis Set: CC-PVTZ
  Basis Set:
  Basis Set: CC-PVTZ
  Basis Set:
  @DF-RHF Final Energy:  -232.24528876543553
    Total Energy =                       -232.2452887654353049
  Basis Set: CC-PVTZ
  Basis Set:
  Basis Set: CC-PVTZ
  Basis Set:
  @DF-RHF Final Energy:  -232.24528996046797
    Total Energy =                       -232.2452899604679715
  Basis Set: CC-PVTZ
  Basis Set:
  Charge       = 0
  Multiplicity = 1
  Basis Set: CC-PVTZ
  Basis Set:

    Orbital Energies (a.u.)
    -----------------------

    Doubly Occupied:

       1A    -20.540823     2A    -11.281026     3A    -11.215389
       4A    -11.204235     5A    -11.203249     6A     -1.363350
       7A     -1.065639     8A     -0.945930     9A     -0.936884
      10A     -0.778560    11A     -0.672146    12A     -0.624466
      13A     -0.622753    14A     -0.576380    15A     -0.557357
      16A     -0.534305    17A     -0.517031    18A     -0.511396
      19A     -0.503390    20A     -0.458574    21A     -0.426971

  @DF-RHF Final Energy:  -232.24529146562338

   => Energetics <=

    Nuclear Repulsion Energy =            200.6008572537134569
    One-Electron Energy =                -712.6125953896489591
    Two-Electron Energy =                 279.7664466703117796
    DFT Exchange-Correlation Energy =       0.0000000000000000
    Empirical Dispersion Energy =           0.0000000000000000
    PCM Polarization Energy =               0.0000000000000000
    EFP Energy =                            0.0000000000000000
    Total Energy =                       -232.2452914656237226
    Molecular point group: c1
  Basis Set: CC-PVTZ
  Basis Set:

  -Total Gradient:
     Atom            X                  Y                   Z
    ------   -----------------  -----------------  -----------------
       1       -0.000012681547     0.001706305483     0.000038149341
       2        0.000353139520    -0.002022811888    -0.000015769695
       3       -0.001359513678     0.000149164685     0.000031345041
       4        0.001015417418     0.000215562378    -0.000015841918
       5       -0.000009679066    -0.000014203349    -0.000006542464
       6        0.000002390928    -0.000012018782    -0.000015833722
       7        0.000003122873    -0.000016447707    -0.000004985925
       8       -0.000004658514     0.000013139184     0.000002537701
       9        0.000005614691     0.000004440003     0.000005028528
      10        0.000000389911     0.000003346679    -0.000015423203
      11       -0.000000491593     0.000005089111    -0.000000478195
      12        0.000012039651    -0.000020170162     0.000003415470
      13       -0.000000345393     0.000007403468    -0.000008610272
      14       -0.000000773052    -0.000004909689     0.000002647981
      15       -0.000003972149    -0.000013889414     0.000000361330

  **** Optimization is complete! (in 5 steps) ****
    Final optimized geometry and variables:
    Molecular point group: c1

    Geometry (in Angstrom), charge = 0, multiplicity = 1:

    H           -0.928404638490    -0.036409001930     1.697045914766
    O           -0.040978378678    -0.029677577189     1.390851938803
    C           -0.000203038333    -0.002277215989    -0.025206374392
    C            0.266430397593    -1.418935612713    -0.528947808169
    C           -1.318754106935     0.532761581591    -0.575561601984
    C            1.153693513686     0.920730886717    -0.400230390674
    H            0.354053727124    -1.443870608713    -1.609492878022
    H           -0.538364604367    -2.084744505157    -0.237754928582
    H            1.185566252490    -1.797248463459    -0.099899818806
    H           -1.296783514479     0.583985908200    -1.657150479660
    H           -2.145066944129    -0.112857855226    -0.292848604020
    H           -1.514948607229     1.527938479825    -0.193117100942
    H            1.290238558200     0.958280784702    -1.474962063538
    H            2.072687988183     0.567177132027     0.050247697780
    H            0.966803038230     1.924404677443    -0.039090320547

  Mulliken Charges: (a.u.)
   Center  Symbol    Alpha    Beta     Spin     Total
       1     H     0.39291  0.39291  0.00000  0.21419
       2     O     4.21424  4.21424  0.00000 -0.42848
       3     C     2.87943  2.87943  0.00000  0.24113
       4     C     3.14233  3.14233  0.00000 -0.28466
       5     C     3.16020  3.16020  0.00000 -0.32040
       6     C     3.14034  3.14034  0.00000 -0.28069
       7     H     0.45870  0.45870  0.00000  0.08260
       8     H     0.45475  0.45475  0.00000  0.09049
       9     H     0.44821  0.44821  0.00000  0.10358
      10     H     0.45128  0.45128  0.00000  0.09743
      11     H     0.45289  0.45289  0.00000  0.09422
      12     H     0.44593  0.44593  0.00000  0.10814
      13     H     0.45948  0.45948  0.00000  0.08104
      14     H     0.44738  0.44738  0.00000  0.10524
      15     H     0.45192  0.45192  0.00000  0.09617

   Total alpha = 21.00000, Total beta = 21.00000, Total charge =  0.00000
