                              Psi4 1.0.54 Driver

  ==> Input File <==

--------------------------------------------------------------------------
set {
	reference rhf
	basis cc-pvtz
}

set_num_threads( 4 )
memory 2 gb

molecule MOL {
0 1

O	 0.655767	 -0.118293	 0.495161
C	 1.704209	 0.119472	 -0.000093
C	 2.070202	 1.401926	 -0.702233
O	 2.715427	 -0.733672	 0.000025
C	 0.944735	 2.425909	 -0.735516
H	 2.949131	 1.799894	 -0.205691
H	 2.391633	 1.138396	 -1.704568
C	 1.349397	 3.710192	 -1.453071
H	 0.637417	 2.652171	 0.279193
H	 0.079169	 1.989801	 -1.221206
C	 0.232970	 4.749482	 -1.497060
H	 2.219431	 4.141120	 -0.962569
H	 1.659502	 3.475866	 -2.469026
C	 0.637506	 6.033260	 -2.213772
H	 -0.076886	 4.984988	 -0.482819
H	 -0.635975	 4.320697	 -1.988220
H	 1.483751	 6.504740	 -1.725091
H	 -0.176669	 6.748580	 -2.226815
H	 0.919863	 5.835261	 -3.242512
C	 4.020999	 -0.192556	 0.000019
H	 4.182809	 0.412891	 -0.879449
H	 4.692590	 -1.035653	 0.000152
H	 4.182726	 0.413087	 0.879368

	symmetry c1
}
set optking {
	frozen_dihedral = ("
		1 2 4 20
	")
}

ee,wfn = optimize('scf', return_wfn=True)
oeprop( wfn, 'DIPOLE', 'QUADRUPOLE', 'MULLIKEN_CHARGES')
f=open( 'psi4out.xyz', 'w' )
f.write( "23  " )
f.write( str(ee) + "\n" )
f.write( MOL.save_string_xyz() )
f.close()
--------------------------------------------------------------------------

    Molecular point group: c1
  Charge       = 0
  Multiplicity = 1
  Basis Set: CC-PVTZ
  Basis Set:
  @DF-RHF Final Energy:  -423.10681998058539
    Total Energy =                       -423.1068199805856693
    Molecular point group: c1
  Basis Set: CC-PVTZ
  Basis Set:
  Basis Set: CC-PVTZ
  Basis Set:
  @DF-RHF Final Energy:  -423.00297708643393
    Total Energy =                       -423.0029770864334751
  Basis Set: CC-PVTZ
  Basis Set:
  Basis Set: CC-PVTZ
  Basis Set:
  @DF-RHF Final Energy:  -423.09270077148949
    Total Energy =                       -423.0927007714893762
  Basis Set: CC-PVTZ
  Basis Set:
  Basis Set: CC-PVTZ
  Basis Set:
  @DF-RHF Final Energy:  -423.11327441107522
    Total Energy =                       -423.1132744110757358
  Basis Set: CC-PVTZ
  Basis Set:
  @DF-RHF Final Energy:  -423.11360939542413
    Total Energy =                       -423.1136093954248736
  Basis Set: CC-PVTZ
  Basis Set:
  @DF-RHF Final Energy:  -423.11494932639499
    Total Energy =                       -423.1149493263949353
  Basis Set: CC-PVTZ
  Basis Set:
  Basis Set: CC-PVTZ
  Basis Set:
  @DF-RHF Final Energy:  -423.11523699736733
    Total Energy =                       -423.1152369973673331
  Basis Set: CC-PVTZ
  Basis Set:
  Basis Set: CC-PVTZ
  Basis Set:
  @DF-RHF Final Energy:  -423.11525299354076
    Total Energy =                       -423.1152529935405937
  Basis Set: CC-PVTZ
  Basis Set:
  Charge       = 0
  Multiplicity = 1
  Basis Set: CC-PVTZ
  Basis Set:

    Orbital Energies (a.u.)
    -----------------------

    Doubly Occupied:

       1A    -20.590783     2A    -20.531931     3A    -11.366276
       4A    -11.292805     5A    -11.242526     6A    -11.221199
       7A    -11.219665     8A    -11.217254     9A    -11.210208
      10A     -1.464404    11A     -1.368448    12A     -1.097511
      13A     -1.042720    14A     -0.985505    15A     -0.952615
      16A     -0.854683    17A     -0.799595    18A     -0.767151
      19A     -0.701333    20A     -0.689352    21A     -0.675790
      22A     -0.655864    23A     -0.615286    24A     -0.605991
      25A     -0.580870    26A     -0.569239    27A     -0.561351
      28A     -0.539583    29A     -0.516096    30A     -0.510042
      31A     -0.489655    32A     -0.473626    33A     -0.469890
      34A     -0.467834    35A     -0.451723    36A     -0.433009

  @DF-RHF Final Energy:  -423.11525353082385

   => Energetics <=

    Nuclear Repulsion Energy =            455.3984865589738433
    One-Electron Energy =               -1478.5638532874334032
    Two-Electron Energy =                 600.0501131976360512
    DFT Exchange-Correlation Energy =       0.0000000000000000
    Empirical Dispersion Energy =           0.0000000000000000
    PCM Polarization Energy =               0.0000000000000000
    EFP Energy =                            0.0000000000000000
    Total Energy =                       -423.1152535308234519
    Molecular point group: c1
  Basis Set: CC-PVTZ
  Basis Set:

  -Total Gradient:
     Atom            X                  Y                   Z
    ------   -----------------  -----------------  -----------------
       1        0.001289566353     0.001936314202     0.002280063348
       2       -0.001772351078    -0.002349601991    -0.001790047690
       3       -0.000007436988     0.000035501671     0.000058477462
       4        0.000193290966    -0.000352284235    -0.003220327038
       5        0.000000348968    -0.000017714107    -0.000019640490
       6       -0.000000080791    -0.000000195527    -0.000008444487
       7       -0.000001006187    -0.000029756742    -0.000004980990
       8        0.000005690569     0.000006897471     0.000019283225
       9        0.000000215934     0.000011236524     0.000009234689
      10       -0.000008992442    -0.000003327146    -0.000000761739
      11       -0.000002764266    -0.000003142399    -0.000010647095
      12        0.000009558148     0.000003280250     0.000004613604
      13       -0.000002557711    -0.000007336306     0.000001299736
      14       -0.000006773526    -0.000001669656     0.000008665437
      15        0.000002007084     0.000004962504     0.000003419499
      16       -0.000009279692    -0.000002707295    -0.000002428109
      17        0.000003807730     0.000004475407     0.000002416798
      18        0.000002235538    -0.000000912165     0.000000185574
      19        0.000000112593    -0.000004684675    -0.000006426489
      20        0.000281457322     0.000766380646     0.002678193529
      21       -0.000001287181    -0.000001454330     0.000005231496
      22        0.000030020450     0.000002430637    -0.000006674483
      23       -0.000005781794     0.000003307262    -0.000000705787

  **** Optimization is complete! (in 9 steps) ****
    Final optimized geometry and variables:
    Molecular point group: c1

    Geometry (in Angstrom), charge = 0, multiplicity = 1:

    O           -0.774461657692    -1.490643300563     1.771854260609
    C            0.221149693210    -1.454735216350     1.143309034810
    C            0.503603699248    -0.415925798407     0.080250486322
    O            1.155358281337    -2.388142981573     1.344267585588
    C           -0.677765070187     0.507979861351    -0.184226206740
    H            1.370200293108     0.162021846656     0.385789676146
    H            0.795371913350    -0.937387883384    -0.826261456348
    C           -0.372546505970     1.545924310497    -1.260171639936
    H           -0.955767686932     1.002060639524     0.738878340011
    H           -1.535415801128    -0.086361836605    -0.476876374378
    C           -1.546786975103     2.479228847746    -1.540750059831
    H            0.489727933519     2.137855693942    -0.960385395478
    H           -0.089194505398     1.042290183988    -2.181895958842
    C           -1.243111706056     3.517315681132    -2.615639111193
    H           -1.830108836558     2.983825493449    -0.621479177990
    H           -2.408120393182     1.889706247323    -1.841580855888
    H           -0.407022058482     4.146242741128    -2.328027006448
    H           -2.096451728837     4.162289420206    -2.789914901410
    H           -0.989647188807     3.042996735946    -3.558009542128
    C            2.523741414268    -2.126955348395     1.156049770664
    H            2.764252732053    -1.939124101001     0.117969829282
    H            3.043536641133    -3.013855947871     1.479856672363
    H            2.848987358744    -1.289786497168     1.760832480151

  Mulliken Charges: (a.u.)
   Center  Symbol    Alpha    Beta     Spin     Total
       1     O     4.17643  4.17643  0.00000 -0.35286
       2     C     2.80172  2.80172  0.00000  0.39655
       3     C     3.13724  3.13724  0.00000 -0.27449
       4     O     4.13536  4.13536  0.00000 -0.27073
       5     C     3.08313  3.08313  0.00000 -0.16627
       6     H     0.44216  0.44216  0.00000  0.11568
       7     H     0.43802  0.43802  0.00000  0.12396
       8     C     3.08775  3.08775  0.00000 -0.17549
       9     H     0.44315  0.44315  0.00000  0.11369
      10     H     0.44411  0.44411  0.00000  0.11178
      11     C     3.08518  3.08518  0.00000 -0.17037
      12     H     0.45663  0.45663  0.00000  0.08673
      13     H     0.45617  0.45617  0.00000  0.08765
      14     C     3.15020  3.15020  0.00000 -0.30039
      15     H     0.45253  0.45253  0.00000  0.09493
      16     H     0.45241  0.45241  0.00000  0.09517
      17     H     0.45551  0.45551  0.00000  0.08898
      18     H     0.44715  0.44715  0.00000  0.10569
      19     H     0.45536  0.45536  0.00000  0.08929
      20     C     3.04674  3.04674  0.00000 -0.09348
      21     H     0.46083  0.46083  0.00000  0.07834
      22     H     0.43380  0.43380  0.00000  0.13239
      23     H     0.45839  0.45839  0.00000  0.08322

   Total alpha = 36.00000, Total beta = 36.00000, Total charge = -0.00000

*** Psi4 exiting successfully. Buy a developer a beer!
