  ==> Input File <==

--------------------------------------------------------------------------
set {
	reference rhf
	basis 6-31G*
}

set_num_threads( 4 )
memory 2 gb

molecule MOL {
0 1

H	 -3.550734	 0.975239	 1.747556
C	 -3.559198	 0.394091	 0.817063
C	 -2.660244	 0.921717	 -0.272021
O	 -4.243970	 -0.572313	 0.722718
C	 -1.220012	 1.144545	 0.209990
H	 -2.698457	 0.235081	 -1.109745
H	 -3.079191	 1.872266	 -0.600039
C	 -0.252658	 0.041456	 -0.226725
H	 -0.873521	 2.100229	 -0.171974
H	 -1.211708	 1.231594	 1.295398
C	 1.180775	 0.282413	 0.250794
H	 -0.266029	 -0.034465	 -1.312038
H	 -0.597733	 -0.921000	 0.146291
C	 2.148627	 -0.814315	 -0.201312
H	 1.516199	 1.249228	 -0.115937
H	 1.192670	 0.346017	 1.338083
C	 3.580890	 -0.659131	 0.322722
H	 2.166869	 -0.852443	 -1.289387
H	 1.762857	 -1.776509	 0.128956
C	 4.324889	 0.564933	 -0.213704
H	 4.142010	 -1.551473	 0.056605
H	 3.564836	 -0.624694	 1.410140
H	 4.342616	 0.565491	 -1.300421
H	 3.866655	 1.493402	 0.110242
H	 5.353900	 0.572371	 0.132816

	symmetry c1
}
set optking {
	frozen_dihedral = ("
		6 3 5 8
	")
}

ee = optimize('scf')
oeprop('DIPOLE', 'QUADRUPOLE', 'MULLIKEN_CHARGES')
f=open( 'psi4out.xyz', 'w' )
f.write( "25  " )
f.write( str(ee) + "\n" )
f.write( MOL.save_string_xyz() )
f.close()
--------------------------------------------------------------------------

    Molecular point group: c1
  Charge       = 0
  Multiplicity = 1
  Basis Set: 6-31G*
  Basis Set:
  @DF-RHF Final Energy:  -387.11858662171386
    Total Energy =                       -387.1185866217143712
    Molecular point group: c1
  Basis Set: 6-31G*
  Basis Set:
  Basis Set: 6-31G*
  Basis Set:
  @DF-RHF Final Energy:  -387.11880808850532
    Total Energy =                       -387.1188080885051477
  Basis Set: 6-31G*
  Basis Set:
  Basis Set: 6-31G*
  Basis Set:
  @DF-RHF Final Energy:  -387.11866607083937
    Total Energy =                       -387.1186660708395948
  Basis Set: 6-31G*
  Basis Set:
  Basis Set: 6-31G*
  Basis Set:
  @DF-RHF Final Energy:  -387.11890841820065
    Total Energy =                       -387.1189084182002489
  Basis Set: 6-31G*
  Basis Set:
  @DF-RHF Final Energy:  -387.11890248057534
    Total Energy =                       -387.1189024805755707
  Basis Set: 6-31G*
  Basis Set:
  @DF-RHF Final Energy:  -387.11891898153186
    Total Energy =                       -387.1189189815322607
  Basis Set: 6-31G*
  Basis Set:
  Basis Set: 6-31G*
  Basis Set:
  @DF-RHF Final Energy:  -387.11892114055092
    Total Energy =                       -387.1189211405506967
  Basis Set: 6-31G*
  Basis Set:
  Basis Set: 6-31G*
  Basis Set:
  @DF-RHF Final Energy:  -387.11892231289698
    Total Energy =                       -387.1189223128970980
  Basis Set: 6-31G*
  Basis Set:
  Charge       = 0
  Multiplicity = 1
  Basis Set: 6-31G*
  Basis Set:

    Orbital Energies (a.u.)
    -----------------------

    Doubly Occupied:

       1A    -20.562213     2A    -11.326116     3A    -11.235456
       4A    -11.234461     5A    -11.223724     6A    -11.219307
       7A    -11.217965     8A    -11.216952     9A    -11.210720
      10A     -1.402217    11A     -1.102718    12A     -1.068691
      13A     -1.013246    14A     -0.943319    15A     -0.874726
      16A     -0.814591    17A     -0.793869    18A     -0.780448
      19A     -0.669750    20A     -0.658695    21A     -0.632479
      22A     -0.623689    23A     -0.606016    24A     -0.587494
      25A     -0.573467    26A     -0.554894    27A     -0.529714
      28A     -0.523809    29A     -0.513464    30A     -0.494412
      31A     -0.488276    32A     -0.480242    33A     -0.464592
      34A     -0.458715    35A     -0.441713    36A     -0.409193

  @DF-RHF Final Energy:  -387.11892324270286

   => Energetics <=

    Nuclear Repulsion Energy =            436.2091823295821769
    One-Electron Energy =               -1388.7535062124588876
    Two-Electron Energy =                 565.4254006401735069
    DFT Exchange-Correlation Energy =       0.0000000000000000
    Empirical Dispersion Energy =           0.0000000000000000
    PCM Polarization Energy =               0.0000000000000000
    EFP Energy =                            0.0000000000000000
    Total Energy =                       -387.1189232427032039
    Molecular point group: c1
  Basis Set: 6-31G*
  Basis Set:

  -Total Gradient:
     Atom            X                  Y                   Z
    ------   -----------------  -----------------  -----------------
       1        0.000016300974    -0.000006730912    -0.000010074715
       2        0.000004741164    -0.000008907862    -0.000007125147
       3        0.000519180991     0.003917636559    -0.003867227775
       4       -0.000019767664     0.000009057942    -0.000005786705
       5       -0.000731420931    -0.002457109558     0.003709448317
       6       -0.000280009428    -0.002736132319     0.002419504377
       7       -0.000014724964     0.000006342159    -0.000022217184
       8        0.000507214048     0.001281225699    -0.002213082564
       9        0.000005616138    -0.000003447938     0.000003800764
      10        0.000017827037    -0.000001973843     0.000005935527
      11       -0.000017487771     0.000004633486    -0.000009447430
      12        0.000006188125    -0.000001833522     0.000001630991
      13       -0.000007154440    -0.000002911447     0.000003899234
      14       -0.000003378359    -0.000004178186    -0.000017737830
      15       -0.000003468339    -0.000000681209     0.000002960528
      16       -0.000002054628    -0.000000788269    -0.000000208620
      17       -0.000005396666     0.000000961937     0.000015508685
      18        0.000001623347    -0.000003315466    -0.000002695383
      19       -0.000006493735     0.000004673935    -0.000004412098
      20        0.000003627140     0.000002507358    -0.000005954859
      21       -0.000000518010     0.000004530147     0.000001909196
      22        0.000003215552    -0.000003190440     0.000003016582
      23        0.000001023991     0.000000961462    -0.000000194886
      24        0.000004879567    -0.000004132350    -0.000000631781
      25        0.000000436861     0.000002802640    -0.000000817224

  **** Optimization is complete! (in 9 steps) ****
    Final optimized geometry and variables:
    Molecular point group: c1

    Geometry (in Angstrom), charge = 0, multiplicity = 1:

    H           -3.480463803176     0.831584660792     1.595396756384
    C           -3.454231786128     0.226477634809     0.680893691791
    C           -2.611717613072     0.790508718877    -0.437186809173
    O           -4.059400773488    -0.794383652835     0.623276950250
    C           -1.156980856807     1.047712027434     0.014058541719
    H           -2.655598381181     0.076746334272    -1.250924448726
    H           -3.079838115920     1.716809812368    -0.761319309619
    C           -0.196272302911    -0.065392027213    -0.411080335320
    H           -0.810127189051     1.987366476745    -0.405131993681
    H           -1.118823867305     1.174294728797     1.094486188835
    C            1.236401477444     0.161393063680     0.074148472649
    H           -0.203957651869    -0.140461579098    -1.496299693264
    H           -0.559461536937    -1.020933543464    -0.037090247098
    C            2.196830659971    -0.942110604982    -0.377710708638
    H            1.582816249937     1.127131090294    -0.285538476193
    H            1.242994007473     0.218980271651     1.161651184808
    C            3.625018366289    -0.808360708693     0.162992159849
    H            2.227041077021    -0.969596492166    -1.465827502196
    H            1.796443480567    -1.902924079485    -0.061326153147
    C            4.387436976566     0.414472945804    -0.350529351004
    H            4.179632137868    -1.703459326787    -0.107311096003
    H            3.597042161753    -0.786598812858     1.250535125465
    H            4.420608733594     0.425784617152    -1.436735741692
    H            3.933245160077     1.343993076310    -0.023561422808
    H            5.411417490944     0.409153691740     0.010070452936

  Mulliken Charges: (a.u.)
   Center  Symbol    Alpha    Beta     Spin     Total
       1     H     0.43206  0.43206  0.00000  0.13587
       2     C     2.83329  2.83329  0.00000  0.33342
       3     C     3.20980  3.20980  0.00000 -0.41960
       4     O     4.23660  4.23660  0.00000 -0.47321
       5     C     3.16809  3.16809  0.00000 -0.33618
       6     H     0.39768  0.39768  0.00000  0.20463
       7     H     0.40595  0.40595  0.00000  0.18810
       8     C     3.15314  3.15314  0.00000 -0.30627
       9     H     0.41409  0.41409  0.00000  0.17183
      10     H     0.41782  0.41782  0.00000  0.16437
      11     C     3.15499  3.15499  0.00000 -0.30999
      12     H     0.41951  0.41951  0.00000  0.16098
      13     H     0.41676  0.41676  0.00000  0.16647
      14     C     3.15307  3.15307  0.00000 -0.30614
      15     H     0.42128  0.42128  0.00000  0.15744
      16     H     0.42328  0.42328  0.00000  0.15344
      17     C     3.15270  3.15270  0.00000 -0.30541
      18     H     0.42361  0.42361  0.00000  0.15278
      19     H     0.42051  0.42051  0.00000  0.15898
      20     C     3.24135  3.24135  0.00000 -0.48270
      21     H     0.42007  0.42007  0.00000  0.15987
      22     H     0.42300  0.42300  0.00000  0.15401
      23     H     0.42210  0.42210  0.00000  0.15581
      24     H     0.42063  0.42063  0.00000  0.15874
      25     H     0.41864  0.41864  0.00000  0.16273

   Total alpha = 36.00000, Total beta = 36.00000, Total charge =  0.00000
