                              Psi4 1.0.54 Driver

  ==> Input File <==

--------------------------------------------------------------------------
set {
	reference rhf
	basis cc-pvtz
}

set_num_threads( 4 )
memory 2 gb

molecule MOL {
0 1

H	 -3.401687	 -1.036208	 -0.000000
O	 -3.113765	 -0.140967	 -0.000000
C	 -1.775092	 -0.058795	 -0.000000
C	 -0.966327	 -1.188545	 -0.000000
C	 -1.211479	 1.206323	 -0.000000
H	 -1.410991	 -2.166656	 -0.000000
C	 0.401073	 -1.047439	 0.000000
H	 -1.853137	 2.064399	 -0.000000
C	 0.159517	 1.330402	 0.000000
H	 1.035979	 -1.911154	 0.000000
C	 0.981116	 0.213521	 0.000000
H	 0.597852	 2.311412	 0.000000
C	 2.447397	 0.371262	 0.000000
O	 3.227422	 -0.521888	 -0.000000
H	 2.796533	 1.409484	 -0.000000

	symmetry c1
}
ee,wfn = energy('scf', return_wfn=True)
oeprop( wfn, 'DIPOLE', 'QUADRUPOLE', 'MULLIKEN_CHARGES')
oeprop( wfn, 'GRID_ESP')
f=open( 'psi4out.xyz', 'w' )
f.write( "15  " )
f.write( str(ee) + "\n" )
f.write( MOL.save_string_xyz() )
f.close()
--------------------------------------------------------------------------

    Molecular point group: c1

    Geometry (in Angstrom), charge = 0, multiplicity = 1:

       Center              X                  Y                   Z               Mass
    ------------   -----------------  -----------------  -----------------  -----------------
           H         -3.401682497547    -1.036166771723     0.000000000000     1.007825032070
           O         -3.113760497547    -0.140925771723     0.000000000000    15.994914619560
           C         -1.775087497547    -0.058753771723     0.000000000000    12.000000000000
           C         -0.966322497547    -1.188503771723     0.000000000000    12.000000000000
           C         -1.211474497547     1.206364228277     0.000000000000    12.000000000000
           H         -1.410986497547    -2.166614771723     0.000000000000     1.007825032070
           C          0.401077502453    -1.047397771723     0.000000000000    12.000000000000
           H         -1.853132497547     2.064440228277     0.000000000000     1.007825032070
           C          0.159521502453     1.330443228277     0.000000000000    12.000000000000
           H          1.035983502453    -1.911112771723     0.000000000000     1.007825032070
           C          0.981120502453     0.213562228277     0.000000000000    12.000000000000
           H          0.597856502453     2.311453228277     0.000000000000     1.007825032070
           C          2.447401502453     0.371303228277     0.000000000000    12.000000000000
           O          3.227426502453    -0.521846771723     0.000000000000    15.994914619560
           H          2.796537502453     1.409525228277     0.000000000000     1.007825032070

  Charge       = 0
  Multiplicity = 1
  Basis Set: CC-PVTZ
  Basis Set:

    Orbital Energies (a.u.)
    -----------------------

    Doubly Occupied:

       1A    -20.604946     2A    -20.545375     3A    -11.322770
       4A    -11.322556     5A    -11.258293     6A    -11.254827
       7A    -11.242378     8A    -11.236759     9A    -11.236519
      10A     -1.438160    11A     -1.401573    12A     -1.175322
      13A     -1.044935    14A     -1.042573    15A     -0.892192
      16A     -0.871181    17A     -0.797463    18A     -0.762680
      19A     -0.717899    20A     -0.670934    21A     -0.646172
      22A     -0.631395    23A     -0.615396    24A     -0.610927
      25A     -0.587503    26A     -0.562645    27A     -0.555357
      28A     -0.509169    29A     -0.490278    30A     -0.421521
      31A     -0.362633    32A     -0.331523

  @DF-RHF Final Energy:  -418.44265884797056

   => Energetics <=

    Nuclear Repulsion Energy =            402.3178368124917483
    One-Electron Energy =               -1367.1928503045232901
    Two-Electron Energy =                 546.4323546440609789
    DFT Exchange-Correlation Energy =       0.0000000000000000
    Empirical Dispersion Energy =           0.0000000000000000
    PCM Polarization Energy =               0.0000000000000000
    EFP Energy =                            0.0000000000000000
    Total Energy =                       -418.4426588479705060

  Mulliken Charges: (a.u.)
   Center  Symbol    Alpha    Beta     Spin     Total
       1     H     0.38537  0.38537  0.00000  0.22926
       2     O     4.16616  4.16616  0.00000 -0.33232
       3     C     2.84391  2.84391  0.00000  0.31218
       4     C     3.13273  3.13273  0.00000 -0.26546
       5     C     3.10876  3.10876  0.00000 -0.21753
       6     H     0.43100  0.43100  0.00000  0.13800
       7     C     3.06641  3.06641  0.00000 -0.13282
       8     H     0.41666  0.41666  0.00000  0.16667
       9     C     3.06569  3.06569  0.00000 -0.13138
      10     H     0.40704  0.40704  0.00000  0.18592
      11     C     3.00416  3.00416  0.00000 -0.00831
      12     H     0.42138  0.42138  0.00000  0.15724
      13     C     2.91092  2.91092  0.00000  0.17817
      14     O     4.17927  4.17927  0.00000 -0.35854
      15     H     0.46054  0.46054  0.00000  0.07892

   Total alpha = 32.00000, Total beta = 32.00000, Total charge = -0.00000

*** Psi4 exiting successfully. Buy a developer a beer!
