  ==> Input File <==

--------------------------------------------------------------------------
set {
	reference rhf
	basis 6-31G*
}

set_num_threads( 1 )
memory 2 gb

molecule MOL {
0 1

H	 -2.820289	 -0.070277	 0.869895
O	 -2.347518	 -0.290803	 0.079804
C	 -1.184022	 0.487508	 -0.006784
C	 0.062599	 -0.378592	 0.031606
H	 -1.176523	 1.099369	 -0.904519
H	 -1.187323	 1.153111	 0.844927
O	 1.171513	 0.459272	 -0.058250
H	 0.050699	 -1.089204	 -0.797170
H	 0.078739	 -0.954914	 0.954740
C	 2.397842	 -0.198080	 -0.002151
H	 2.508049	 -0.905315	 -0.822092
H	 3.173794	 0.550865	 -0.078850
H	 2.517602	 -0.735921	 0.936026

	symmetry c1
}
set optking {
	frozen_dihedral = ("
		8 4 3 5,
		10 7 4 8,
		4 7 10 13
	")
}

ee = energy('scf')
oeprop('DIPOLE', 'QUADRUPOLE', 'MULLIKEN_CHARGES')
f=open( 'psi4out.xyz', 'w' )
f.write( "13  " )
f.write( str(ee) + "\n" )
f.write( MOL.save_string_xyz() )
f.close()
--------------------------------------------------------------------------

    Molecular point group: c1

    Geometry (in Angstrom), charge = 0, multiplicity = 1:

       Center              X                  Y                   Z               Mass
    ------------   -----------------  -----------------  -----------------  -----------------
           H         -2.816032517789    -0.079020200013     0.848493822270     1.007825032070
           O         -2.343261517789    -0.299546200013     0.058402822270    15.994914619560
           C         -1.179765517789     0.478764799987    -0.028185177730    12.000000000000
           C          0.066855482211    -0.387335200013     0.010204822270    12.000000000000
           H         -1.172266517789     1.090625799987    -0.925920177730     1.007825032070
           H         -1.183066517789     1.144367799987     0.823525822270     1.007825032070
           O          1.175769482211     0.450528799987    -0.079651177730    15.994914619560
           H          0.054955482211    -1.097947200013    -0.818571177730     1.007825032070
           H          0.082995482211    -0.963657200013     0.933338822270     1.007825032070
           C          2.402098482211    -0.206823200013    -0.023552177730    12.000000000000
           H          2.512305482211    -0.914058200013    -0.843493177730     1.007825032070
           H          3.178050482211     0.542121799987    -0.100251177730     1.007825032070
           H          2.521858482211    -0.744664200013     0.914624822270     1.007825032070

  Charge       = 0
  Multiplicity = 1
  Basis Set: 6-31G*
  Basis Set:

    Orbital Energies (a.u.)
    -----------------------

    Doubly Occupied:

       1A    -20.560112     2A    -20.557650     3A    -11.269510
       4A    -11.268539     5A    -11.267759     6A     -1.386550
       7A     -1.363956     8A     -1.017308     9A     -0.911779
      10A     -0.834673    11A     -0.711210    12A     -0.677698
      13A     -0.648434    14A     -0.642722    15A     -0.605446
      16A     -0.553174    17A     -0.547530    18A     -0.488726
      19A     -0.477225    20A     -0.437086    21A     -0.419184

  @DF-RHF Final Energy:  -267.94817576084620

   => Energetics <=

    Nuclear Repulsion Energy =            189.9949631092136713
    One-Electron Energy =                -742.5936621224655028
    Two-Electron Energy =                 284.6505232524051507
    DFT Exchange-Correlation Energy =       0.0000000000000000
    Empirical Dispersion Energy =           0.0000000000000000
    PCM Polarization Energy =               0.0000000000000000
    EFP Energy =                            0.0000000000000000
    Total Energy =                       -267.9481757608466523

  Mulliken Charges: (a.u.)
   Center  Symbol    Alpha    Beta     Spin     Total
       1     H     0.27694  0.27694  0.00000  0.44611
       2     O     4.37517  4.37517  0.00000 -0.75034
       3     C     3.00268  3.00268  0.00000 -0.00536
       4     C     2.99267  2.99267  0.00000  0.01466
       5     H     0.41465  0.41465  0.00000  0.17071
       6     H     0.42650  0.42650  0.00000  0.14700
       7     O     4.30837  4.30837  0.00000 -0.61674
       8     H     0.42446  0.42446  0.00000  0.15107
       9     H     0.43087  0.43087  0.00000  0.13826
      10     C     3.07950  3.07950  0.00000 -0.15900
      11     H     0.42796  0.42796  0.00000  0.14409
      12     H     0.41130  0.41130  0.00000  0.17740
      13     H     0.42893  0.42893  0.00000  0.14214

   Total alpha = 21.00000, Total beta = 21.00000, Total charge =  0.00000
