                              Psi4 1.0.54 Driver

  ==> Input File <==

--------------------------------------------------------------------------
set {
	reference rhf
	basis cc-pvtz
}

set_num_threads( 4 )
memory 2 gb

molecule MOL {
0 1

H	 3.291742	 -0.440811	 0.039362
C	 2.234314	 -0.257172	 0.030022
C	 1.529952	 -0.346991	 -1.161254
C	 1.583565	 0.066934	 1.203477
H	 2.042717	 -0.599367	 -2.069093
C	 0.173339	 -0.112177	 -1.177608
H	 2.130963	 0.135669	 2.123317
C	 0.221080	 0.302480	 1.185462
H	 -0.388307	 -0.176746	 -2.088125
C	 -0.486398	 0.214248	 0.000000
H	 -0.291734	 0.555177	 2.095045
C	 -1.946525	 0.470130	 0.000000
O	 -2.779618	 -0.371226	 0.000000
H	 -2.227127	 1.528393	 0.000000

	symmetry c1
}
set optking {
	frozen_dihedral = ("
		8 10 12 14
	")
}

ee,wfn = optimize('scf', return_wfn=True)
oeprop( wfn, 'DIPOLE', 'QUADRUPOLE', 'MULLIKEN_CHARGES')
f=open( 'psi4out.xyz', 'w' )
f.write( "14  " )
f.write( str(ee) + "\n" )
f.write( MOL.save_string_xyz() )
f.close()
--------------------------------------------------------------------------

    Molecular point group: c1
  Charge       = 0
  Multiplicity = 1
  Basis Set: CC-PVTZ
  Basis Set:
  @DF-RHF Final Energy:  -343.53707474406298
    Total Energy =                       -343.5370747440629202
    Molecular point group: c1
  Basis Set: CC-PVTZ
  Basis Set:
  Basis Set: CC-PVTZ
  Basis Set:
  @DF-RHF Final Energy:  -343.53669284771041
    Total Energy =                       -343.5366928477100146
  Basis Set: CC-PVTZ
  Basis Set:
  Basis Set: CC-PVTZ
  Basis Set:
  @DF-RHF Final Energy:  -343.53716531061934
    Total Energy =                       -343.5371653106191161
  Basis Set: CC-PVTZ
  Basis Set:
  Basis Set: CC-PVTZ
  Basis Set:
  @DF-RHF Final Energy:  -343.53751460916214
    Total Energy =                       -343.5375146091622582
  Basis Set: CC-PVTZ
  Basis Set:
  Charge       = 0
  Multiplicity = 1
  Basis Set: CC-PVTZ
  Basis Set:

    Orbital Energies (a.u.)
    -----------------------

    Doubly Occupied:

       1A    -20.563853     2A    -11.332856     3A    -11.251032
       4A    -11.245829     5A    -11.244934     6A    -11.242687
       7A    -11.242027     8A    -11.240525     9A     -1.418100
      10A     -1.174588    11A     -1.048923    12A     -1.033189
      13A     -0.890192    14A     -0.844877    15A     -0.798390
      16A     -0.725516    17A     -0.681140    18A     -0.656923
      19A     -0.645872    20A     -0.620579    21A     -0.603950
      22A     -0.540361    23A     -0.532102    24A     -0.518021
      25A     -0.505844    26A     -0.426256    27A     -0.352006
      28A     -0.351234

  @DF-RHF Final Energy:  -343.53752147797047

   => Energetics <=

    Nuclear Repulsion Energy =            323.2299820620977471
    One-Electron Energy =               -1106.0714020494458509
    Two-Electron Energy =                 439.3038985093776887
    DFT Exchange-Correlation Energy =       0.0000000000000000
    Empirical Dispersion Energy =           0.0000000000000000
    PCM Polarization Energy =               0.0000000000000000
    EFP Energy =                            0.0000000000000000
    Total Energy =                       -343.5375214779704152
    Molecular point group: c1
  Basis Set: CC-PVTZ
  Basis Set:

  -Total Gradient:
     Atom            X                  Y                   Z
    ------   -----------------  -----------------  -----------------
       1       -0.000003873894     0.000001666374    -0.000028857095
       2        0.000011431959     0.000060665639     0.000341768309
       3       -0.000317134706     0.000041506689    -0.000151376675
       4        0.000279187143    -0.000124115658    -0.000144509899
       5        0.000026039007    -0.000008646106     0.000012707558
       6        0.000287502526    -0.000099729033    -0.000145828103
       7       -0.000008578461     0.000005796035     0.000009857119
       8       -0.000689791101    -0.002398907628     0.000299265694
       9       -0.000019158482     0.000024578079     0.000031070886
      10        0.000434932542     0.003668565771    -0.001423718986
      11        0.000011239742    -0.000000766311    -0.000010117892
      12       -0.000034950691    -0.001056216805     0.004237451008
      13       -0.000018579565    -0.000077281121     0.000027294947
      14        0.000041733985    -0.000037115925    -0.003055006870

  **** Optimization is complete! (in 5 steps) ****
    Final optimized geometry and variables:
    Molecular point group: c1

    Geometry (in Angstrom), charge = 0, multiplicity = 1:

    H            3.295070021760    -0.447913609993     0.027267629055
    C            2.239444577338    -0.255700648090     0.020825563370
    C            1.528138894927    -0.340362616770    -1.161460569628
    C            1.588567939614     0.072291859726     1.194615696061
    H            2.030094083584    -0.600646878321    -2.073402545892
    C            0.167824892448    -0.100259781922    -1.171106180317
    H            2.135712298674     0.130389151542     2.115793767888
    C            0.229719332171     0.324068435426     1.185702245265
    H           -0.386808965550    -0.183114092353    -2.086281975166
    C           -0.482367075338     0.240118144262     0.002410535594
    H           -0.272841794551     0.578606977709     2.100175722098
    C           -1.961928351255     0.481693549960    -0.005186831359
    O           -2.767987795251    -0.380010805227    -0.054683727680
    H           -2.275711999151     1.530842607566     0.000843050869

  Mulliken Charges: (a.u.)
   Center  Symbol    Alpha    Beta     Spin     Total
       1     H     0.42088  0.42088  0.00000  0.15825
       2     C     3.08364  3.08364  0.00000 -0.16729
       3     C     3.06314  3.06314  0.00000 -0.12627
       4     C     3.06428  3.06428  0.00000 -0.12855
       5     H     0.42111  0.42111  0.00000  0.15779
       6     C     3.09699  3.09699  0.00000 -0.19399
       7     H     0.42099  0.42099  0.00000  0.15802
       8     C     3.09723  3.09723  0.00000 -0.19447
       9     H     0.42105  0.42105  0.00000  0.15790
      10     C     2.94019  2.94019  0.00000  0.11962
      11     H     0.42412  0.42412  0.00000  0.15175
      12     C     2.93350  2.93350  0.00000  0.13301
      13     O     4.15530  4.15530  0.00000 -0.31060
      14     H     0.45758  0.45758  0.00000  0.08483

   Total alpha = 28.00000, Total beta = 28.00000, Total charge = -0.00000

*** Psi4 exiting successfully. Buy a developer a beer!
