  ==> Input File <==

--------------------------------------------------------------------------
set {
	reference rhf
	basis 6-31G*
}

set_num_threads( 1 )
memory 2 gb

molecule MOL {
0 1

O	 -0.291628	 1.323815	 -0.000732
C	 -0.449655	 0.146360	 0.000961
C	 -1.783294	 -0.549321	 -0.000296
O	 0.550821	 -0.724572	 0.000672
H	 -1.863538	 -1.185371	 -0.874187
H	 -2.574672	 0.185258	 -0.002793
H	 -1.866414	 -1.182381	 0.875436
C	 0.749680	 -1.473174	 -1.185217
H	 -0.125351	 -2.065171	 -1.411525
H	 1.595259	 -2.114235	 -0.990831
H	 0.960152	 -0.816912	 -2.017301

	symmetry c1
}
set optking {
	frozen_dihedral = ("
		2 4 8 9
	")
}

ee = energy('scf')
oeprop('DIPOLE', 'QUADRUPOLE', 'MULLIKEN_CHARGES')
f=open( 'psi4out.xyz', 'w' )
f.write( "11  " )
f.write( str(ee) + "\n" )
f.write( MOL.save_string_xyz() )
f.close()
--------------------------------------------------------------------------

    Molecular point group: c1

    Geometry (in Angstrom), charge = 0, multiplicity = 1:

       Center              X                  Y                   Z               Mass
    ------------   -----------------  -----------------  -----------------  -----------------
           O         -0.054470997529     1.596162959589     0.251458612259    15.994914619560
           C         -0.212497997529     0.418707959589     0.253151612259    12.000000000000
           C         -1.546136997529    -0.276973040411     0.251894612259    12.000000000000
           O          0.787978002471    -0.452224040411     0.252862612259    15.994914619560
           H         -1.626380997529    -0.913023040411    -0.621996387741     1.007825032070
           H         -2.337514997529     0.457605959589     0.249397612259     1.007825032070
           H         -1.629256997529    -0.910033040411     1.127626612259     1.007825032070
           C          0.986837002471    -1.200826040411    -0.933026387741    12.000000000000
           H          0.111806002471    -1.792823040411    -1.159334387741     1.007825032070
           H          1.832416002471    -1.841887040411    -0.738640387741     1.007825032070
           H          1.197309002471    -0.544564040411    -1.765110387741     1.007825032070

  Charge       = 0
  Multiplicity = 1
  Basis Set: 6-31G*
  Basis Set:

    Orbital Energies (a.u.)
    -----------------------

    Doubly Occupied:

       1A    -20.592371     2A    -20.555680     3A    -11.378233
       4A    -11.298972     5A    -11.237032     6A     -1.466485
       7A     -1.370723     8A     -1.025231     9A     -0.977698
      10A     -0.783441    11A     -0.694686    12A     -0.688805
      13A     -0.675701    14A     -0.620264    15A     -0.586961
      16A     -0.576542    17A     -0.549932    18A     -0.490450
      19A     -0.463979    20A     -0.440427

  @DF-RHF Final Energy:  -266.81228616111093

   => Energetics <=

    Nuclear Repulsion Energy =            183.6956813557972055
    One-Electron Energy =                -728.0686810935458197
    Two-Electron Energy =                 277.5607135766376814
    DFT Exchange-Correlation Energy =       0.0000000000000000
    Empirical Dispersion Energy =           0.0000000000000000
    PCM Polarization Energy =               0.0000000000000000
    EFP Energy =                            0.0000000000000000
    Total Energy =                       -266.8122861611109329

  Mulliken Charges: (a.u.)
   Center  Symbol    Alpha    Beta     Spin     Total
       1     O     4.25347  4.25347  0.00000 -0.50694
       2     C     2.62969  2.62969  0.00000  0.74063
       3     C     3.29328  3.29328  0.00000 -0.58655
       4     O     4.29953  4.29953  0.00000 -0.59907
       5     H     0.40753  0.40753  0.00000  0.18494
       6     H     0.39583  0.39583  0.00000  0.20835
       7     H     0.39787  0.39787  0.00000  0.20426
       8     C     3.09516  3.09516  0.00000 -0.19032
       9     H     0.41976  0.41976  0.00000  0.16049
      10     H     0.39872  0.39872  0.00000  0.20256
      11     H     0.40917  0.40917  0.00000  0.18166

   Total alpha = 20.00000, Total beta = 20.00000, Total charge = -0.00000
