                              Psi4 1.0.54 Driver

  ==> Input File <==

--------------------------------------------------------------------------
set {
	reference rhf
	basis cc-pvtz
}

set_num_threads( 4 )
memory 2 gb

molecule MOL {
0 1

H	 2.421048	 -1.870225	 -0.336039
O	 2.824271	 -1.154299	 0.131461
C	 2.076458	 -0.067370	 -0.038225
C	 0.626018	 -0.337582	 0.258241
O	 2.538288	 0.965419	 -0.381593
C	 -0.267326	 0.883135	 0.076490
H	 0.325620	 -1.161483	 -0.378003
H	 0.574537	 -0.713685	 1.275261
C	 -1.726822	 0.642622	 0.463839
H	 -0.210803	 1.217591	 -0.953497
H	 0.129920	 1.693110	 0.675679
C	 -2.480891	 -0.340606	 -0.429852
H	 -2.243098	 1.597649	 0.438609
H	 -1.776542	 0.301208	 1.495542
C	 -3.955933	 -0.460128	 -0.060472
H	 -2.393755	 -0.020485	 -1.464726
H	 -2.024244	 -1.323637	 -0.374360
H	 -4.467673	 -1.160944	 -0.709827
H	 -4.458917	 0.497287	 -0.144505
H	 -4.076458	 -0.806900	 0.960497

	symmetry c1
}
set optking {
	frozen_dihedral = ("
		1 2 3 5
	")
}

ee,wfn = optimize('scf', return_wfn=True)
oeprop( wfn, 'DIPOLE', 'QUADRUPOLE', 'MULLIKEN_CHARGES')
f=open( 'psi4out.xyz', 'w' )
f.write( "20  " )
f.write( str(ee) + "\n" )
f.write( MOL.save_string_xyz() )
f.close()
--------------------------------------------------------------------------

    Molecular point group: c1
  Charge       = 0
  Multiplicity = 1
  Basis Set: CC-PVTZ
  Basis Set:
  @DF-RHF Final Energy:  -384.07748015466211
    Total Energy =                       -384.0774801546618846
    Molecular point group: c1
  Basis Set: CC-PVTZ
  Basis Set:
  Basis Set: CC-PVTZ
  Basis Set:
  @DF-RHF Final Energy:  -384.07877368271306
    Total Energy =                       -384.0787736827128356
  Basis Set: CC-PVTZ
  Basis Set:
  Basis Set: CC-PVTZ
  Basis Set:
  @DF-RHF Final Energy:  -384.07882171195178
    Total Energy =                       -384.0788217119520596
  Basis Set: CC-PVTZ
  Basis Set:
  Basis Set: CC-PVTZ
  Basis Set:
  @DF-RHF Final Energy:  -384.07884799538851
    Total Energy =                       -384.0788479953885144
  Basis Set: CC-PVTZ
  Basis Set:
  Basis Set: CC-PVTZ
  Basis Set:
  @DF-RHF Final Energy:  -384.07893632608011
    Total Energy =                       -384.0789363260800542
  Basis Set: CC-PVTZ
  Basis Set:
  Charge       = 0
  Multiplicity = 1
  Basis Set: CC-PVTZ
  Basis Set:

    Orbital Energies (a.u.)
    -----------------------

    Doubly Occupied:

       1A    -20.593557     2A    -20.544404     3A    -11.373229
       4A    -11.245933     5A    -11.224952     6A    -11.223109
       7A    -11.222130     8A    -11.214096     9A     -1.465843
      10A     -1.372559    11A     -1.100995    12A     -1.044031
      13A     -0.960934    14A     -0.866910    15A     -0.826342
      16A     -0.790311    17A     -0.719562    18A     -0.672506
      19A     -0.666097    20A     -0.638324    21A     -0.616640
      22A     -0.591244    23A     -0.571165    24A     -0.563572
      25A     -0.534484    26A     -0.518210    27A     -0.498579
      28A     -0.493810    29A     -0.474642    30A     -0.469988
      31A     -0.462174    32A     -0.444919

  @DF-RHF Final Energy:  -384.07893661027242

   => Energetics <=

    Nuclear Repulsion Energy =            376.1986870078098946
    One-Electron Energy =               -1268.5447443974396720
    Two-Electron Energy =                 508.2671207793578105
    DFT Exchange-Correlation Energy =       0.0000000000000000
    Empirical Dispersion Energy =           0.0000000000000000
    PCM Polarization Energy =               0.0000000000000000
    EFP Energy =                            0.0000000000000000
    Total Energy =                       -384.0789366102719669
    Molecular point group: c1
  Basis Set: CC-PVTZ
  Basis Set:

  -Total Gradient:
     Atom            X                  Y                   Z
    ------   -----------------  -----------------  -----------------
       1        0.003490905852     0.001779371199    -0.005508558766
       2       -0.004824108962    -0.002840545208     0.004450687255
       3        0.002162311863     0.002435137740     0.006697304144
       4       -0.000001761857     0.000018704202     0.000043855585
       5       -0.000832601740    -0.001385089663    -0.005644102597
       6        0.000001645467     0.000011528101     0.000001832801
       7       -0.000019444568    -0.000021624507    -0.000032190947
       8       -0.000010569502    -0.000000566349    -0.000022983877
       9       -0.000003808651     0.000011539594     0.000004133451
      10        0.000000586054     0.000001029975     0.000012834749
      11        0.000002317186    -0.000004981329     0.000008951357
      12        0.000010546189     0.000002810087    -0.000017720126
      13        0.000004719408     0.000000659019    -0.000010855022
      14       -0.000005082012     0.000013175112     0.000007487701
      15        0.000004427145    -0.000006672846     0.000009403088
      16       -0.000006152790     0.000000112355     0.000002595292
      17        0.000025217090    -0.000012022961    -0.000005891990
      18        0.000002375484    -0.000002152679     0.000001611229
      19        0.000002146919    -0.000000219630    -0.000001698655
      20       -0.000003668564    -0.000000192209     0.000003305329

  **** Optimization is complete! (in 6 steps) ****
    Final optimized geometry and variables:
    Molecular point group: c1

    Geometry (in Angstrom), charge = 0, multiplicity = 1:

    H            2.560783326928    -1.888212324493    -0.327750302967
    O            2.890447197942    -1.132446451516     0.127620213900
    C            2.087340515609    -0.059380111920    -0.029731364479
    C            0.629792675923    -0.324813345471     0.263475523559
    O            2.531928529007     0.975585919973    -0.361155652987
    C           -0.267024091716     0.889876502318     0.059105041833
    H            0.317877632144    -1.157328768301    -0.360772727378
    H            0.573603998846    -0.684455303415     1.286558762714
    C           -1.726665954607     0.655947437722     0.449990653398
    H           -0.209216431762     1.206157313317    -0.976560124081
    H            0.131078959959     1.709245722342     0.644082421836
    C           -2.480009233198    -0.346136285117    -0.423339533338
    H           -2.243105684297     1.609948635432     0.403939493396
    H           -1.777310977678     0.336922206550     1.488751567092
    C           -3.954191812292    -0.462335690690    -0.049200809368
    H           -2.395341526167    -0.046316198180    -1.464533513446
    H           -2.021423674498    -1.327430423948    -0.349204824039
    H           -4.464480981942    -1.179506194793    -0.681576285648
    H           -4.460259264765     0.491204743148    -0.154630509415
    H           -4.072227111866    -0.785736780350     0.979662954771

  Mulliken Charges: (a.u.)
   Center  Symbol    Alpha    Beta     Spin     Total
       1     H     0.38871  0.38871  0.00000  0.22258
       2     O     4.16048  4.16048  0.00000 -0.32096
       3     C     2.80112  2.80112  0.00000  0.39776
       4     C     3.12273  3.12273  0.00000 -0.24546
       5     O     4.16512  4.16512  0.00000 -0.33025
       6     C     3.09629  3.09629  0.00000 -0.19258
       7     H     0.45211  0.45211  0.00000  0.09577
       8     H     0.43515  0.43515  0.00000  0.12970
       9     C     3.09925  3.09925  0.00000 -0.19851
      10     H     0.44492  0.44492  0.00000  0.11017
      11     H     0.43629  0.43629  0.00000  0.12742
      12     C     3.08714  3.08714  0.00000 -0.17427
      13     H     0.44478  0.44478  0.00000  0.11044
      14     H     0.45325  0.45325  0.00000  0.09351
      15     C     3.14929  3.14929  0.00000 -0.29859
      16     H     0.45211  0.45211  0.00000  0.09578
      17     H     0.45625  0.45625  0.00000  0.08751
      18     H     0.44765  0.44765  0.00000  0.10470
      19     H     0.45284  0.45284  0.00000  0.09431
      20     H     0.45452  0.45452  0.00000  0.09096

   Total alpha = 32.00000, Total beta = 32.00000, Total charge =  0.00000

*** Psi4 exiting successfully. Buy a developer a beer!
