  ==> Input File <==

--------------------------------------------------------------------------
set {
	reference rhf
	basis 6-31G*
}

set_num_threads( 4 )
memory 2 gb

molecule MOL {
0 1

O	 2.451440	 0.935712	 0.714315
C	 2.701189	 0.057885	 -0.047330
C	 2.340502	 0.034950	 -1.512994
O	 3.347903	 -1.046386	 0.304773
C	 1.604307	 1.292674	 -1.969349
H	 3.261582	 -0.120157	 -2.065030
H	 1.738806	 -0.854157	 -1.683720
C	 1.138830	 1.240122	 -3.428480
H	 2.243687	 2.157225	 -1.818138
H	 0.743136	 1.441438	 -1.326950
C	 2.265857	 1.218268	 -4.465033
H	 0.513165	 2.110106	 -3.613938
H	 0.497957	 0.371646	 -3.573536
C	 1.751275	 1.277117	 -5.904735
H	 2.932197	 2.060892	 -4.286723
H	 2.868757	 0.321124	 -4.344135
C	 2.868546	 1.250597	 -6.949308
H	 1.157364	 2.179767	 -6.037883
H	 1.076467	 0.440774	 -6.080420
C	 2.346442	 1.313556	 -8.384280
H	 3.544355	 2.085102	 -6.774593
H	 3.460655	 0.346924	 -6.820611
H	 3.161505	 1.292967	 -9.101118
H	 1.778658	 2.223820	 -8.555264
H	 1.693848	 0.472555	 -8.601336
C	 4.728119	 -1.109107	 -0.004993
H	 4.882018	 -1.033965	 -1.071845
H	 5.068212	 -2.067527	 0.355250
H	 5.265056	 -0.311663	 0.488280

	symmetry c1
}
set optking {
	frozen_dihedral = ("
		1 2 4 26
	")
}

ee = optimize('scf')
oeprop('DIPOLE', 'QUADRUPOLE', 'MULLIKEN_CHARGES')
f=open( 'psi4out.xyz', 'w' )
f.write( "29  " )
f.write( str(ee) + "\n" )
f.write( MOL.save_string_xyz() )
f.close()
--------------------------------------------------------------------------

    Molecular point group: c1
  Charge       = 0
  Multiplicity = 1
  Basis Set: 6-31G*
  Basis Set:
  @DF-RHF Final Energy:  -501.02099229865394
    Total Energy =                       -501.0209922986546189
    Molecular point group: c1
  Basis Set: 6-31G*
  Basis Set:
  Basis Set: 6-31G*
  Basis Set:
  @DF-RHF Final Energy:  -501.01923552414530
    Total Energy =                       -501.0192355241457562
  Basis Set: 6-31G*
  Basis Set:
  Basis Set: 6-31G*
  Basis Set:
  @DF-RHF Final Energy:  -501.02219641483873
    Total Energy =                       -501.0221964148383904
  Basis Set: 6-31G*
  Basis Set:
  Basis Set: 6-31G*
  Basis Set:
  @DF-RHF Final Energy:  -501.02311608007972
    Total Energy =                       -501.0231160800797170
  Basis Set: 6-31G*
  Basis Set:
  @DF-RHF Final Energy:  -501.02314761666094
    Total Energy =                       -501.0231476166611628
  Basis Set: 6-31G*
  Basis Set:
  @DF-RHF Final Energy:  -501.02315060577428
    Total Energy =                       -501.0231506057743900
  Basis Set: 6-31G*
  Basis Set:
  Basis Set: 6-31G*
  Basis Set:
  @DF-RHF Final Energy:  -501.02314648487527
    Total Energy =                       -501.0231464848745873
  Basis Set: 6-31G*
  Basis Set:
  Basis Set: 6-31G*
  Basis Set:
  @DF-RHF Final Energy:  -501.02315422542733
    Total Energy =                       -501.0231542254275610
  Basis Set: 6-31G*
  Basis Set:
  Charge       = 0
  Multiplicity = 1
  Basis Set: 6-31G*
  Basis Set:

    Orbital Energies (a.u.)
    -----------------------

    Doubly Occupied:

       1A    -20.585539     2A    -20.556553     3A    -11.374807
       4A    -11.292692     5A    -11.239673     6A    -11.222342
       7A    -11.220485     8A    -11.219381     9A    -11.218489
      10A    -11.217128    11A    -11.211151    12A     -1.458222
      13A     -1.367323    14A     -1.100576    15A     -1.067856
      16A     -1.015612    17A     -0.976326    18A     -0.939669
      19A     -0.867862    20A     -0.803369    21A     -0.793725
      22A     -0.762513    23A     -0.699881    24A     -0.679040
      25A     -0.671193    26A     -0.653591    27A     -0.630891
      28A     -0.618266    29A     -0.596875    30A     -0.589989
      31A     -0.569512    32A     -0.549812    33A     -0.546186
      34A     -0.531452    35A     -0.520754    36A     -0.505747
      37A     -0.490047    38A     -0.481296    39A     -0.474881
      40A     -0.465693    41A     -0.465142    42A     -0.453738
      43A     -0.441669    44A     -0.433250

  @DF-RHF Final Energy:  -501.02315431295483

   => Energetics <=

    Nuclear Repulsion Energy =            612.8077604761447219
    One-Electron Energy =               -1896.5014236035431168
    Two-Electron Energy =                 782.6705088144441333
    DFT Exchange-Correlation Energy =       0.0000000000000000
    Empirical Dispersion Energy =           0.0000000000000000
    PCM Polarization Energy =               0.0000000000000000
    EFP Energy =                            0.0000000000000000
    Total Energy =                       -501.0231543129542615
    Molecular point group: c1
  Basis Set: 6-31G*
  Basis Set:

  -Total Gradient:
     Atom            X                  Y                   Z
    ------   -----------------  -----------------  -----------------
       1       -0.001472023435    -0.000814540185     0.000249053154
       2        0.002044087588     0.000972594236    -0.000993223621
       3       -0.000015961753    -0.000034717182     0.000002929767
       4       -0.000369382997     0.000412691029     0.001983988880
       5        0.000011855252     0.000007624989     0.000002997425
       6        0.000007534509     0.000009281041     0.000002706101
       7        0.000007724197     0.000004196602    -0.000005144496
       8       -0.000006711021     0.000021797691    -0.000004068198
       9       -0.000007862738     0.000000271674     0.000006085784
      10       -0.000001072839    -0.000003093831     0.000001179338
      11        0.000001457872    -0.000009180489     0.000004008443
      12       -0.000003182949     0.000002535310    -0.000009284841
      13        0.000001230487     0.000004325922    -0.000004553795
      14       -0.000001768116    -0.000013537952    -0.000000345075
      15        0.000001566658    -0.000007313479    -0.000001356675
      16       -0.000001567137    -0.000006543367     0.000005788135
      17        0.000000561284     0.000014070874     0.000000511781
      18       -0.000005629358    -0.000005622860     0.000003283833
      19        0.000004031974    -0.000006123298    -0.000002273772
      20        0.000000139122     0.000004467893     0.000000361900
      21        0.000005631080     0.000000095067     0.000000914338
      22       -0.000005434704     0.000000804181    -0.000000792318
      23        0.000000045520    -0.000000244279     0.000000067345
      24        0.000000435106     0.000000469599    -0.000001462203
      25       -0.000000463845     0.000000404161     0.000001458552
      26       -0.000210177772    -0.000552431378    -0.001243640689
      27        0.000001097731     0.000001308617     0.000000854244
      28        0.000006133195    -0.000001872684     0.000002653746
      29        0.000007707086    -0.000001717898    -0.000002697080

  **** Optimization is complete! (in 9 steps) ****
    Final optimized geometry and variables:
    Molecular point group: c1

    Geometry (in Angstrom), charge = 0, multiplicity = 1:

    O           -0.127714892816     0.305248623398     3.553122114789
    C            0.185125223880    -0.533280799719     2.782337258625
    C           -0.174850132521    -0.533540353753     1.314451682918
    O            0.841796086447    -1.646738634933     3.186790999839
    C           -0.902815884863     0.731758085568     0.865595692782
    H            0.733024579226    -0.696382616791     0.742402102347
    H           -0.787483109961    -1.416939946155     1.148058506875
    C           -1.380659178316     0.688286331227    -0.589828517006
    H           -0.254417799426     1.590601118385     1.013921832970
    H           -1.756614266341     0.885436123748     1.515901647217
    C           -0.263350970557     0.658651076908    -1.636714744992
    H           -1.999099511512     1.565018559126    -0.767043638384
    H           -2.031513065820    -0.173120228126    -0.731757590408
    C           -0.790142328491     0.730677473886    -3.071407078773
    H            0.414492745508     1.492603841687    -1.460561169711
    H            0.330057825283    -0.246395216029    -1.526313215832
    C            0.317276337500     0.698689290921    -4.126256834531
    H           -1.375821700778     1.640080192320    -3.193922698874
    H           -1.475111353844    -0.097636117477    -3.245394585859
    C           -0.217185486400     0.775957476150    -5.555959281932
    H            1.003554517241     1.524899205708    -3.952766906396
    H            0.900795659690    -0.212124357758    -4.008554129199
    H            0.591044726113     0.750636553309    -6.280302132799
    H           -0.776290153954     1.693445363788    -5.716308788699
    H           -0.881030978966    -0.056437004464    -5.771888442081
    C            2.238576643964    -1.688953653665     2.996116443857
    H            2.499435661571    -1.649740518374     1.944155117919
    H            2.575454658237    -2.627389224198     3.407982997244
    H            2.720788476414    -0.872686289070     3.520845672711

  Mulliken Charges: (a.u.)
   Center  Symbol    Alpha    Beta     Spin     Total
       1     O     4.25051  4.25051  0.00000 -0.50103
       2     C     2.61334  2.61334  0.00000  0.77331
       3     C     3.21669  3.21669  0.00000 -0.43338
       4     O     4.31530  4.31530  0.00000 -0.63059
       5     C     3.15399  3.15399  0.00000 -0.30798
       6     H     0.40650  0.40650  0.00000  0.18701
       7     H     0.39839  0.39839  0.00000  0.20321
       8     C     3.15665  3.15665  0.00000 -0.31331
       9     H     0.41470  0.41470  0.00000  0.17060
      10     H     0.40587  0.40587  0.00000  0.18826
      11     C     3.15498  3.15498  0.00000 -0.30995
      12     H     0.41750  0.41750  0.00000  0.16500
      13     H     0.42307  0.42307  0.00000  0.15386
      14     C     3.15031  3.15031  0.00000 -0.30063
      15     H     0.42296  0.42296  0.00000  0.15408
      16     H     0.42509  0.42509  0.00000  0.14982
      17     C     3.15149  3.15149  0.00000 -0.30298
      18     H     0.42278  0.42278  0.00000  0.15445
      19     H     0.42353  0.42353  0.00000  0.15294
      20     C     3.23941  3.23941  0.00000 -0.47882
      21     H     0.42287  0.42287  0.00000  0.15425
      22     H     0.42393  0.42393  0.00000  0.15215
      23     H     0.41906  0.41906  0.00000  0.16188
      24     H     0.42121  0.42121  0.00000  0.15758
      25     H     0.42157  0.42157  0.00000  0.15686
      26     C     3.09265  3.09265  0.00000 -0.18531
      27     H     0.42264  0.42264  0.00000  0.15471
      28     H     0.40185  0.40185  0.00000  0.19630
      29     H     0.41115  0.41115  0.00000  0.17771

   Total alpha = 44.00000, Total beta = 44.00000, Total charge =  0.00000
