                              Psi4 1.0.54 Driver

  ==> Input File <==

--------------------------------------------------------------------------
set {
	reference rhf
	basis cc-pvtz
}

set_num_threads( 4 )
memory 2 gb

molecule MOL {
0 1

H	 -2.713965	 0.517634	 -0.563704
C	 -2.014754	 0.939830	 -1.272982
C	 -0.731809	 0.124913	 -1.325678
H	 -1.815511	 1.958176	 -0.967222
H	 -2.486736	 0.961075	 -2.248013
C	 0.000000	 0.039916	 0.000014
H	 -0.041811	 0.537566	 -2.056786
H	 -0.932427	 -0.890466	 -1.656811
C	 1.286532	 -0.763243	 0.000268
O	 -0.410100	 0.570908	 0.979934
C	 2.547023	 0.087626	 -0.000114
H	 1.264245	 -1.421103	 -0.864380
H	 1.264290	 -1.420353	 0.865489
H	 2.584452	 0.725630	 -0.872909
H	 3.427035	 -0.544422	 0.000125
H	 2.584484	 0.726356	 0.872143

	symmetry c1
}
set optking {
	frozen_dihedral = ("
		3 6 9 12
	")
}

ee,wfn = optimize('scf', return_wfn=True)
oeprop( wfn, 'DIPOLE', 'QUADRUPOLE', 'MULLIKEN_CHARGES')
f=open( 'psi4out.xyz', 'w' )
f.write( "16  " )
f.write( str(ee) + "\n" )
f.write( MOL.save_string_xyz() )
f.close()
--------------------------------------------------------------------------

    Molecular point group: c1
  Charge       = 0
  Multiplicity = 1
  Basis Set: CC-PVTZ
  Basis Set:
  @DF-RHF Final Energy:  -270.12907926747926
    Total Energy =                       -270.1290792674793693
    Molecular point group: c1
  Basis Set: CC-PVTZ
  Basis Set:
  Basis Set: CC-PVTZ
  Basis Set:
  @DF-RHF Final Energy:  -270.05994321029118
    Total Energy =                       -270.0599432102911805
  Basis Set: CC-PVTZ
  Basis Set:
  Basis Set: CC-PVTZ
  Basis Set:
  @DF-RHF Final Energy:  -270.12532656436656
    Total Energy =                       -270.1253265643663326
  Basis Set: CC-PVTZ
  Basis Set:
  Basis Set: CC-PVTZ
  Basis Set:
  @DF-RHF Final Energy:  -270.12978243566738
    Total Energy =                       -270.1297824356672095
  Basis Set: CC-PVTZ
  Basis Set:
  @DF-RHF Final Energy:  -270.12695946886646
    Total Energy =                       -270.1269594688664029
  @DF-RHF Final Energy:  -270.12686162064279
    Total Energy =                       -270.1268616206427851
  Basis Set: CC-PVTZ
  Basis Set:
  @DF-RHF Final Energy:  -270.12997954033688
    Total Energy =                       -270.1299795403368194
  Basis Set: CC-PVTZ
  Basis Set:
  Basis Set: CC-PVTZ
  Basis Set:
  @DF-RHF Final Energy:  -270.12999215588911
    Total Energy =                       -270.1299921558891128
  Basis Set: CC-PVTZ
  Basis Set:
  Basis Set: CC-PVTZ
  Basis Set:
  @DF-RHF Final Energy:  -270.12999381577526
    Total Energy =                       -270.1299938157751512
  Basis Set: CC-PVTZ
  Basis Set:
  Charge       = 0
  Multiplicity = 1
  Basis Set: CC-PVTZ
  Basis Set:

    Orbital Energies (a.u.)
    -----------------------

    Doubly Occupied:

       1A    -20.537295     2A    -11.317290     3A    -11.232990
       4A    -11.230351     5A    -11.224006     6A    -11.211834
       7A     -1.397754     8A     -1.071770     9A     -1.037838
      10A     -0.913487    11A     -0.854724    12A     -0.727791
      13A     -0.666480    14A     -0.644576    15A     -0.625162
      16A     -0.602656    17A     -0.567841    18A     -0.539448
      19A     -0.532145    20A     -0.512592    21A     -0.503515
      22A     -0.498993    23A     -0.480365    24A     -0.398250

  @DF-RHF Final Energy:  -270.12999391913354

   => Energetics <=

    Nuclear Repulsion Energy =            240.8967136634764472
    One-Electron Energy =                -843.3951074782879687
    Two-Electron Energy =                 332.3683998956780101
    DFT Exchange-Correlation Energy =       0.0000000000000000
    Empirical Dispersion Energy =           0.0000000000000000
    PCM Polarization Energy =               0.0000000000000000
    EFP Energy =                            0.0000000000000000
    Total Energy =                       -270.1299939191334829
    Molecular point group: c1
  Basis Set: CC-PVTZ
  Basis Set:

  -Total Gradient:
     Atom            X                  Y                   Z
    ------   -----------------  -----------------  -----------------
       1       -0.000000607107    -0.000000948058     0.000002961541
       2        0.000002453793     0.000005130020    -0.000008702632
       3       -0.000007831136    -0.000000694556     0.000030197982
       4       -0.000000667519     0.000000515523     0.000000663388
       5        0.000001829020    -0.000001249123     0.000002054654
       6       -0.000012358006     0.000006306424    -0.000008671549
       7        0.000006024245     0.000001952427    -0.000001041974
       8        0.000001385677    -0.000000657929    -0.000005510578
       9        0.000001607446    -0.000004171264     0.000001657123
      10       -0.000007079572     0.000001677132    -0.000010667846
      11        0.000004986214    -0.000004413809     0.000007587655
      12        0.000009552539     0.000007077423    -0.000007289727
      13        0.000001469786    -0.000006239554     0.000003839490
      14        0.000000260808    -0.000000226246    -0.000001582112
      15        0.000003470859     0.000000280134    -0.000004499016
      16       -0.000004497050    -0.000004338542    -0.000000996396

  **** Optimization is complete! (in 10 steps) ****
    Final optimized geometry and variables:
    Molecular point group: c1

    Geometry (in Angstrom), charge = 0, multiplicity = 1:

    H           -2.792653604222     0.424893125672     0.356555451965
    C           -2.352700182306     0.311960551294    -0.624953096891
    C           -1.105172793581    -0.554437885447    -0.565020779316
    H           -2.119751469950     1.302442421046    -0.993359252409
    H           -3.089764886221    -0.132894791201    -1.282764331476
    C           -0.019134019679    -0.018249220388     0.342865725495
    H           -0.673660938092    -0.690612969446    -1.553567412854
    H           -1.344183799257    -1.556238836002    -0.215471889447
    C            1.304561127378    -0.760925139934     0.347338883213
    O           -0.175433249376     0.948792266128     1.015202634975
    C            2.352261020532    -0.013602127818    -0.482430095136
    H            1.176057687425    -1.766732694138    -0.035174712732
    H            1.635666035754    -0.829698198083     1.375656595339
    H            2.047850724249     0.074276958839    -1.519691881854
    H            3.298323549042    -0.539648009445    -0.459369771647
    H            2.505341463939     0.982781113927    -0.089935782196

  Mulliken Charges: (a.u.)
   Center  Symbol    Alpha    Beta     Spin     Total
       1     H     0.44640  0.44640  0.00000  0.10721
       2     C     3.14099  3.14099  0.00000 -0.28197
       3     C     3.10517  3.10517  0.00000 -0.21034
       4     H     0.44904  0.44904  0.00000  0.10191
       5     H     0.45074  0.45074  0.00000  0.09851
       6     C     2.86289  2.86289  0.00000  0.27423
       7     H     0.44529  0.44529  0.00000  0.10942
       8     H     0.44480  0.44480  0.00000  0.11040
       9     C     3.09587  3.09587  0.00000 -0.19174
      10     O     4.17825  4.17825  0.00000 -0.35651
      11     C     3.14748  3.14748  0.00000 -0.29497
      12     H     0.44902  0.44902  0.00000  0.10197
      13     H     0.43989  0.43989  0.00000  0.12022
      14     H     0.45501  0.45501  0.00000  0.08997
      15     H     0.44703  0.44703  0.00000  0.10595
      16     H     0.44213  0.44213  0.00000  0.11574

   Total alpha = 24.00000, Total beta = 24.00000, Total charge =  0.00000

*** Psi4 exiting successfully. Buy a developer a beer!
