  ==> Input File <==

--------------------------------------------------------------------------
set {
	reference rhf
	basis 6-31G*
}

set_num_threads( 1 )
memory 2 gb

molecule MOL {
0 1

H	 -2.646374	 -0.642757	 1.268656
C	 -2.083525	 -0.384536	 0.393091
O	 -0.807605	 -0.127164	 0.768327
F	 -2.118945	 -1.383102	 -0.486752
F	 -2.621877	 0.670592	 -0.209486
C	 0.084052	 0.273579	 -0.209957
C	 -0.741608	 0.822328	 -1.366383
Cl	 1.084359	 -1.085716	 -0.747467
H	 0.745411	 1.050373	 0.132052
F	 0.045118	 1.237962	 -2.336151
F	 -1.441120	 1.853516	 -0.936533
F	 -1.571441	 -0.070086	 -1.849029

	symmetry c1
}
set optking {
	frozen_dihedral = ("
		10 7 6 9,
		6 3 2 4
	")
}

ee = energy('scf')
oeprop('DIPOLE', 'QUADRUPOLE', 'MULLIKEN_CHARGES')
f=open( 'psi4out.xyz', 'w' )
f.write( "12  " )
f.write( str(ee) + "\n" )
f.write( MOL.save_string_xyz() )
f.close()
--------------------------------------------------------------------------

    Molecular point group: c1

    Geometry (in Angstrom), charge = 0, multiplicity = 1:

       Center              X                  Y                   Z               Mass
    ------------   -----------------  -----------------  -----------------  -----------------
           H         -1.797044750022    -0.712398837415     2.014249130924     1.007825032070
           C         -1.234195750022    -0.454177837415     1.138684130924    12.000000000000
           O          0.041724249978    -0.196805837415     1.513920130924    15.994914619560
           F         -1.269615750022    -1.452743837415     0.258841130924    18.998403224000
           F         -1.772547750022     0.600950162585     0.536107130924    18.998403224000
           C          0.933381249978     0.203937162585     0.535636130924    12.000000000000
           C          0.107721249978     0.752686162585    -0.620789869076    12.000000000000
          CL          1.933688249978    -1.155357837415    -0.001873869076    34.968852682000
           H          1.594740249978     0.980731162585     0.877645130924     1.007825032070
           F          0.894447249978     1.168320162585    -1.590557869076    18.998403224000
           F         -0.591790750022     1.783874162585    -0.190939869076    18.998403224000
           F         -0.722111750022    -0.139727837415    -1.103435869076    18.998403224000

  Charge       = 0
  Multiplicity = 1
  Basis Set: 6-31G*
  Basis Set:

    Orbital Energies (a.u.)
    -----------------------

    Doubly Occupied:

       1A   -104.842525     2A    -26.354804     3A    -26.341319
       4A    -26.335453     5A    -26.320603     6A    -26.320437
       7A    -20.646526     8A    -11.521148     9A    -11.479968
      10A    -11.401277    11A    -10.577387    12A     -8.046739
      13A     -8.043206    14A     -8.043109    15A     -1.771995
      16A     -1.705689    17A     -1.663075    18A     -1.646747
      19A     -1.616714    20A     -1.486063    21A     -1.177102
      22A     -1.042666    23A     -0.999455    24A     -0.913555
      25A     -0.886274    26A     -0.860484    27A     -0.840830
      28A     -0.814682    29A     -0.800343    30A     -0.759649
      31A     -0.739109    32A     -0.727907    33A     -0.695246
      34A     -0.689874    35A     -0.682563    36A     -0.667101
      37A     -0.653856    38A     -0.643479    39A     -0.631377
      40A     -0.608133    41A     -0.559828    42A     -0.555367
      43A     -0.521178    44A     -0.475447    45A     -0.467571

  @DF-RHF Final Energy: -1146.19568214042420

   => Energetics <=

    Nuclear Repulsion Energy =            801.3665139789653722
    One-Electron Energy =               -3185.9689234601682983
    Two-Electron Energy =                1238.4067273407817993
    DFT Exchange-Correlation Energy =       0.0000000000000000
    Empirical Dispersion Energy =           0.0000000000000000
    PCM Polarization Energy =               0.0000000000000000
    EFP Energy =                            0.0000000000000000
    Total Energy =                      -1146.1956821404210132

  Mulliken Charges: (a.u.)
   Center  Symbol    Alpha    Beta     Spin     Total
       1     H     0.39385  0.39385  0.00000  0.21230
       2     C     2.56154  2.56154  0.00000  0.87691
       3     O     4.31135  4.31135  0.00000 -0.62270
       4     F     4.68770  4.68770  0.00000 -0.37540
       5     F     4.68537  4.68537  0.00000 -0.37075
       6     C     3.00650  3.00650  0.00000 -0.01301
       7     C     2.47307  2.47307  0.00000  1.05387
       8    CL     8.50082  8.50082  0.00000 -0.00165
       9     H     0.36559  0.36559  0.00000  0.26882
      10     F     4.67478  4.67478  0.00000 -0.34955
      11     F     4.67415  4.67415  0.00000 -0.34829
      12     F     4.66528  4.66528  0.00000 -0.33056

   Total alpha = 45.00000, Total beta = 45.00000, Total charge =  0.00000
