                              Psi4 1.0.54 Driver

  ==> Input File <==

--------------------------------------------------------------------------
set {
	reference rhf
	basis cc-pvtz
}

set_num_threads( 4 )
memory 2 gb

molecule MOL {
0 1

H	 2.342730	 0.877684	 -1.045694
C	 2.360424	 0.000000	 -0.411793
C	 1.173749	 0.000000	 0.526870
H	 3.286567	 0.000000	 0.151574
H	 2.342730	 -0.877684	 -1.045694
O	 0.000000	 0.000000	 -0.223739
H	 1.203779	 0.876757	 1.172538
H	 1.203779	 -0.876757	 1.172538
C	 -1.173749	 0.000000	 0.526870
C	 -2.360296	 -0.026114	 -0.411593
H	 -1.212452	 0.886248	 1.158976
H	 -1.195201	 -0.866974	 1.185951
H	 -2.351189	 0.841846	 -1.058922
H	 -3.286436	 -0.026559	 0.151778
H	 -2.333920	 -0.913229	 -1.031918

	symmetry c1
}
set optking {
	frozen_dihedral = ("
		11 9 6 3
	")
}

ee,wfn = optimize('scf', return_wfn=True)
oeprop( wfn, 'DIPOLE', 'QUADRUPOLE', 'MULLIKEN_CHARGES')
f=open( 'psi4out.xyz', 'w' )
f.write( "15  " )
f.write( str(ee) + "\n" )
f.write( MOL.save_string_xyz() )
f.close()
--------------------------------------------------------------------------

    Molecular point group: c1
  Charge       = 0
  Multiplicity = 1
  Basis Set: CC-PVTZ
  Basis Set:
  @DF-RHF Final Energy:  -232.23366108585265
    Total Energy =                       -232.2336610858528161
    Molecular point group: c1
  Basis Set: CC-PVTZ
  Basis Set:
  Charge       = 0
  Multiplicity = 1
  Basis Set: CC-PVTZ
  Basis Set:

    Orbital Energies (a.u.)
    -----------------------

    Doubly Occupied:

       1A    -20.545606     2A    -11.266195     3A    -11.266172
       4A    -11.207304     5A    -11.207282     6A     -1.381652
       7A     -1.045167     8A     -0.983416     9A     -0.846756
      10A     -0.826765    11A     -0.680226    12A     -0.669390
      13A     -0.606103    14A     -0.601188    15A     -0.549788
      16A     -0.531473    17A     -0.523053    18A     -0.493549
      19A     -0.487557    20A     -0.466801    21A     -0.414282

  @DF-RHF Final Energy:  -232.23366134170570

   => Energetics <=

    Nuclear Repulsion Energy =            191.3090067373800309
    One-Electron Energy =                -693.8858901431783579
    Two-Electron Energy =                 270.3432220640927994
    DFT Exchange-Correlation Energy =       0.0000000000000000
    Empirical Dispersion Energy =           0.0000000000000000
    PCM Polarization Energy =               0.0000000000000000
    EFP Energy =                            0.0000000000000000
    Total Energy =                       -232.2336613417054991
    Molecular point group: c1
  Basis Set: CC-PVTZ
  Basis Set:

  -Total Gradient:
     Atom            X                  Y                   Z
    ------   -----------------  -----------------  -----------------
       1       -0.000002251631     0.000000748048     0.000000390441
       2        0.000003324055     0.000000100393    -0.000000223586
       3        0.000038518703    -0.000103379348     0.000034409790
       4        0.000006043464     0.000000509328    -0.000000645847
       5       -0.000003209650    -0.000001534756     0.000001900320
       6       -0.000015690509     0.000208101023    -0.000100934968
       7        0.000005550814    -0.000003901380     0.000000214770
       8       -0.000013652472     0.000001001348    -0.000011193582
       9        0.000042292455    -0.000215370004     0.000164166190
      10        0.000020259550     0.000034194789     0.000014782782
      11       -0.000070279664     0.000082184911    -0.000128883418
      12       -0.000017085233    -0.000005367949     0.000021463600
      13       -0.000008889996     0.000001444475    -0.000008076726
      14       -0.000002718924     0.000001760810    -0.000000124730
      15        0.000017789038    -0.000000491687     0.000012754964

  **** Optimization is complete! (in 2 steps) ****
    Final optimized geometry and variables:
    Molecular point group: c1

    Geometry (in Angstrom), charge = 0, multiplicity = 1:

    H            2.341730065758     0.884723214763    -1.046381362943
    C            2.360338971097     0.007070577045    -0.412352231177
    C            1.173781921650     0.005927763374     0.526529710779
    H            3.286656431482     0.008017627596     0.150943994164
    H            2.343417432007    -0.870724548301    -1.046237597936
    O           -0.000114738777     0.004137490577    -0.223614897532
    H            1.203223902276     0.882894521275     1.172095657812
    H            1.205026938673    -0.870635923912     1.172461059275
    C           -1.173642711983     0.004731935100     0.527115346147
    C           -2.360321889341    -0.021590872401    -0.411247880151
    H           -1.212578972339     0.892072209611     1.157817454118
    H           -1.195676382784    -0.861589332055     1.187101148997
    H           -2.350183604465     0.845169498190    -1.060287390041
    H           -3.286511638262    -0.019672312570     0.152256973166
    H           -2.335144119896    -0.909952466864    -1.029944996224

  Mulliken Charges: (a.u.)
   Center  Symbol    Alpha    Beta     Spin     Total
       1     H     0.45158  0.45158  0.00000  0.09685
       2     C     3.13479  3.13479  0.00000 -0.26958
       3     C     2.96709  2.96709  0.00000  0.06582
       4     H     0.45887  0.45887  0.00000  0.08226
       5     H     0.45158  0.45158  0.00000  0.09683
       6     O     4.17871  4.17871  0.00000 -0.35742
       7     H     0.47346  0.47346  0.00000  0.05309
       8     H     0.47328  0.47328  0.00000  0.05343
       9     C     2.96709  2.96709  0.00000  0.06582
      10     C     3.13479  3.13479  0.00000 -0.26957
      11     H     0.47319  0.47319  0.00000  0.05362
      12     H     0.47352  0.47352  0.00000  0.05296
      13     H     0.45153  0.45153  0.00000  0.09694
      14     H     0.45888  0.45888  0.00000  0.08224
      15     H     0.45164  0.45164  0.00000  0.09671

   Total alpha = 21.00000, Total beta = 21.00000, Total charge = -0.00000

*** Psi4 exiting successfully. Buy a developer a beer!
