  ==> Input File <==

--------------------------------------------------------------------------
set {
	reference rhf
	basis 6-31G*
}

set_num_threads( 4 )
memory 2 gb

molecule MOL {
0 1

O	 -0.291628	 1.323815	 -0.000732
C	 -0.449655	 0.146360	 0.000961
C	 -1.783294	 -0.549321	 -0.000296
O	 0.550821	 -0.724572	 0.000672
H	 -1.863538	 -1.185371	 -0.874187
H	 -2.574672	 0.185258	 -0.002793
H	 -1.866414	 -1.182381	 0.875436
C	 1.752002	 -0.321947	 -0.632840
H	 1.577202	 -0.109290	 -1.677626
H	 2.432835	 -1.152229	 -0.528689
H	 2.157219	 0.557591	 -0.153722

	symmetry c1
}
set optking {
	frozen_dihedral = ("
		8 4 2 1
	")
}

ee = optimize('scf')
oeprop('DIPOLE', 'QUADRUPOLE', 'MULLIKEN_CHARGES')
f=open( 'psi4out.xyz', 'w' )
f.write( "11  " )
f.write( str(ee) + "\n" )
f.write( MOL.save_string_xyz() )
f.close()
--------------------------------------------------------------------------

    Molecular point group: c1
  Charge       = 0
  Multiplicity = 1
  Basis Set: 6-31G*
  Basis Set:
  @DF-RHF Final Energy:  -266.83103539179740
    Total Energy =                       -266.8310353917973998
    Molecular point group: c1
  Basis Set: 6-31G*
  Basis Set:
  Basis Set: 6-31G*
  Basis Set:
  @DF-RHF Final Energy:  -266.82778721939894
    Total Energy =                       -266.8277872193987719
  Basis Set: 6-31G*
  Basis Set:
  Basis Set: 6-31G*
  Basis Set:
  @DF-RHF Final Energy:  -266.83149426030656
    Total Energy =                       -266.8314942603063287
  Basis Set: 6-31G*
  Basis Set:
  Basis Set: 6-31G*
  Basis Set:
  @DF-RHF Final Energy:  -266.83154998730527
    Total Energy =                       -266.8315499873054932
  Basis Set: 6-31G*
  Basis Set:
  Basis Set: 6-31G*
  Basis Set:
  @DF-RHF Final Energy:  -266.83155477470541
    Total Energy =                       -266.8315547747055234
  Basis Set: 6-31G*
  Basis Set:
  Basis Set: 6-31G*
  Basis Set:
  @DF-RHF Final Energy:  -266.83155758986913
    Total Energy =                       -266.8315575898687939
  Basis Set: 6-31G*
  Basis Set:
  Charge       = 0
  Multiplicity = 1
  Basis Set: 6-31G*
  Basis Set:

    Orbital Energies (a.u.)
    -----------------------

    Doubly Occupied:

       1A    -20.601335     2A    -20.549036     3A    -11.377180
       4A    -11.284375     5A    -11.235007     6A     -1.468104
       7A     -1.365404     8A     -1.034328     9A     -0.954271
      10A     -0.778077    11A     -0.695238    12A     -0.679715
      13A     -0.675849    14A     -0.598251    15A     -0.592692
      16A     -0.563529    17A     -0.531626    18A     -0.515571
      19A     -0.456902    20A     -0.441595

  @DF-RHF Final Energy:  -266.83155839367100

   => Energetics <=

    Nuclear Repulsion Energy =            182.9758991929359411
    One-Electron Energy =                -726.8187475325064497
    Two-Electron Energy =                 277.0112899458996480
    DFT Exchange-Correlation Energy =       0.0000000000000000
    Empirical Dispersion Energy =           0.0000000000000000
    PCM Polarization Energy =               0.0000000000000000
    EFP Energy =                            0.0000000000000000
    Total Energy =                       -266.8315583936708890
    Molecular point group: c1
  Basis Set: 6-31G*
  Basis Set:

  -Total Gradient:
     Atom            X                  Y                   Z
    ------   -----------------  -----------------  -----------------
       1       -0.000358152435     0.000221703373     0.009057519572
       2       -0.000580819328    -0.001622497245    -0.016412677275
       3        0.000038799444    -0.000000493504    -0.000053889913
       4        0.003037666127     0.004250949127     0.013515140852
       5        0.000020430023    -0.000025918472     0.000012291360
       6       -0.000008252226    -0.000007381907     0.000009357624
       7       -0.000016806840     0.000047909964     0.000028317455
       8       -0.002172911459    -0.002910632546    -0.006206689232
       9        0.000028030907     0.000028382951     0.000025403896
      10        0.000001781582    -0.000003483529     0.000017821825
      11        0.000010234203     0.000021461791     0.000007403837

  **** Optimization is complete! (in 7 steps) ****
    Final optimized geometry and variables:
    Molecular point group: c1

    Geometry (in Angstrom), charge = 0, multiplicity = 1:

    O           -0.285547253201     1.350712986743     0.065438443994
    C           -0.433970025566     0.173820772307     0.094542898592
    C           -1.762116782916    -0.527592532843     0.168561076031
    O            0.578663533319    -0.690248752909     0.152960590342
    H           -1.888272861210    -1.162352793714    -0.701422096401
    H           -2.558063312794     0.200626124537     0.214008276767
    H           -1.788608929573    -1.165039617387     1.044678789152
    C            1.798238999366    -0.294746998187    -0.449732494258
    H            1.635368572190    -0.026821876636    -1.485185669979
    H            2.451508222315    -1.151067496192    -0.388875799391
    H            2.233205939679     0.544410739641     0.072799147445

  Mulliken Charges: (a.u.)
   Center  Symbol    Alpha    Beta     Spin     Total
       1     O     4.27547  4.27547  0.00000 -0.55094
       2     C     2.62242  2.62242  0.00000  0.75515
       3     C     3.28269  3.28269  0.00000 -0.56537
       4     O     4.30235  4.30235  0.00000 -0.60470
       5     H     0.40231  0.40231  0.00000  0.19538
       6     H     0.39696  0.39696  0.00000  0.20609
       7     H     0.39827  0.39827  0.00000  0.20346
       8     C     3.09305  3.09305  0.00000 -0.18610
       9     H     0.41464  0.41464  0.00000  0.17072
      10     H     0.40730  0.40730  0.00000  0.18540
      11     H     0.40454  0.40454  0.00000  0.19093

   Total alpha = 20.00000, Total beta = 20.00000, Total charge = -0.00000
