  ==> Input File <==

--------------------------------------------------------------------------
set {
	reference rhf
	basis cc-pvtz
}

set_num_threads( 4 )
memory 2 gb

molecule MOL {
0 1

H	 -3.268214	 -0.875720	 0.463107
C	 -2.806015	 0.000007	 0.024886
N	 -1.391133	 0.000016	 0.301321
H	 -3.029448	 0.000055	 -1.045738
H	 -3.268126	 0.875758	 0.463150
C	 -0.979205	 -1.158876	 1.063463
C	 -0.956163	 1.220671	 0.945009
H	 -1.467428	 -1.186750	 2.042090
H	 -1.271479	 -2.053579	 0.526650
C	 0.525014	 -1.163610	 1.261745
H	 -1.231607	 2.063131	 0.321727
H	 -1.442811	 1.355007	 1.915563
C	 0.548056	 1.215937	 1.143292
H	 0.800459	 -2.006070	 1.885027
H	 1.011662	 -1.297946	 0.291191
N	 0.959984	 0.057045	 1.905434
H	 0.840330	 2.110640	 1.680105
H	 1.036279	 1.243810	 0.164665
C	 2.374866	 0.057054	 2.181869
H	 2.629771	 -0.791279	 2.804699
H	 2.646658	 0.957953	 2.717659
H	 2.984589	 0.006070	 1.275339

	symmetry c1
}
set optking {
	frozen_dihedral = ("
		6 3 2 4
	")
}

ee = optimize('scf')
oeprop('DIPOLE', 'QUADRUPOLE', 'MULLIKEN_CHARGES')
f=open( 'psi4out.xyz', 'w' )
f.write( "22  " )
f.write( str(ee) + "\n" )
f.write( MOL.save_string_xyz() )
f.close()
--------------------------------------------------------------------------

    Molecular point group: c1
  Charge       = 0
  Multiplicity = 1
  Basis Set: CC-PVTZ
  Basis Set:
  @DF-RHF Final Energy:  -344.34385714979283
    Total Energy =                       -344.3438571497929388
    Molecular point group: c1
  Basis Set: CC-PVTZ
  Basis Set:
  Basis Set: CC-PVTZ
  Basis Set:
  @DF-RHF Final Energy:  -344.34451675563326
    Total Energy =                       -344.3445167556334354
  Basis Set: CC-PVTZ
  Basis Set:
  Basis Set: CC-PVTZ
  Basis Set:
  @DF-RHF Final Energy:  -344.34465024412884
    Total Energy =                       -344.3446502441286157
  Basis Set: CC-PVTZ
  Basis Set:
  Basis Set: CC-PVTZ
  Basis Set:
  @DF-RHF Final Energy:  -344.34465703794382
    Total Energy =                       -344.3446570379434206
  Basis Set: CC-PVTZ
  Basis Set:
  Charge       = 0
  Multiplicity = 1
  Basis Set: CC-PVTZ
  Basis Set:

    Orbital Energies (a.u.)
    -----------------------

    Doubly Occupied:

       1A    -15.537078     2A    -15.533691     3A    -11.237296
       4A    -11.237248     5A    -11.236264     6A    -11.236251
       7A    -11.234019     8A    -11.233858     9A     -1.254979
      10A     -1.203115    11A     -1.025552    12A     -0.991758
      13A     -0.912705    14A     -0.867688    15A     -0.836586
      16A     -0.754213    17A     -0.665846    18A     -0.636102
      19A     -0.631643    20A     -0.624787    21A     -0.620740
      22A     -0.580324    23A     -0.551816    24A     -0.550262
      25A     -0.542608    26A     -0.519807    27A     -0.497884
      28A     -0.487607    29A     -0.466199    30A     -0.456457
      31A     -0.350912    32A     -0.341368

  @DF-RHF Final Energy:  -344.34465784437089

   => Energetics <=

    Nuclear Repulsion Energy =            421.3730150506057726
    One-Electron Energy =               -1301.7220220413353218
    Two-Electron Energy =                 536.0043491463586633
    DFT Exchange-Correlation Energy =       0.0000000000000000
    Empirical Dispersion Energy =           0.0000000000000000
    PCM Polarization Energy =               0.0000000000000000
    EFP Energy =                            0.0000000000000000
    Total Energy =                       -344.3446578443708859
    Molecular point group: c1
  Basis Set: CC-PVTZ
  Basis Set:

  -Total Gradient:
     Atom            X                  Y                   Z
    ------   -----------------  -----------------  -----------------
       1        0.000001665867     0.000003982416     0.000016238067
       2       -0.000017092011     0.001493170111    -0.000364352509
       3       -0.000236951466     0.000326438939     0.001196951735
       4        0.000035647260    -0.001328963118    -0.000011836997
       5        0.000017933991    -0.000008890140     0.000023552389
       6        0.000198017459    -0.000506917955    -0.000867763563
       7       -0.000014841558     0.000025269007     0.000003821652
       8        0.000000490569     0.000010362793    -0.000011580364
       9        0.000005779780     0.000001444277     0.000005612046
      10        0.000008305276    -0.000010881612     0.000009997494
      11        0.000004162164     0.000000272186     0.000004820527
      12       -0.000002787674    -0.000010176403    -0.000008953629
      13        0.000009374031     0.000005215751     0.000000701286
      14        0.000011529043    -0.000003028961     0.000004583462
      15       -0.000011160872    -0.000003147463    -0.000000435105
      16       -0.000015148961    -0.000000270580    -0.000010501156
      17        0.000005991820     0.000001401355     0.000002651969
      18       -0.000006972674     0.000004942199    -0.000003246832
      19       -0.000002610365    -0.000000656906     0.000010735649
      20        0.000005443968     0.000000960563    -0.000000287631
      21        0.000004978581    -0.000000682841    -0.000000139039
      22       -0.000001754232     0.000000156382    -0.000000569453

  **** Optimization is complete! (in 5 steps) ****
    Final optimized geometry and variables:
    Molecular point group: c1

    Geometry (in Angstrom), charge = 0, multiplicity = 1:

    H           -3.093205083816    -0.920351950750    -0.738566385353
    C           -2.601633044340    -0.026526172191    -1.106127440725
    N           -1.189975379465    -0.028706148098    -0.765097425550
    H           -2.746630469998     0.004331552073    -2.180747857536
    H           -3.120362974338     0.821670394457    -0.670045326604
    C           -0.765105109704    -1.191833109246    -0.019070710497
    C           -0.739303588115     1.196974856999    -0.146053053153
    H           -1.238017093994    -1.235614692333     0.966737063219
    H           -1.055922955071    -2.083327573439    -0.561372643598
    C            0.741943176977    -1.192173668341     0.158198106733
    H           -1.013717679327     2.032591892834    -0.778998845442
    H           -1.211784167714     1.352703939253     0.828505644690
    C            0.767365684908     1.186097680046     0.032772692026
    H            1.028213676865    -2.034267316296     0.777347293482
    H            1.214719163851    -1.325180795508    -0.819570683712
    N            1.184306852468     0.029276076319     0.795037580497
    H            1.070693835209     2.082401753784     0.561021103721
    H            1.242854139169     1.206437426804    -0.952468163563
    C            2.601589360748     0.027979542425     1.058145266183
    H            2.861219480843    -0.818882283293     1.681126200998
    H            2.879986292472     0.930137079091     1.588521006774
    H            3.202889054449    -0.026749397315     0.146071906114

  Mulliken Charges: (a.u.)
   Center  Symbol    Alpha    Beta     Spin     Total
       1     H     0.46023  0.46023  0.00000  0.07953
       2     C     3.09212  3.09212  0.00000 -0.18424
       3     N     3.61543  3.61543  0.00000 -0.23086
       4     H     0.45009  0.45009  0.00000  0.09982
       5     H     0.46182  0.46182  0.00000  0.07636
       6     C     3.03544  3.03544  0.00000 -0.07087
       7     C     3.03561  3.03561  0.00000 -0.07122
       8     H     0.46855  0.46855  0.00000  0.06290
       9     H     0.45349  0.45349  0.00000  0.09301
      10     C     3.03704  3.03704  0.00000 -0.07409
      11     H     0.45335  0.45335  0.00000  0.09330
      12     H     0.46849  0.46849  0.00000  0.06302
      13     C     3.03725  3.03725  0.00000 -0.07450
      14     H     0.45411  0.45411  0.00000  0.09178
      15     H     0.46876  0.46876  0.00000  0.06248
      16     N     3.61295  3.61295  0.00000 -0.22590
      17     H     0.45413  0.45413  0.00000  0.09175
      18     H     0.46872  0.46872  0.00000  0.06257
      19     C     3.09824  3.09824  0.00000 -0.19648
      20     H     0.45199  0.45199  0.00000  0.09603
      21     H     0.45198  0.45198  0.00000  0.09604
      22     H     0.47021  0.47021  0.00000  0.05958

   Total alpha = 32.00000, Total beta = 32.00000, Total charge = -0.00000
