                              Psi4 1.0.54 Driver

  ==> Input File <==

--------------------------------------------------------------------------
set {
	reference rhf
	basis cc-pvtz
}

set_num_threads( 4 )
memory 2 gb

molecule MOL {
0 1

H	 -3.436473	 1.252944	 -1.023892
O	 -3.458596	 0.315260	 -0.960865
C	 -3.176635	 -0.080824	 0.355601
C	 -1.763371	 0.265266	 0.799691
H	 -3.321825	 -1.153438	 0.379502
H	 -3.895468	 0.357385	 1.043382
C	 -0.673390	 -0.426948	 -0.013392
H	 -1.631049	 1.344913	 0.747560
H	 -1.664587	 -0.001624	 1.849167
C	 0.737842	 -0.043159	 0.423759
H	 -0.806103	 -0.190518	 -1.063345
H	 -0.797221	 -1.503753	 0.074146
C	 1.824000	 -0.743224	 -0.390623
H	 0.850588	 1.033777	 0.343840
H	 0.868587	 -0.286314	 1.476203
C	 1.461962	 -1.008429	 -1.852965
H	 2.081952	 -1.684099	 0.090070
H	 2.723619	 -0.134450	 -0.364182
C	 0.328574	 -2.010624	 -2.058345
H	 2.346704	 -1.375643	 -2.364003
H	 1.203330	 -0.068817	 -2.334274
H	 0.556735	 -2.958934	 -1.582188
H	 0.171020	 -2.201755	 -3.113754
H	 -0.608774	 -1.652745	 -1.649801

	symmetry c1
}
set optking {
	frozen_dihedral = ("
		17 13 10 7
	")
}

ee,wfn = optimize('scf', return_wfn=True)
oeprop( wfn, 'DIPOLE', 'QUADRUPOLE', 'MULLIKEN_CHARGES')
f=open( 'psi4out.xyz', 'w' )
f.write( "24  " )
f.write( str(ee) + "\n" )
f.write( MOL.save_string_xyz() )
f.close()
--------------------------------------------------------------------------

    Molecular point group: c1
  Charge       = 0
  Multiplicity = 1
  Basis Set: CC-PVTZ
  Basis Set:
  @DF-RHF Final Energy:  -349.35041478845915
    Total Energy =                       -349.3504147884589202
    Molecular point group: c1
  Basis Set: CC-PVTZ
  Basis Set:
  Basis Set: CC-PVTZ
  Basis Set:
  @DF-RHF Final Energy:  -349.36654374765811
    Total Energy =                       -349.3665437476583975
  Basis Set: CC-PVTZ
  Basis Set:
  Basis Set: CC-PVTZ
  Basis Set:
  @DF-RHF Final Energy:  -349.37047155354190
    Total Energy =                       -349.3704715535418472
  Basis Set: CC-PVTZ
  Basis Set:
  Basis Set: CC-PVTZ
  Basis Set:
  @DF-RHF Final Energy:  -349.37177572176279
    Total Energy =                       -349.3717757217629014
  Basis Set: CC-PVTZ
  Basis Set:
  @DF-RHF Final Energy:  -349.37225400512170
    Total Energy =                       -349.3722540051219312
  @DF-RHF Final Energy:  -349.37247547138657
    Total Energy =                       -349.3724754713862239
  Basis Set: CC-PVTZ
  Basis Set:
  @DF-RHF Final Energy:  -349.37254959398780
    Total Energy =                       -349.3725495939875145
  Basis Set: CC-PVTZ
  Basis Set:
  Basis Set: CC-PVTZ
  Basis Set:
  @DF-RHF Final Energy:  -349.37255510532509
    Total Energy =                       -349.3725551053253753
  Basis Set: CC-PVTZ
  Basis Set:
  Basis Set: CC-PVTZ
  Basis Set:
  @DF-RHF Final Energy:  -349.37255695436119
    Total Energy =                       -349.3725569543610732
  Basis Set: CC-PVTZ
  Basis Set:
  Charge       = 0
  Multiplicity = 1
  Basis Set: CC-PVTZ
  Basis Set:

    Orbital Energies (a.u.)
    -----------------------

    Doubly Occupied:

       1A    -20.546769     2A    -11.265738     3A    -11.215152
       4A    -11.211570     5A    -11.211444     6A    -11.209981
       7A    -11.208625     8A    -11.201671     9A     -1.364499
      10A     -1.087527    11A     -1.046007    12A     -0.985081
      13A     -0.920399    14A     -0.849483    15A     -0.808537
      16A     -0.766920    17A     -0.683155    18A     -0.653448
      19A     -0.621294    20A     -0.614020    21A     -0.605776
      22A     -0.586572    23A     -0.556137    24A     -0.541056
      25A     -0.520859    26A     -0.506586    27A     -0.498524
      28A     -0.479453    29A     -0.471390    30A     -0.457238
      31A     -0.448712    32A     -0.443011    33A     -0.421714

  @DF-RHF Final Energy:  -349.37255729203940

   => Energetics <=

    Nuclear Repulsion Energy =            394.4552294287012160
    One-Electron Energy =               -1255.6388752789084720
    Two-Electron Energy =                 511.8110885581675689
    DFT Exchange-Correlation Energy =       0.0000000000000000
    Empirical Dispersion Energy =           0.0000000000000000
    PCM Polarization Energy =               0.0000000000000000
    EFP Energy =                            0.0000000000000000
    Total Energy =                       -349.3725572920397440
    Molecular point group: c1
  Basis Set: CC-PVTZ
  Basis Set:

  -Total Gradient:
     Atom            X                  Y                   Z
    ------   -----------------  -----------------  -----------------
       1       -0.000001334291     0.000005765567    -0.000007069535
       2       -0.000004158917     0.000011250219     0.000005496311
       3       -0.000002339761    -0.000012754107    -0.000017178178
       4        0.000003492066     0.000000514169     0.000001313659
       5        0.000005547067    -0.000002675392     0.000011352385
       6       -0.000004727292     0.000002199957     0.000001887167
       7       -0.000014275406     0.003400882115    -0.002864936491
       8        0.000001342860    -0.000000183956    -0.000001017513
       9        0.000002058018     0.000001205942    -0.000002154260
      10        0.001012738693    -0.004333146080     0.004935456579
      11       -0.000002336266     0.000002916062     0.000018656597
      12       -0.000000145276     0.000000824176    -0.000003071609
      13       -0.005173334079    -0.001750766793    -0.005230644952
      14        0.000001067718     0.000002326294    -0.000002713793
      15        0.000004968020    -0.000009895793    -0.000005116373
      16       -0.000017092637    -0.000002945964    -0.000017245799
      17        0.004176800906     0.002674318666     0.003141940080
      18       -0.000004207792     0.000006002886    -0.000003633743
      19       -0.000004363987    -0.000001170827     0.000022980276
      20        0.000016366822     0.000013017683     0.000015247442
      21        0.000008458993     0.000006863808     0.000007586636
      22        0.000001233390    -0.000007387773    -0.000001609699
      23       -0.000002560162     0.000000773808    -0.000004571750
      24       -0.000003198688    -0.000007934668    -0.000000953435

  **** Optimization is complete! (in 10 steps) ****
    Final optimized geometry and variables:
    Molecular point group: c1

    Geometry (in Angstrom), charge = 0, multiplicity = 1:

    H           -2.839858374248     1.912494838059    -0.302904528275
    O           -2.928381066712     0.979457296177    -0.230096880701
    C           -2.575366339903     0.566690646470     1.064032483911
    C           -1.107584678834     0.797677536888     1.390526079438
    H           -2.805267530173    -0.490249530612     1.110272848950
    H           -3.199032889105     1.064864985344     1.802028750028
    C           -0.147075872527     0.018080293313     0.495848747213
    H           -0.893160379001     1.862971296469     1.319270255897
    H           -0.945981226928     0.525197464049     2.430646451214
    C            1.315177424027     0.307379279128     0.829477735126
    H           -0.351731157212     0.265163604138    -0.537286023102
    H           -0.353383922487    -1.043261933477     0.607835562135
    C            2.397983540842    -0.393538229945    -0.013529683850
    H            1.460005582783     1.380884059437     0.729191414868
    H            1.498494372123     0.082224772441     1.875884442895
    C            2.147668073384    -0.571571955265    -1.516057992972
    H            2.662466721281    -1.344536363444     0.441740906482
    H            3.296388028863     0.206823724666     0.099173679971
    C            1.380466196094    -1.832519999684    -1.910174456716
    H            3.112506851448    -0.603329853023    -2.012143258198
    H            1.642428644152     0.305563511590    -1.910139943664
    H            1.898854199705    -2.719343131395    -1.560395832550
    H            1.296084476198    -1.905921275339    -2.988826553591
    H            0.379331449890    -1.853830495256    -1.502328945521

  Mulliken Charges: (a.u.)
   Center  Symbol    Alpha    Beta     Spin     Total
       1     H     0.39527  0.39527  0.00000  0.20946
       2     O     4.20311  4.20311  0.00000 -0.40622
       3     C     2.97810  2.97810  0.00000  0.04379
       4     C     3.10361  3.10361  0.00000 -0.20721
       5     H     0.45868  0.45868  0.00000  0.08264
       6     H     0.45980  0.45980  0.00000  0.08040
       7     C     3.09683  3.09683  0.00000 -0.19365
       8     H     0.45909  0.45909  0.00000  0.08183
       9     H     0.45260  0.45260  0.00000  0.09481
      10     C     3.09278  3.09278  0.00000 -0.18557
      11     H     0.44201  0.44201  0.00000  0.11598
      12     H     0.45402  0.45402  0.00000  0.09197
      13     C     3.09732  3.09732  0.00000 -0.19465
      14     H     0.45499  0.45499  0.00000  0.09002
      15     H     0.45018  0.45018  0.00000  0.09964
      16     C     3.10056  3.10056  0.00000 -0.20111
      17     H     0.45384  0.45384  0.00000  0.09231
      18     H     0.44800  0.44800  0.00000  0.10399
      19     C     3.14878  3.14878  0.00000 -0.29755
      20     H     0.44520  0.44520  0.00000  0.10960
      21     H     0.45186  0.45186  0.00000  0.09627
      22     H     0.45563  0.45563  0.00000  0.08873
      23     H     0.44827  0.44827  0.00000  0.10345
      24     H     0.44947  0.44947  0.00000  0.10106

   Total alpha = 33.00000, Total beta = 33.00000, Total charge = -0.00000

*** Psi4 exiting successfully. Buy a developer a beer!
