                              Psi4 1.0.54 Driver

  ==> Input File <==

--------------------------------------------------------------------------
set {
	reference rhf
	basis cc-pvtz
}

set_num_threads( 4 )
memory 2 gb

molecule MOL {
0 1

H	 -0.235172	 1.886868	 2.712407
C	 -0.843466	 0.972112	 2.703197
C	 -1.844196	 0.887912	 1.582776
O	 -0.690467	 0.151669	 3.540318
C	 -1.216901	 1.136108	 0.207794
H	 -2.333731	 -0.076177	 1.629925
H	 -2.592782	 1.652817	 1.777307
C	 -0.247837	 0.040196	 -0.230469
H	 -2.014405	 1.224922	 -0.521890
H	 -0.705158	 2.095420	 0.213606
C	 1.181757	 0.280428	 0.247371
H	 -0.259600	 -0.030819	 -1.314870
H	 -0.591284	 -0.923375	 0.136958
C	 2.151032	 -0.811012	 -0.202643
H	 1.515939	 1.247397	 -0.115449
H	 1.191514	 0.341223	 1.333422
C	 3.580021	 -0.656538	 0.320835
H	 2.170545	 -0.847575	 -1.289412
H	 1.766632	 -1.772905	 0.124928
C	 4.327657	 0.562694	 -0.213579
H	 4.138806	 -1.549270	 0.057813
H	 3.561991	 -0.620783	 1.406976
H	 4.355973	 0.557257	 -1.298551
H	 3.867136	 1.491650	 0.100501
H	 5.351524	 0.571613	 0.142204

	symmetry c1
}
set optking {
	frozen_dihedral = ("
		3 5 8 12
	")
}

ee,wfn = optimize('scf', return_wfn=True)
oeprop( wfn, 'DIPOLE', 'QUADRUPOLE', 'MULLIKEN_CHARGES')
f=open( 'psi4out.xyz', 'w' )
f.write( "25  " )
f.write( str(ee) + "\n" )
f.write( MOL.save_string_xyz() )
f.close()
--------------------------------------------------------------------------

    Molecular point group: c1
  Charge       = 0
  Multiplicity = 1
  Basis Set: CC-PVTZ
  Basis Set:
  @DF-RHF Final Energy:  -387.25587072447462
    Total Energy =                       -387.2558707244745619
    Molecular point group: c1
  Basis Set: CC-PVTZ
  Basis Set:
  Basis Set: CC-PVTZ
  Basis Set:
  @DF-RHF Final Energy:  -387.25614062581582
    Total Energy =                       -387.2561406258159877
  Basis Set: CC-PVTZ
  Basis Set:
  Basis Set: CC-PVTZ
  Basis Set:
  @DF-RHF Final Energy:  -387.25666028489235
    Total Energy =                       -387.2566602848925186
  Basis Set: CC-PVTZ
  Basis Set:
  Basis Set: CC-PVTZ
  Basis Set:
  @DF-RHF Final Energy:  -387.25671987375085
    Total Energy =                       -387.2567198737513081
  Basis Set: CC-PVTZ
  Basis Set:
  Basis Set: CC-PVTZ
  Basis Set:
  @DF-RHF Final Energy:  -387.25672948147553
    Total Energy =                       -387.2567294814755314
  Basis Set: CC-PVTZ
  Basis Set:
  Basis Set: CC-PVTZ
  Basis Set:
  @DF-RHF Final Energy:  -387.25673161642294
    Total Energy =                       -387.2567316164230533
  Basis Set: CC-PVTZ
  Basis Set:
  Charge       = 0
  Multiplicity = 1
  Basis Set: CC-PVTZ
  Basis Set:

    Orbital Energies (a.u.)
    -----------------------

    Doubly Occupied:

       1A    -20.550893     2A    -11.321062     3A    -11.234094
       4A    -11.233152     5A    -11.221169     6A    -11.216230
       7A    -11.214020     8A    -11.213352     9A    -11.207158
      10A     -1.406104    11A     -1.103196    12A     -1.068622
      13A     -1.012022    14A     -0.944545    15A     -0.879964
      16A     -0.815551    17A     -0.788960    18A     -0.780010
      19A     -0.667636    20A     -0.654434    21A     -0.646216
      22A     -0.619892    23A     -0.614416    24A     -0.577609
      25A     -0.571557    26A     -0.562851    27A     -0.536330
      28A     -0.522211    29A     -0.510937    30A     -0.507200
      31A     -0.485414    32A     -0.473406    33A     -0.460154
      34A     -0.457288    35A     -0.444375    36A     -0.410676

  @DF-RHF Final Energy:  -387.25673162814263

   => Energetics <=

    Nuclear Repulsion Energy =            451.6949678277906628
    One-Electron Energy =               -1420.0379880897569365
    Two-Electron Energy =                 581.0862886338235285
    DFT Exchange-Correlation Energy =       0.0000000000000000
    Empirical Dispersion Energy =           0.0000000000000000
    PCM Polarization Energy =               0.0000000000000000
    EFP Energy =                            0.0000000000000000
    Total Energy =                       -387.2567316281428020
    Molecular point group: c1
  Basis Set: CC-PVTZ
  Basis Set:

  -Total Gradient:
     Atom            X                  Y                   Z
    ------   -----------------  -----------------  -----------------
       1        0.000000032383     0.000000933895     0.000005124773
       2       -0.000021895325     0.000007849151    -0.000001839966
       3       -0.001100534974    -0.000724790918    -0.000623302011
       4        0.000006133810     0.000002780781    -0.000020076303
       5        0.001257887202     0.000738816935     0.000932968896
       6        0.000006528392    -0.000007300664    -0.000002131064
       7        0.000012212047    -0.000008358703    -0.000018618311
       8        0.001265039148     0.001318029756    -0.000363601362
       9       -0.000011084067     0.000007849392     0.000009582833
      10        0.000010451558    -0.000007153056     0.000007660872
      11        0.000002858204    -0.000011839170    -0.000002970675
      12       -0.001431905501    -0.001353469804     0.000069272951
      13        0.000002886816     0.000017777547     0.000004095976
      14        0.000012944516     0.000001503695    -0.000013841814
      15       -0.000031974600    -0.000014607281     0.000011506699
      16        0.000012285981     0.000005143971    -0.000000314629
      17       -0.000016650927     0.000020745563     0.000027037044
      18       -0.000009758729     0.000011967893    -0.000004433608
      19        0.000010948675     0.000005732227    -0.000008980689
      20        0.000016739447    -0.000004548560    -0.000005935505
      21       -0.000009664876     0.000001444613     0.000008194917
      22       -0.000000360106     0.000007551584    -0.000000421392
      23       -0.000002525736     0.000005872128    -0.000003110031
      24        0.000018836777    -0.000019064351     0.000002363276
      25        0.000000569887    -0.000002866623    -0.000008230872

  **** Optimization is complete! (in 7 steps) ****
    Final optimized geometry and variables:
    Molecular point group: c1

    Geometry (in Angstrom), charge = 0, multiplicity = 1:

    H           -1.117604628785     1.709231986038     1.897933367793
    C           -1.660587845152     0.755397059403     1.864722915036
    C           -2.589836550711     0.593759987249     0.693509064441
    O           -1.505095591334    -0.044766249326     2.721485840681
    C           -1.934903278024     0.840755094829    -0.672064877147
    H           -3.037187907584    -0.390305242687     0.742030651303
    H           -3.381508485867     1.326762154394     0.835338546373
    C           -0.936855406419    -0.236407044096    -1.120695210433
    H           -2.736692184774     0.897305946984    -1.398880060478
    H           -1.457095901147     1.816869431914    -0.679817487752
    C            0.500611886631    -0.027811853896    -0.646067620392
    H           -0.945954054692    -0.284363331758    -2.205135231573
    H           -1.289255075747    -1.207643628226    -0.783965592217
    C            1.446804316165    -1.117357379050    -1.147790887031
    H            0.841661590265     0.945401958513    -0.985127577387
    H            0.538029393003    -0.007924900144     0.439139232711
    C            2.885996453841    -0.999889352951    -0.643157707863
    H            1.447751250160    -1.118652231710    -2.235573068560
    H            1.053846125508    -2.083282915871    -0.843616513718
    C            3.643398830124     0.224161315747    -1.152242535088
    H            3.426812913421    -1.892120285498    -0.942967790576
    H            2.885269080956    -0.997943554636     0.443379973125
    H            3.652286349946     0.253563372519    -2.237263630267
    H            3.203847393899     1.149584742820    -0.799938001628
    H            4.673425031153     0.205733547595    -0.815145679218

  Mulliken Charges: (a.u.)
   Center  Symbol    Alpha    Beta     Spin     Total
       1     H     0.46185  0.46185  0.00000  0.07629
       2     C     2.90669  2.90669  0.00000  0.18662
       3     C     3.08366  3.08366  0.00000 -0.16731
       4     O     4.16794  4.16794  0.00000 -0.33589
       5     C     3.12181  3.12181  0.00000 -0.24361
       6     H     0.44289  0.44289  0.00000  0.11422
       7     H     0.44197  0.44197  0.00000  0.11606
       8     C     3.09528  3.09528  0.00000 -0.19056
       9     H     0.43847  0.43847  0.00000  0.12307
      10     H     0.44932  0.44932  0.00000  0.10137
      11     C     3.09885  3.09885  0.00000 -0.19770
      12     H     0.44553  0.44553  0.00000  0.10894
      13     H     0.44945  0.44945  0.00000  0.10110
      14     C     3.09680  3.09680  0.00000 -0.19361
      15     H     0.45171  0.45171  0.00000  0.09658
      16     H     0.44828  0.44828  0.00000  0.10344
      17     C     3.09039  3.09039  0.00000 -0.18078
      18     H     0.45326  0.45326  0.00000  0.09348
      19     H     0.44730  0.44730  0.00000  0.10540
      20     C     3.15274  3.15274  0.00000 -0.30547
      21     H     0.44808  0.44808  0.00000  0.10383
      22     H     0.45211  0.45211  0.00000  0.09578
      23     H     0.45526  0.45526  0.00000  0.08948
      24     H     0.45465  0.45465  0.00000  0.09070
      25     H     0.44570  0.44570  0.00000  0.10859

   Total alpha = 36.00000, Total beta = 36.00000, Total charge = -0.00000

*** Psi4 exiting successfully. Buy a developer a beer!
