  ==> Input File <==

--------------------------------------------------------------------------
set {
	reference rhf
	basis 6-31G*
}

set_num_threads( 4 )
memory 2 gb

molecule MOL {
0 1

H	 -2.400301	 1.898697	 -2.221570
C	 -2.744921	 0.904854	 -1.909905
C	 -1.809328	 -0.228434	 -2.245963
O	 -3.786809	 0.781772	 -1.352168
C	 -0.377946	 0.023896	 -1.752272
H	 -2.217965	 -1.143347	 -1.832855
H	 -1.801940	 -0.326068	 -3.330891
C	 -0.252658	 0.041456	 -0.226725
H	 0.267228	 -0.749504	 -2.158335
H	 -0.015502	 0.965760	 -2.161275
C	 1.180775	 0.282413	 0.250794
H	 -0.613755	 -0.904761	 0.170930
H	 -0.902583	 0.809584	 0.188144
C	 2.148627	 -0.814315	 -0.201312
H	 1.516199	 1.249228	 -0.115937
H	 1.192670	 0.346017	 1.338083
C	 3.580890	 -0.659131	 0.322722
H	 2.166869	 -0.852443	 -1.289387
H	 1.762857	 -1.776509	 0.128956
C	 4.324889	 0.564933	 -0.213704
H	 4.142010	 -1.551473	 0.056605
H	 3.564836	 -0.624694	 1.410140
H	 4.342616	 0.565491	 -1.300421
H	 3.866655	 1.493402	 0.110242
H	 5.353900	 0.572371	 0.132816

	symmetry c1
}
set optking {
	frozen_dihedral = ("
		12 8 11 14
	")
}

ee = optimize('scf')
oeprop('DIPOLE', 'QUADRUPOLE', 'MULLIKEN_CHARGES')
f=open( 'psi4out.xyz', 'w' )
f.write( "25  " )
f.write( str(ee) + "\n" )
f.write( MOL.save_string_xyz() )
f.close()
--------------------------------------------------------------------------

    Molecular point group: c1
  Charge       = 0
  Multiplicity = 1
  Basis Set: 6-31G*
  Basis Set:
  @DF-RHF Final Energy:  -387.11945459100679
    Total Energy =                       -387.1194545910069564
    Molecular point group: c1
  Basis Set: 6-31G*
  Basis Set:
  Basis Set: 6-31G*
  Basis Set:
  @DF-RHF Final Energy:  -387.11980867470430
    Total Energy =                       -387.1198086747037905
  Basis Set: 6-31G*
  Basis Set:
  Basis Set: 6-31G*
  Basis Set:
  @DF-RHF Final Energy:  -387.12018648328234
    Total Energy =                       -387.1201864832817137
  Basis Set: 6-31G*
  Basis Set:
  Basis Set: 6-31G*
  Basis Set:
  @DF-RHF Final Energy:  -387.12017344112797
    Total Energy =                       -387.1201734411276902
  Basis Set: 6-31G*
  Basis Set:
  Basis Set: 6-31G*
  Basis Set:
  @DF-RHF Final Energy:  -387.12035175565347
    Total Energy =                       -387.1203517556530187
  Basis Set: 6-31G*
  Basis Set:
  Basis Set: 6-31G*
  Basis Set:
  @DF-RHF Final Energy:  -387.12036263481355
    Total Energy =                       -387.1203626348134321
  Basis Set: 6-31G*
  Basis Set:
  Basis Set: 6-31G*
  Basis Set:
  @DF-RHF Final Energy:  -387.12036532513844
    Total Energy =                       -387.1203653251375272
  Basis Set: 6-31G*
  Basis Set:
  Charge       = 0
  Multiplicity = 1
  Basis Set: 6-31G*
  Basis Set:

    Orbital Energies (a.u.)
    -----------------------

    Doubly Occupied:

       1A    -20.562007     2A    -11.326099     3A    -11.235056
       4A    -11.234466     5A    -11.224358     6A    -11.220274
       7A    -11.219242     8A    -11.218423     9A    -11.211644
      10A     -1.401940    11A     -1.104409    12A     -1.069185
      13A     -1.012968    14A     -0.940574    15A     -0.882451
      16A     -0.823277    17A     -0.790714    18A     -0.773678
      19A     -0.665468    20A     -0.655118    21A     -0.633882
      22A     -0.624189    23A     -0.602605    24A     -0.597692
      25A     -0.583285    26A     -0.547114    27A     -0.536935
      28A     -0.524067    29A     -0.516418    30A     -0.500945
      31A     -0.485951    32A     -0.477628    33A     -0.461120
      34A     -0.452743    35A     -0.448139    36A     -0.409192

  @DF-RHF Final Energy:  -387.12036679125100

   => Energetics <=

    Nuclear Repulsion Energy =            443.0236792185159516
    One-Electron Energy =               -1402.3415785753863929
    Two-Electron Energy =                 572.1975325656196674
    DFT Exchange-Correlation Energy =       0.0000000000000000
    Empirical Dispersion Energy =           0.0000000000000000
    PCM Polarization Energy =               0.0000000000000000
    EFP Energy =                            0.0000000000000000
    Total Energy =                       -387.1203667912507171
    Molecular point group: c1
  Basis Set: 6-31G*
  Basis Set:

  -Total Gradient:
     Atom            X                  Y                   Z
    ------   -----------------  -----------------  -----------------
       1        0.000019389699     0.000004378845     0.000033646434
       2       -0.000052393935    -0.000014287312    -0.000094783983
       3        0.000016368189     0.000003462023     0.000052017384
       4        0.000015348495     0.000003886593     0.000034876703
       5        0.000001119630     0.000036113822    -0.000010173412
       6        0.000003599196    -0.000006863860    -0.000012047254
       7        0.000000743916     0.000016066009    -0.000003311772
       8        0.000291580581    -0.000364812640    -0.000759685897
       9       -0.000005192577    -0.000007827937     0.000010574419
      10       -0.000002009500    -0.000003081342    -0.000009853119
      11       -0.000171543007    -0.000209050985     0.000635748988
      12       -0.000219594870     0.000314843763     0.000498646075
      13        0.000010152109    -0.000003073089     0.000000040414
      14        0.000054864597     0.000189200480    -0.000368825807
      15        0.000011068943    -0.000004357953     0.000007719346
      16       -0.000003094662     0.000013668921     0.000001320224
      17        0.000017121983    -0.000015949769    -0.000020226401
      18        0.000006568394     0.000039392325    -0.000000666483
      19        0.000011956116    -0.000011077351    -0.000021395026
      20        0.000012131795    -0.000006241030    -0.000005408276
      21       -0.000003590291    -0.000014109104     0.000038074505
      22       -0.000015451119     0.000041683891    -0.000001541474
      23       -0.000009962713     0.000006751998    -0.000001811399
      24        0.000006233896    -0.000003987451     0.000007662405
      25        0.000004585137    -0.000004728848    -0.000010596590

  **** Optimization is complete! (in 8 steps) ****
    Final optimized geometry and variables:
    Molecular point group: c1

    Geometry (in Angstrom), charge = 0, multiplicity = 1:

    H           -2.624616539770     1.804993385514    -1.431356018071
    C           -3.010454540696     0.847843633427    -1.058745367247
    C           -2.168465747656    -0.354988633110    -1.400918219680
    O           -4.025358393454     0.813004335698    -0.441780002674
    C           -0.696550643405    -0.179304952615    -1.000390164770
    H           -2.608285483859    -1.225941616051    -0.928761703345
    H           -2.232004414654    -0.492708408611    -2.479592878776
    C           -0.488481913075    -0.128411240782     0.516486275475
    H           -0.129778420924    -0.999100913422    -1.427717764917
    H           -0.305059266241     0.730281400281    -1.453987818922
    C            0.955629550339     0.144122567616     0.953326492973
    H           -0.830663154131    -1.062983503674     0.956575184232
    H           -1.123489153962     0.647426847187     0.939166603241
    C            1.960473014005    -0.936700983235     0.539466849463
    H            1.266123750817     1.109397876509     0.560576671919
    H            0.969919333714     0.238547388030     2.037095899291
    C            3.351751391828    -0.773532326637     1.162951448995
    H            2.062437418952    -0.957050957759    -0.543085786620
    H            1.565329404187    -1.909331757564     0.827291614084
    C            4.106598467352     0.477339673124     0.709281822438
    H            3.945529966521    -1.649441586960     0.913584926929
    H            3.260996247617    -0.767219486879     2.247140852245
    H            4.199135943966     0.506404556078    -0.373233170038
    H            3.608515648589     1.388532632914     1.023597055693
    H            5.108936134401     0.494619893404     1.125833818209

  Mulliken Charges: (a.u.)
   Center  Symbol    Alpha    Beta     Spin     Total
       1     H     0.43264  0.43264  0.00000  0.13472
       2     C     2.83093  2.83093  0.00000  0.33815
       3     C     3.20793  3.20793  0.00000 -0.41586
       4     O     4.23785  4.23785  0.00000 -0.47570
       5     C     3.16842  3.16842  0.00000 -0.33684
       6     H     0.39968  0.39968  0.00000  0.20063
       7     H     0.40666  0.40666  0.00000  0.18668
       8     C     3.15649  3.15649  0.00000 -0.31299
       9     H     0.41022  0.41022  0.00000  0.17956
      10     H     0.42026  0.42026  0.00000  0.15949
      11     C     3.15535  3.15535  0.00000 -0.31069
      12     H     0.41851  0.41851  0.00000  0.16298
      13     H     0.41645  0.41645  0.00000  0.16710
      14     C     3.15526  3.15526  0.00000 -0.31053
      15     H     0.42146  0.42146  0.00000  0.15707
      16     H     0.41920  0.41920  0.00000  0.16161
      17     C     3.15239  3.15239  0.00000 -0.30479
      18     H     0.42323  0.42323  0.00000  0.15353
      19     H     0.42195  0.42195  0.00000  0.15610
      20     C     3.24152  3.24152  0.00000 -0.48304
      21     H     0.42045  0.42045  0.00000  0.15910
      22     H     0.42242  0.42242  0.00000  0.15515
      23     H     0.42267  0.42267  0.00000  0.15467
      24     H     0.41967  0.41967  0.00000  0.16066
      25     H     0.41838  0.41838  0.00000  0.16324

   Total alpha = 36.00000, Total beta = 36.00000, Total charge = -0.00000
