  ==> Input File <==

--------------------------------------------------------------------------
set {
	reference rhf
	basis 6-31G*
}

set_num_threads( 4 )
memory 2 gb

molecule MOL {
0 1

H	 2.221251	 -0.470806	 1.350777
C	 1.951159	 -0.223429	 0.317018
C	 0.692068	 0.589600	 0.160137
O	 2.634043	 -0.592401	 -0.582792
C	 -0.558097	 -0.297372	 0.091132
H	 0.791645	 1.202255	 -0.728243
H	 0.616171	 1.253469	 1.020572
C	 -1.850991	 0.512573	 -0.019058
H	 -0.476753	 -0.965681	 -0.762987
H	 -0.604799	 -0.930658	 0.975228
C	 -3.096943	 -0.368295	 -0.099594
H	 -1.800724	 1.150330	 -0.898172
H	 -1.931651	 1.177355	 0.838044
H	 -3.060452	 -1.020287	 -0.967456
H	 -3.996858	 0.233488	 -0.175704
H	 -3.191959	 -0.995686	 0.782074

	symmetry c1
}
set optking {
	frozen_dihedral = ("
		4 2 3 6
	")
}

ee = optimize('scf')
oeprop('DIPOLE', 'QUADRUPOLE', 'MULLIKEN_CHARGES')
f=open( 'psi4out.xyz', 'w' )
f.write( "16  " )
f.write( str(ee) + "\n" )
f.write( MOL.save_string_xyz() )
f.close()
--------------------------------------------------------------------------

    Molecular point group: c1
  Charge       = 0
  Multiplicity = 1
  Basis Set: 6-31G*
  Basis Set:
  @DF-RHF Final Energy:  -270.01895875902352
    Total Energy =                       -270.0189587590237466
    Molecular point group: c1
  Basis Set: 6-31G*
  Basis Set:
  Basis Set: 6-31G*
  Basis Set:
  @DF-RHF Final Energy:  -270.01723675479002
    Total Energy =                       -270.0172367547900194
  Basis Set: 6-31G*
  Basis Set:
  Basis Set: 6-31G*
  Basis Set:
  @DF-RHF Final Energy:  -270.01915086063809
    Total Energy =                       -270.0191508606383195
  Basis Set: 6-31G*
  Basis Set:
  Basis Set: 6-31G*
  Basis Set:
  @DF-RHF Final Energy:  -270.01917158284994
    Total Energy =                       -270.0191715828503902
  Basis Set: 6-31G*
  Basis Set:
  Basis Set: 6-31G*
  Basis Set:
  @DF-RHF Final Energy:  -270.01909687747656
    Total Energy =                       -270.0190968774766134
  Basis Set: 6-31G*
  Basis Set:
  Basis Set: 6-31G*
  Basis Set:
  @DF-RHF Final Energy:  -270.01917887114467
    Total Energy =                       -270.0191788711447316
  Basis Set: 6-31G*
  Basis Set:
  Charge       = 0
  Multiplicity = 1
  Basis Set: 6-31G*
  Basis Set:

    Orbital Energies (a.u.)
    -----------------------

    Doubly Occupied:

       1A    -20.562292     2A    -11.326512     3A    -11.235606
       4A    -11.234591     5A    -11.228077     6A    -11.217266
       7A     -1.402266     8A     -1.094580     9A     -1.017340
      10A     -0.905813    11A     -0.812491    12A     -0.789171
      13A     -0.681394    14A     -0.645642    15A     -0.628480
      16A     -0.602444    17A     -0.577537    18A     -0.551968
      19A     -0.525075    20A     -0.512023    21A     -0.486474
      22A     -0.479330    23A     -0.476424    24A     -0.408355

  @DF-RHF Final Energy:  -270.01917913508782

   => Energetics <=

    Nuclear Repulsion Energy =            229.9957069379660481
    One-Electron Energy =                -821.2274696303493329
    Two-Electron Energy =                 321.2125835572953747
    DFT Exchange-Correlation Energy =       0.0000000000000000
    Empirical Dispersion Energy =           0.0000000000000000
    PCM Polarization Energy =               0.0000000000000000
    EFP Energy =                            0.0000000000000000
    Total Energy =                       -270.0191791350879384
    Molecular point group: c1
  Basis Set: 6-31G*
  Basis Set:

  -Total Gradient:
     Atom            X                  Y                   Z
    ------   -----------------  -----------------  -----------------
       1        0.000002830607    -0.000003418126    -0.000010543750
       2        0.001112625891     0.001671318586     0.000186443512
       3       -0.000965286339    -0.001536220088    -0.000799037765
       4       -0.000671777133    -0.001033313206    -0.000028547320
       5        0.000018722312     0.000025292738     0.000005053441
       6        0.000510945325     0.000859262237     0.000627402057
       7       -0.000014789990     0.000004746376     0.000008694701
       8       -0.000021364263     0.000008980879     0.000013764602
       9        0.000011382462    -0.000000958653    -0.000001857573
      10        0.000003843280     0.000001877019     0.000003349536
      11        0.000011657789     0.000001113940    -0.000007756169
      12        0.000000453304    -0.000001418160     0.000001648513
      13       -0.000004094856     0.000003013454     0.000002877379
      14       -0.000001692672    -0.000004543913    -0.000002096945
      15        0.000006455214     0.000002383455    -0.000002101330
      16        0.000000089065     0.000001883463     0.000002707112

  **** Optimization is complete! (in 7 steps) ****
    Final optimized geometry and variables:
    Molecular point group: c1

    Geometry (in Angstrom), charge = 0, multiplicity = 1:

    H            2.264495333826    -0.436938998667     1.368210896776
    C            1.992071423024    -0.152773773716     0.345374374433
    C            0.743723370913     0.681845226110     0.203598947093
    O            2.640477397205    -0.538115060596    -0.573383332285
    C           -0.502647915319    -0.214513046365     0.130695164823
    H            0.834663466804     1.282943595848    -0.694174701057
    H            0.662934985625     1.352651520059     1.055476929557
    C           -1.798750848579     0.588533147145     0.011171374694
    H           -0.403542519688    -0.881626521680    -0.720986733886
    H           -0.550366529462    -0.845620670592     1.016422611327
    C           -3.038706339703    -0.300496256473    -0.072438728103
    H           -1.746933935406     1.222137930838    -0.870968921147
    H           -1.888614917793     1.256893532770     0.864591950889
    H           -2.992207513539    -0.957698524207    -0.935778474312
    H           -3.941588218756     0.295541974196    -0.158377586495
    H           -3.136055896144    -0.923006289844     0.812397258019

  Mulliken Charges: (a.u.)
   Center  Symbol    Alpha    Beta     Spin     Total
       1     H     0.43011  0.43011  0.00000  0.13977
       2     C     2.83762  2.83762  0.00000  0.32476
       3     C     3.20165  3.20165  0.00000 -0.40330
       4     O     4.23627  4.23627  0.00000 -0.47255
       5     C     3.16276  3.16276  0.00000 -0.32551
       6     H     0.40032  0.40032  0.00000  0.19935
       7     H     0.41544  0.41544  0.00000  0.16911
       8     C     3.15188  3.15188  0.00000 -0.30377
       9     H     0.40828  0.40828  0.00000  0.18343
      10     H     0.41906  0.41906  0.00000  0.16188
      11     C     3.24059  3.24059  0.00000 -0.48118
      12     H     0.41861  0.41861  0.00000  0.16278
      13     H     0.42130  0.42130  0.00000  0.15740
      14     H     0.41875  0.41875  0.00000  0.16249
      15     H     0.41676  0.41676  0.00000  0.16649
      16     H     0.42058  0.42058  0.00000  0.15884

   Total alpha = 24.00000, Total beta = 24.00000, Total charge =  0.00000
