  ==> Input File <==

--------------------------------------------------------------------------
set {
	reference rhf
	basis 6-31G*
}

set_num_threads( 4 )
memory 2 gb

molecule MOL {
0 1

O	 -1.676697	 1.145451	 0.360427
C	 -1.083277	 0.139568	 0.115197
C	 0.323299	 -0.082943	 0.642902
C	 -1.684763	 -0.947354	 -0.747731
C	 1.355627	 -0.005344	 -0.493127
H	 0.396251	 -1.044647	 1.143147
H	 0.528637	 0.693580	 1.371677
C	 2.786168	 -0.195604	 0.007473
H	 1.132807	 -0.760304	 -1.243899
H	 1.259610	 0.958506	 -0.981915
H	 3.495561	 -0.130713	 -0.811210
H	 2.912696	 -1.165395	 0.480041
H	 3.049284	 0.565503	 0.735850
H	 -1.003558	 -1.226402	 -1.546329
H	 -2.623090	 -0.610736	 -1.166023
H	 -1.856065	 -1.836957	 -0.147343

	symmetry c1
}
set optking {
	frozen_dihedral = ("
		4 2 3 5
	")
}

ee = optimize('scf')
oeprop('DIPOLE', 'QUADRUPOLE', 'MULLIKEN_CHARGES')
f=open( 'psi4out.xyz', 'w' )
f.write( "16  " )
f.write( str(ee) + "\n" )
f.write( MOL.save_string_xyz() )
f.close()
--------------------------------------------------------------------------

    Molecular point group: c1
  Charge       = 0
  Multiplicity = 1
  Basis Set: 6-31G*
  Basis Set:
  @DF-RHF Final Energy:  -270.02930495920560
    Total Energy =                       -270.0293049592057173
    Molecular point group: c1
  Basis Set: 6-31G*
  Basis Set:
  Basis Set: 6-31G*
  Basis Set:
  @DF-RHF Final Energy:  -270.02959419914862
    Total Energy =                       -270.0295941991487325
  Basis Set: 6-31G*
  Basis Set:
  Basis Set: 6-31G*
  Basis Set:
  @DF-RHF Final Energy:  -270.02971212153540
    Total Energy =                       -270.0297121215353400
  Basis Set: 6-31G*
  Basis Set:
  Basis Set: 6-31G*
  Basis Set:
  @DF-RHF Final Energy:  -270.02976092484698
    Total Energy =                       -270.0297609248470962
  Basis Set: 6-31G*
  Basis Set:
  @DF-RHF Final Energy:  -270.02978077777237
    Total Energy =                       -270.0297807777723165
  @DF-RHF Final Energy:  -270.02981258442856
    Total Energy =                       -270.0298125844287256
  @DF-RHF Final Energy:  -270.02984053932585
    Total Energy =                       -270.0298405393259600
  @DF-RHF Final Energy:  -270.02985787438780
    Total Energy =                       -270.0298578743878579
  Basis Set: 6-31G*
  Basis Set:
  @DF-RHF Final Energy:  -270.02987150619362
    Total Energy =                       -270.0298715061936718
  Basis Set: 6-31G*
  Basis Set:
  Basis Set: 6-31G*
  Basis Set:
  @DF-RHF Final Energy:  -270.02988078122200
    Total Energy =                       -270.0298807812222321
  Basis Set: 6-31G*
  Basis Set:
  Basis Set: 6-31G*
  Basis Set:
  @DF-RHF Final Energy:  -270.02988601421737
    Total Energy =                       -270.0298860142171407
  Basis Set: 6-31G*
  Basis Set:
  Charge       = 0
  Multiplicity = 1
  Basis Set: 6-31G*
  Basis Set:

    Orbital Energies (a.u.)
    -----------------------

    Doubly Occupied:

       1A    -20.548741     2A    -11.324757     3A    -11.235862
       4A    -11.230174     5A    -11.227790     6A    -11.221058
       7A     -1.393784     8A     -1.084655     9A     -1.011099
      10A     -0.950535    11A     -0.832340    12A     -0.735337
      13A     -0.659654    14A     -0.648961    15A     -0.615221
      16A     -0.607189    17A     -0.577024    18A     -0.554622
      19A     -0.534831    20A     -0.520507    21A     -0.506168
      22A     -0.486006    23A     -0.473851    24A     -0.398529

  @DF-RHF Final Energy:  -270.02988663981881

   => Energetics <=

    Nuclear Repulsion Energy =            236.8534735864076310
    One-Electron Energy =                -835.0093301713724259
    Two-Electron Energy =                 328.1259699451461529
    DFT Exchange-Correlation Energy =       0.0000000000000000
    Empirical Dispersion Energy =           0.0000000000000000
    PCM Polarization Energy =               0.0000000000000000
    EFP Energy =                            0.0000000000000000
    Total Energy =                       -270.0298866398186419
    Molecular point group: c1
  Basis Set: 6-31G*
  Basis Set:

  -Total Gradient:
     Atom            X                  Y                   Z
    ------   -----------------  -----------------  -----------------
       1        0.000002722795    -0.000007534619     0.000009426715
       2       -0.000124219312    -0.000174318868     0.000195913084
       3        0.000081105362     0.000266863531    -0.000051457715
       4        0.000057691727     0.000085637525    -0.000137400231
       5       -0.000020024523    -0.000170441839    -0.000020961065
       6       -0.000002785980    -0.000000331750    -0.000003091339
       7       -0.000005062681     0.000000854376     0.000004511881
       8       -0.000002497563     0.000002065709     0.000003978100
       9        0.000002666083    -0.000002521209    -0.000007538254
      10       -0.000002490710     0.000000402733     0.000003212307
      11       -0.000003245617    -0.000001661993     0.000000309434
      12       -0.000002161324     0.000002667243    -0.000000522886
      13        0.000007214813     0.000002727391     0.000002240424
      14        0.000008719434    -0.000007866454     0.000003431066
      15        0.000004025938     0.000003738371    -0.000006725000
      16       -0.000001658441    -0.000000280146     0.000004673478

  **** Optimization is complete! (in 12 steps) ****
    Final optimized geometry and variables:
    Molecular point group: c1

    Geometry (in Angstrom), charge = 0, multiplicity = 1:

    O           -1.681623035335     1.154548111003     0.372987937117
    C           -1.097524907681     0.143037388817     0.128223670951
    C            0.312639962631    -0.092527279493     0.639520784416
    C           -1.733359404709    -0.944036730575    -0.714236897634
    C            1.370924158443    -0.054294351695    -0.474246425730
    H            0.354946818497    -1.056410298058     1.142446542547
    H            0.518678129933     0.677823585061     1.372897613443
    C            2.788922821408    -0.197646658882     0.076524941893
    H            1.184861104807    -0.847385270494    -1.192897842480
    H            1.285004565433     0.884457705965    -1.014940820777
    H            3.521259130956    -0.168503701510    -0.723728491674
    H            2.911091904342    -1.138932244514     0.604543805479
    H            3.021831139222     0.604587066027     0.769845085252
    H           -1.209116825365    -1.045727477748    -1.659634209233
    H           -2.765964211059    -0.690297069822    -0.909421810608
    H           -1.680295145428    -1.904241796546    -0.210202856008

  Mulliken Charges: (a.u.)
   Center  Symbol    Alpha    Beta     Spin     Total
       1     O     4.25982  4.25982  0.00000 -0.51964
       2     C     2.73612  2.73612  0.00000  0.52776
       3     C     3.20143  3.20143  0.00000 -0.40285
       4     C     3.29008  3.29008  0.00000 -0.58016
       5     C     3.16398  3.16398  0.00000 -0.32796
       6     H     0.41497  0.41497  0.00000  0.17006
       7     H     0.39962  0.39962  0.00000  0.20076
       8     C     3.23947  3.23947  0.00000 -0.47894
       9     H     0.41874  0.41874  0.00000  0.16252
      10     H     0.41106  0.41106  0.00000  0.17787
      11     H     0.41549  0.41549  0.00000  0.16902
      12     H     0.42002  0.42002  0.00000  0.15996
      13     H     0.41666  0.41666  0.00000  0.16669
      14     H     0.40594  0.40594  0.00000  0.18811
      15     H     0.39614  0.39614  0.00000  0.20772
      16     H     0.41047  0.41047  0.00000  0.17907

   Total alpha = 24.00000, Total beta = 24.00000, Total charge =  0.00000
