  ==> Input File <==

--------------------------------------------------------------------------
set {
	reference rhf
	basis 6-31G*
}

set_num_threads( 1 )
memory 2 gb

molecule MOL {
0 1

H	 -3.420663	 1.227371	 -1.044276
O	 -3.452007	 0.283848	 -0.965577
C	 -3.181085	 -0.079926	 0.364119
C	 -1.765924	 0.277073	 0.805136
H	 -3.327791	 -1.152017	 0.410903
H	 -3.905698	 0.375695	 1.036898
C	 -1.289990	 1.635525	 0.288790
H	 -1.719195	 0.261066	 1.894412
H	 -1.092522	 -0.506368	 0.461668
C	 0.122378	 1.993968	 0.755602
H	 -1.987775	 2.403102	 0.609151
H	 -1.319939	 1.631124	 -0.799547
C	 0.594080	 3.352369	 0.229930
H	 0.147932	 1.987031	 1.842671
H	 0.818497	 1.222403	 0.428940
C	 2.037095	 3.716671	 0.597550
H	 -0.075537	 4.130598	 0.592791
H	 0.502970	 3.356450	 -0.854275
C	 2.277779	 3.929992	 2.093201
H	 2.307760	 4.627068	 0.068203
H	 2.708052	 2.942461	 0.230645
H	 1.611304	 4.690813	 2.490821
H	 3.296911	 4.256241	 2.276966
H	 2.120098	 3.020913	 2.664056

	symmetry c1
}
set optking {
	frozen_dihedral = ("
		20 16 13 17,
		17 13 10 7,
		13 10 7 11,
		11 7 4 3,
		1 2 3 5
	")
}

ee = energy('scf')
oeprop('DIPOLE', 'QUADRUPOLE', 'MULLIKEN_CHARGES')
f=open( 'psi4out.xyz', 'w' )
f.write( "24  " )
f.write( str(ee) + "\n" )
f.write( MOL.save_string_xyz() )
f.close()
--------------------------------------------------------------------------

    Molecular point group: c1

    Geometry (in Angstrom), charge = 0, multiplicity = 1:

       Center              X                  Y                   Z               Mass
    ------------   -----------------  -----------------  -----------------  -----------------
           H         -2.791622473358    -0.643036199036    -1.548701676943     1.007825032070
           O         -2.822966473358    -1.586559199036    -1.470002676943    15.994914619560
           C         -2.552044473358    -1.950333199036    -0.140306676943    12.000000000000
           C         -1.136883473358    -1.593334199036     0.300710323057    12.000000000000
           H         -2.698750473358    -3.022424199036    -0.093522676943     1.007825032070
           H         -3.276657473358    -1.494712199036     0.532472323057     1.007825032070
           C         -0.660949473358    -0.234882199036    -0.215635676943    12.000000000000
           H         -1.090154473358    -1.609341199036     1.389986323057     1.007825032070
           H         -0.463481473358    -2.376775199036    -0.042757676943     1.007825032070
           C          0.751418526642     0.123560800964     0.251176323057    12.000000000000
           H         -1.358734473358     0.532694800964     0.104725323057     1.007825032070
           H         -0.690898473358    -0.239283199036    -1.303972676943     1.007825032070
           C          1.223120526642     1.481961800964    -0.274495676943    12.000000000000
           H          0.776972526642     0.116623800964     1.338245323057     1.007825032070
           H          1.447537526642    -0.648004199036    -0.075485676943     1.007825032070
           C          2.666135526642     1.846263800964     0.093124323057    12.000000000000
           H          0.553503526642     2.260190800964     0.088365323057     1.007825032070
           H          1.132010526642     1.486042800964    -1.358700676943     1.007825032070
           C          2.906819526642     2.059584800964     1.588775323057    12.000000000000
           H          2.936800526642     2.756660800964    -0.436222676943     1.007825032070
           H          3.337092526642     1.072053800964    -0.273780676943     1.007825032070
           H          2.240344526642     2.820405800964     1.986395323057     1.007825032070
           H          3.925951526642     2.385833800964     1.772540323057     1.007825032070
           H          2.749138526642     1.150505800964     2.159630323057     1.007825032070

  Charge       = 0
  Multiplicity = 1
  Basis Set: 6-31G*
  Basis Set:

    Orbital Energies (a.u.)
    -----------------------

    Doubly Occupied:

       1A    -20.551926     2A    -11.266699     3A    -11.220516
       4A    -11.217348     5A    -11.216987     6A    -11.216379
       7A    -11.215732     8A    -11.209674     9A     -1.359433
      10A     -1.092638    11A     -1.050320    12A     -0.988047
      13A     -0.920751    14A     -0.854894    15A     -0.795156
      16A     -0.780844    17A     -0.692399    18A     -0.652563
      19A     -0.626092    20A     -0.611732    21A     -0.606169
      22A     -0.587806    23A     -0.561580    24A     -0.540124
      25A     -0.522263    26A     -0.512087    27A     -0.490315
      28A     -0.488621    29A     -0.471652    30A     -0.463258
      31A     -0.457080    32A     -0.444471    33A     -0.423471

  @DF-RHF Final Energy:  -349.24417318716775

   => Energetics <=

    Nuclear Repulsion Energy =            386.1157961669528618
    One-Electron Energy =               -1238.5018760476359603
    Two-Electron Energy =                 503.1419066935153523
    DFT Exchange-Correlation Energy =       0.0000000000000000
    Empirical Dispersion Energy =           0.0000000000000000
    PCM Polarization Energy =               0.0000000000000000
    EFP Energy =                            0.0000000000000000
    Total Energy =                       -349.2441731871678030

  Mulliken Charges: (a.u.)
   Center  Symbol    Alpha    Beta     Spin     Total
       1     H     0.27838  0.27838  0.00000  0.44324
       2     O     4.37092  4.37092  0.00000 -0.74184
       3     C     2.99594  2.99594  0.00000  0.00812
       4     C     3.16377  3.16377  0.00000 -0.32755
       5     H     0.41426  0.41426  0.00000  0.17147
       6     H     0.43124  0.43124  0.00000  0.13752
       7     C     3.16877  3.16877  0.00000 -0.33754
       8     H     0.42280  0.42280  0.00000  0.15441
       9     H     0.41752  0.41752  0.00000  0.16496
      10     C     3.15228  3.15228  0.00000 -0.30456
      11     H     0.42686  0.42686  0.00000  0.14628
      12     H     0.41624  0.41624  0.00000  0.16752
      13     C     3.15289  3.15289  0.00000 -0.30578
      14     H     0.42119  0.42119  0.00000  0.15761
      15     H     0.42151  0.42151  0.00000  0.15698
      16     C     3.15260  3.15260  0.00000 -0.30520
      17     H     0.42485  0.42485  0.00000  0.15031
      18     H     0.42189  0.42189  0.00000  0.15622
      19     C     3.24129  3.24129  0.00000 -0.48258
      20     H     0.42066  0.42066  0.00000  0.15867
      21     H     0.42276  0.42276  0.00000  0.15449
      22     H     0.42244  0.42244  0.00000  0.15513
      23     H     0.41886  0.41886  0.00000  0.16229
      24     H     0.42009  0.42009  0.00000  0.15982

   Total alpha = 33.00000, Total beta = 33.00000, Total charge = -0.00000
