  ==> Input File <==

--------------------------------------------------------------------------
set {
	reference rhf
	basis cc-pvtz
}

set_num_threads( 4 )
memory 2 gb

molecule MOL {
0 1

H	 1.420987	 0.106625	 -2.637255
C	 0.690964	 -0.080022	 -1.860396
C	 1.322304	 0.099773	 -0.484271
H	 -0.134123	 0.607507	 -2.008398
H	 0.315597	 -1.088387	 -1.993213
C	 0.308557	 -0.162619	 0.622645
H	 1.704950	 1.107283	 -0.378266
H	 2.156350	 -0.580708	 -0.364890
N	 -1.069352	 -0.004081	 0.085342
H	 0.371632	 -1.172932	 0.991288
H	 0.400391	 0.548875	 1.426218
O	 -1.584901	 -0.965470	 -0.377818
O	 -1.548033	 1.079343	 0.130056

	symmetry c1
}
set optking {
	frozen_dihedral = ("
		7 3 6 9
	")
}

ee = optimize('scf')
oeprop('DIPOLE', 'QUADRUPOLE', 'MULLIKEN_CHARGES')
f=open( 'psi4out.xyz', 'w' )
f.write( "13  " )
f.write( str(ee) + "\n" )
f.write( MOL.save_string_xyz() )
f.close()
--------------------------------------------------------------------------

    Molecular point group: c1
  Charge       = 0
  Multiplicity = 1
  Basis Set: CC-PVTZ
  Basis Set:
  @DF-RHF Final Energy:  -321.85152297570579
    Total Energy =                       -321.8515229757054499
    Molecular point group: c1
  Basis Set: CC-PVTZ
  Basis Set:
  Basis Set: CC-PVTZ
  Basis Set:
  @DF-RHF Final Energy:  -321.85021397339801
    Total Energy =                       -321.8502139733981267
  Basis Set: CC-PVTZ
  Basis Set:
  Basis Set: CC-PVTZ
  Basis Set:
  @DF-RHF Final Energy:  -321.85447249381707
    Total Energy =                       -321.8544724938167292
  Basis Set: CC-PVTZ
  Basis Set:
  Basis Set: CC-PVTZ
  Basis Set:
  @DF-RHF Final Energy:  -321.85580878474980
    Total Energy =                       -321.8558087847497973
  Basis Set: CC-PVTZ
  Basis Set:
  @DF-RHF Final Energy:  -321.85593832892914
    Total Energy =                       -321.8559383289290281
  Basis Set: CC-PVTZ
  Basis Set:
  @DF-RHF Final Energy:  -321.85599378080298
    Total Energy =                       -321.8559937808032032
  Basis Set: CC-PVTZ
  Basis Set:
  Basis Set: CC-PVTZ
  Basis Set:
  @DF-RHF Final Energy:  -321.85604692254697
    Total Energy =                       -321.8560469225470797
  Basis Set: CC-PVTZ
  Basis Set:
  Basis Set: CC-PVTZ
  Basis Set:
  @DF-RHF Final Energy:  -321.85605798200788
    Total Energy =                       -321.8560579820079397
  Basis Set: CC-PVTZ
  Basis Set:
  Charge       = 0
  Multiplicity = 1
  Basis Set: CC-PVTZ
  Basis Set:

    Orbital Energies (a.u.)
    -----------------------

    Doubly Occupied:

       1A    -20.592557     2A    -20.588888     3A    -15.836662
       4A    -11.297471     5A    -11.254734     6A    -11.227975
       7A     -1.636250     8A     -1.420389     9A     -1.129739
      10A     -1.021909    11A     -0.896723    12A     -0.822623
      13A     -0.755153    14A     -0.739082    15A     -0.729242
      16A     -0.664631    17A     -0.608632    18A     -0.590050
      19A     -0.538369    20A     -0.518966    21A     -0.509928
      22A     -0.482132    23A     -0.475373    24A     -0.453933

  @DF-RHF Final Energy:  -321.85605845118175

   => Energetics <=

    Nuclear Repulsion Energy =            254.7686783833407844
    One-Electron Energy =                -943.6666501069754531
    Two-Electron Energy =                 367.0419132724528595
    DFT Exchange-Correlation Energy =       0.0000000000000000
    Empirical Dispersion Energy =           0.0000000000000000
    PCM Polarization Energy =               0.0000000000000000
    EFP Energy =                            0.0000000000000000
    Total Energy =                       -321.8560584511818092
    Molecular point group: c1
  Basis Set: CC-PVTZ
  Basis Set:

  -Total Gradient:
     Atom            X                  Y                   Z
    ------   -----------------  -----------------  -----------------
       1        0.000002888614     0.000001604043    -0.000004768929
       2        0.000007107166    -0.000011655606     0.000013504030
       3       -0.005583658699     0.001198866453    -0.004451245287
       4        0.000010752358     0.000003855422    -0.000016263526
       5       -0.000007264624     0.000002146679     0.000001395797
       6        0.001289436254     0.005217211844     0.002454049572
       7        0.004456431464    -0.002198179275     0.003263248660
       8        0.000015513766    -0.000002736080    -0.000000205230
       9       -0.000184941186    -0.004225436482    -0.001265660781
      10       -0.000013375521    -0.000000793676     0.000000424254
      11        0.000000293203     0.000001401836     0.000003145815
      12        0.000008636460     0.000036154914     0.000002222621
      13       -0.000001819254    -0.000022440075     0.000000153006

  **** Optimization is complete! (in 9 steps) ****
    Final optimized geometry and variables:
    Molecular point group: c1

    Geometry (in Angstrom), charge = 0, multiplicity = 1:

    H            1.937328304236     0.112916310468    -2.375236892263
    C            1.137331201761    -0.070834249293    -1.669752642123
    C            1.655949577621     0.132255862293    -0.250358491876
    H            0.328222362875     0.609012779320    -1.901892399864
    H            0.782835768091    -1.082836116194    -1.820707988575
    C            0.668217521414    -0.180010924144     0.887646904419
    H            2.050388213207     1.130428243356    -0.114648881988
    H            2.500839012991    -0.528370803903    -0.089379785094
    N           -0.746094131914    -0.005740988280     0.458141509777
    H            0.735944755657    -1.207751810812     1.198722423830
    H            0.806167595274     0.479281795199     1.727730970698
    O           -1.366907997212    -0.981512555204     0.203935631224
    O           -1.152869665625     1.106214446961     0.382251089782

  Mulliken Charges: (a.u.)
   Center  Symbol    Alpha    Beta     Spin     Total
       1     H     0.44566  0.44566  0.00000  0.10868
       2     C     3.15160  3.15160  0.00000 -0.30320
       3     C     3.09326  3.09326  0.00000 -0.18653
       4     H     0.44258  0.44258  0.00000  0.11484
       5     H     0.44482  0.44482  0.00000  0.11035
       6     C     3.04244  3.04244  0.00000 -0.08489
       7     H     0.44278  0.44278  0.00000  0.11443
       8     H     0.44804  0.44804  0.00000  0.10392
       9     N     3.27773  3.27773  0.00000  0.44455
      10     H     0.43389  0.43389  0.00000  0.13223
      11     H     0.43030  0.43030  0.00000  0.13941
      12     O     4.17229  4.17229  0.00000 -0.34458
      13     O     4.17460  4.17460  0.00000 -0.34921

   Total alpha = 24.00000, Total beta = 24.00000, Total charge = -0.00000
