                              Psi4 1.0.54 Driver

  ==> Input File <==

--------------------------------------------------------------------------
set {
	reference rhf
	basis cc-pvtz
}

set_num_threads( 4 )
memory 2 gb

molecule MOL {
0 1

O	 2.193420	 -0.325724	 0.222656
C	 1.121787	 0.124983	 0.000110
C	 -0.170912	 -0.649867	 -0.000147
O	 0.917438	 1.400820	 -0.284246
C	 -1.413045	 0.229353	 0.001137
H	 -0.152877	 -1.303435	 -0.866175
H	 -0.152278	 -1.305116	 0.864586
C	 -2.702562	 -0.586401	 0.000228
H	 -1.390744	 0.882001	 -0.864365
H	 -1.390549	 0.879837	 0.868264
C	 -3.953810	 0.284959	 -0.000782
H	 -2.717793	 -1.238567	 -0.869075
H	 -2.719108	 -1.238472	 0.869576
H	 -3.983727	 0.924403	 -0.876454
H	 -4.852989	 -0.320147	 -0.001515
H	 -3.985140	 0.924399	 0.874841
C	 2.048630	 2.247323	 -0.318246
H	 2.541723	 2.263648	 0.642390
H	 1.678119	 3.229489	 -0.563070
H	 2.750561	 1.915834	 -1.069000

	symmetry c1
}
set optking {
	frozen_dihedral = ("
		1 2 3 6
	")
}

ee,wfn = optimize('scf', return_wfn=True)
oeprop( wfn, 'DIPOLE', 'QUADRUPOLE', 'MULLIKEN_CHARGES')
f=open( 'psi4out.xyz', 'w' )
f.write( "20  " )
f.write( str(ee) + "\n" )
f.write( MOL.save_string_xyz() )
f.close()
--------------------------------------------------------------------------

    Molecular point group: c1
  Charge       = 0
  Multiplicity = 1
  Basis Set: CC-PVTZ
  Basis Set:
  @DF-RHF Final Energy:  -384.07944649793649
    Total Energy =                       -384.0794464979366012
    Molecular point group: c1
  Basis Set: CC-PVTZ
  Basis Set:
  Basis Set: CC-PVTZ
  Basis Set:
  @DF-RHF Final Energy:  -382.33598343201601
    Total Energy =                       -382.3359834320160644
  Basis Set: CC-PVTZ
  Basis Set:
  Basis Set: CC-PVTZ
  Basis Set:
  @DF-RHF Final Energy:  -382.57893255812786
    Total Energy =                       -382.5789325581280309
  Basis Set: CC-PVTZ
  Basis Set:
  Basis Set: CC-PVTZ
  Basis Set:
  @DF-RHF Final Energy:  -382.95865568982862
    Total Energy =                       -382.9586556898291860
  Basis Set: CC-PVTZ
  Basis Set:
  @DF-RHF Final Energy:  -383.39398680531821
    Total Energy =                       -383.3939868053180930
  @DF-RHF Final Energy:  -383.71998576715129
    Total Energy =                       -383.7199857671508880
  @DF-RHF Final Energy:  -383.97756048080760
    Total Energy =                       -383.9775604808074831
  @DF-RHF Final Energy:  -384.07415966779001
    Total Energy =                       -384.0741596677902407
  @DF-RHF Final Energy:  -384.07971478576093
    Total Energy =                       -384.0797147857605296
  @DF-RHF Final Energy:  -384.06990500783064
    Total Energy =                       -384.0699050078301298
  @DF-RHF Final Energy:  -384.08041801577696
    Total Energy =                       -384.0804180157770134
  Basis Set: CC-PVTZ
  Basis Set:
  @DF-RHF Final Energy:  -384.08001928622605
    Total Energy =                       -384.0800192862261611
  Basis Set: CC-PVTZ
  Basis Set:
  Basis Set: CC-PVTZ
  Basis Set:
  @DF-RHF Final Energy:  -384.08079131471737
    Total Energy =                       -384.0807913147176578
  Basis Set: CC-PVTZ
  Basis Set:
  Basis Set: CC-PVTZ
  Basis Set:
  @DF-RHF Final Energy:  -384.08080541505387
    Total Energy =                       -384.0808054150537600
  Basis Set: CC-PVTZ
  Basis Set:
  Charge       = 0
  Multiplicity = 1
  Basis Set: CC-PVTZ
  Basis Set:

    Orbital Energies (a.u.)
    -----------------------

    Doubly Occupied:

       1A    -20.599253     2A    -20.529649     3A    -11.364943
       4A    -11.279480     5A    -11.234075     6A    -11.222094
       7A    -11.220728     8A    -11.211652     9A     -1.473347
      10A     -1.364134    11A     -1.092651    12A     -1.024906
      13A     -0.967922    14A     -0.893324    15A     -0.806872
      16A     -0.776980    17A     -0.695097    18A     -0.687079
      19A     -0.674897    20A     -0.648793    21A     -0.594756
      22A     -0.593463    23A     -0.582220    24A     -0.544100
      25A     -0.532607    26A     -0.524437    27A     -0.504039
      28A     -0.495734    29A     -0.479884    30A     -0.475529
      31A     -0.455846    32A     -0.430893

  @DF-RHF Final Energy:  -384.08080641463977

   => Energetics <=

    Nuclear Repulsion Energy =            384.2274276772060944
    One-Electron Energy =               -1284.6536985894445024
    Two-Electron Energy =                 516.3454644975986412
    DFT Exchange-Correlation Energy =       0.0000000000000000
    Empirical Dispersion Energy =           0.0000000000000000
    PCM Polarization Energy =               0.0000000000000000
    EFP Energy =                            0.0000000000000000
    Total Energy =                       -384.0808064146397101
    Molecular point group: c1
  Basis Set: CC-PVTZ
  Basis Set:

  -Total Gradient:
     Atom            X                  Y                   Z
    ------   -----------------  -----------------  -----------------
       1        0.000242729651    -0.000437306697    -0.000248686702
       2       -0.000302740184     0.000554284379     0.000525148572
       3       -0.000076514818    -0.000245545929    -0.000685442664
       4        0.000048700162     0.000021191871    -0.000059432816
       5        0.000038637109     0.000040274223    -0.000066060559
       6        0.000152180804     0.000064070134     0.000523105416
       7       -0.000011597251    -0.000022272651     0.000018084194
       8       -0.000040164660    -0.000009140692     0.000059925851
       9       -0.000005589320     0.000025441860     0.000019363636
      10        0.000019741051     0.000000062577    -0.000005203459
      11        0.000016380983     0.000000577441    -0.000025817980
      12       -0.000018804096    -0.000007967288     0.000010022090
      13       -0.000003571886    -0.000019430915    -0.000003382540
      14       -0.000004584397     0.000003376393    -0.000012345898
      15       -0.000034379296    -0.000038605416     0.000016568047
      16        0.000018359807    -0.000000271548     0.000005311988
      17       -0.000047269838     0.000090322790    -0.000066289134
      18        0.000006383249    -0.000010953838     0.000004284374
      19        0.000023307571     0.000030984662    -0.000039448715
      20       -0.000021204636    -0.000039091356     0.000030296299

  **** Optimization is complete! (in 15 steps) ****
    Final optimized geometry and variables:
    Molecular point group: c1

    Geometry (in Angstrom), charge = 0, multiplicity = 1:

    O            2.181757557874     0.690375216984     0.992575061947
    C            1.232421499903     0.435754582336     0.331225669264
    C            0.158019335360    -0.533078148774     0.767577875172
    O            1.029593501001     0.951928188719    -0.866688682184
    C           -1.146652614728    -0.525351062243    -0.020785516276
    H            0.618387489470    -1.516041487741     0.734570982429
    H           -0.019247304308    -0.327306928197     1.815961832555
    C           -2.159132591937    -1.522117392414     0.537205077672
    H           -0.946805082141    -0.753765830166    -1.060937021712
    H           -1.574699408693     0.471858567827    -0.005082747791
    C           -3.471662969802    -1.530770290148    -0.238780583923
    H           -1.727250075364    -2.519246235753     0.525100741297
    H           -2.358521666190    -1.289996326231     1.579725790446
    H           -3.309558298552    -1.793894310942    -1.278622412356
    H           -4.169135492424    -2.247406174067     0.179043565702
    H           -3.945768908152    -0.555327242850    -0.215785650020
    C            2.005744749562     1.848555914767    -1.359079502012
    H            2.098041777723     2.704912661222    -0.708063398050
    H            1.662769218462     2.155592214313    -2.333771511547
    H            2.965430439052     1.359926420729    -1.436786874649

  Mulliken Charges: (a.u.)
   Center  Symbol    Alpha    Beta     Spin     Total
       1     O     4.20403  4.20403  0.00000 -0.40806
       2     C     2.81361  2.81361  0.00000  0.37279
       3     C     3.09023  3.09023  0.00000 -0.18046
       4     O     4.14092  4.14092  0.00000 -0.28183
       5     C     3.08339  3.08339  0.00000 -0.16677
       6     H     0.44136  0.44136  0.00000  0.11727
       7     H     0.43662  0.43662  0.00000  0.12676
       8     C     3.08867  3.08867  0.00000 -0.17735
       9     H     0.44703  0.44703  0.00000  0.10595
      10     H     0.45015  0.45015  0.00000  0.09969
      11     C     3.14956  3.14956  0.00000 -0.29913
      12     H     0.45401  0.45401  0.00000  0.09199
      13     H     0.45346  0.45346  0.00000  0.09309
      14     H     0.45444  0.45444  0.00000  0.09111
      15     H     0.44737  0.44737  0.00000  0.10526
      16     H     0.45438  0.45438  0.00000  0.09123
      17     C     3.03716  3.03716  0.00000 -0.07432
      18     H     0.45328  0.45328  0.00000  0.09344
      19     H     0.44698  0.44698  0.00000  0.10605
      20     H     0.45336  0.45336  0.00000  0.09329

   Total alpha = 32.00000, Total beta = 32.00000, Total charge =  0.00000

*** Psi4 exiting successfully. Buy a developer a beer!
