  ==> Input File <==

--------------------------------------------------------------------------
set {
	reference rhf
	basis cc-pvtz
}

set_num_threads( 4 )
memory 2 gb

molecule MOL {
0 1

O	 1.847685	 1.294399	 -0.000190
C	 1.704209	 0.119472	 -0.000093
C	 0.380337	 -0.600947	 -0.000234
O	 2.715427	 -0.733672	 0.000025
C	 -0.824290	 0.329213	 -0.000115
H	 0.371455	 -1.255476	 -0.865660
H	 0.371410	 -1.255787	 0.864952
C	 -2.146151	 -0.432825	 -0.000068
H	 -0.773936	 0.979158	 -0.866319
H	 -0.773838	 0.979034	 0.866186
C	 -3.366283	 0.483552	 0.000557
H	 -2.189286	 -1.084450	 -0.869996
H	 -2.188867	 -1.085083	 0.869399
C	 -3.929050	 0.730816	 1.396109
H	 -4.139109	 0.050890	 -0.628491
H	 -3.100653	 1.433462	 -0.454713
H	 -4.236226	 -0.198224	 1.864897
H	 -4.793182	 1.384078	 1.360614
H	 -3.189691	 1.195642	 2.039940
C	 4.020999	 -0.192556	 0.000019
H	 4.182809	 0.412891	 -0.879449
H	 4.692590	 -1.035653	 0.000152
H	 4.182726	 0.413087	 0.879368

	symmetry c1
}
set optking {
	frozen_dihedral = ("
		15 11 8 12
	")
}

ee = optimize('scf')
oeprop('DIPOLE', 'QUADRUPOLE', 'MULLIKEN_CHARGES')
f=open( 'psi4out.xyz', 'w' )
f.write( "23  " )
f.write( str(ee) + "\n" )
f.write( MOL.save_string_xyz() )
f.close()
--------------------------------------------------------------------------

    Molecular point group: c1
  Charge       = 0
  Multiplicity = 1
  Basis Set: CC-PVTZ
  Basis Set:
  @DF-RHF Final Energy:  -423.12697548477780
    Total Energy =                       -423.1269754847772901
    Molecular point group: c1
  Basis Set: CC-PVTZ
  Basis Set:
  Basis Set: CC-PVTZ
  Basis Set:
  @DF-RHF Final Energy:  -423.12722155309194
    Total Energy =                       -423.1272215530917720
  Basis Set: CC-PVTZ
  Basis Set:
  Basis Set: CC-PVTZ
  Basis Set:
  @DF-RHF Final Energy:  -423.12730603005446
    Total Energy =                       -423.1273060300540010
  Basis Set: CC-PVTZ
  Basis Set:
  Basis Set: CC-PVTZ
  Basis Set:
  @DF-RHF Final Energy:  -423.12721426552628
    Total Energy =                       -423.1272142655259358
  Basis Set: CC-PVTZ
  Basis Set:
  Basis Set: CC-PVTZ
  Basis Set:
  @DF-RHF Final Energy:  -423.12730862297911
    Total Energy =                       -423.1273086229788305
  Basis Set: CC-PVTZ
  Basis Set:
  Charge       = 0
  Multiplicity = 1
  Basis Set: CC-PVTZ
  Basis Set:

    Orbital Energies (a.u.)
    -----------------------

    Doubly Occupied:

       1A    -20.596364     2A    -20.534193     3A    -11.364650
       4A    -11.278516     5A    -11.233720     6A    -11.217563
       7A    -11.215616     8A    -11.214320     9A    -11.207613
      10A     -1.472262    11A     -1.365840    12A     -1.093808
      13A     -1.043297    14A     -0.987125    15A     -0.932161
      16A     -0.850474    17A     -0.791193    18A     -0.769686
      19A     -0.698988    20A     -0.686576    21A     -0.676015
      22A     -0.643274    23A     -0.615886    24A     -0.598389
      25A     -0.585892    26A     -0.564328    27A     -0.536845
      28A     -0.530839    29A     -0.523144    30A     -0.506408
      31A     -0.495340    32A     -0.467852    33A     -0.463185
      34A     -0.461631    35A     -0.456054    36A     -0.438462

  @DF-RHF Final Energy:  -423.12730876155285

   => Energetics <=

    Nuclear Repulsion Energy =            456.0378424604058409
    One-Electron Energy =               -1480.0952835475500251
    Two-Electron Energy =                 600.9301323255913303
    DFT Exchange-Correlation Energy =       0.0000000000000000
    Empirical Dispersion Energy =           0.0000000000000000
    PCM Polarization Energy =               0.0000000000000000
    EFP Energy =                            0.0000000000000000
    Total Energy =                       -423.1273087615527402
    Molecular point group: c1
  Basis Set: CC-PVTZ
  Basis Set:

  -Total Gradient:
     Atom            X                  Y                   Z
    ------   -----------------  -----------------  -----------------
       1       -0.000005505660    -0.000004805258    -0.000007241817
       2       -0.000002642792     0.000010779145     0.000003390109
       3       -0.000000639004    -0.000003049579     0.000027806524
       4        0.000012335018    -0.000008113611     0.000006229811
       5        0.000003500606     0.000011468306    -0.000028044647
       6        0.000000577071     0.000005309013    -0.000007324344
       7        0.000003207287    -0.000003088824    -0.000010460106
       8        0.002295542713     0.003280277722    -0.002854233881
       9       -0.000003783881    -0.000004859539     0.000004913875
      10       -0.000008970030    -0.000004271771    -0.000000587349
      11       -0.001812242685    -0.002665440707     0.003724053040
      12       -0.001633932990    -0.002316755219     0.001800085908
      13       -0.000000097459     0.000003807632    -0.000000727933
      14       -0.000004921212     0.000002553320     0.000020248323
      15        0.001153137597     0.001704499825    -0.002663447884
      16        0.000002138613    -0.000003317914     0.000007214219
      17        0.000005038007     0.000003566575    -0.000008086700
      18        0.000002570334    -0.000001930478    -0.000002146817
      19       -0.000003597855    -0.000004036784    -0.000009524347
      20       -0.000000292537    -0.000001441870    -0.000001969239
      21       -0.000000491643    -0.000000524699     0.000000682346
      22       -0.000000068802     0.000000057306    -0.000000038820
      23       -0.000000860694    -0.000000682594    -0.000000790270

  **** Optimization is complete! (in 6 steps) ****
    Final optimized geometry and variables:
    Molecular point group: c1

    Geometry (in Angstrom), charge = 0, multiplicity = 1:

    O            1.756622894290     1.179403210167    -0.174436498906
    C            1.614658239557     0.004328797054    -0.160939402650
    C            0.291694912984    -0.717655549413    -0.162427624273
    O            2.626954455841    -0.847323584160    -0.141620649620
    C           -0.913473346750     0.211028669656    -0.190131706791
    H            0.291624568905    -1.386510388703    -1.016941510244
    H            0.274893274894    -1.357935471503     0.713420094223
    C           -2.234778013464    -0.552380093029    -0.201314352756
    H           -0.853207790564     0.849409383575    -1.063956949061
    H           -0.874023123946     0.872341575076     0.667971823687
    C           -3.471977777239     0.357747730055    -0.151140853536
    H           -2.285195751249    -1.194446673369    -1.075682717013
    H           -2.262193186417    -1.231013292659     0.648592583532
    C           -3.988128742361     0.617483087293     1.260319103374
    H           -4.262284105126    -0.064853784099    -0.762171162249
    H           -3.229632973870     1.307567310242    -0.619869838051
    H           -4.315381617615    -0.303560899442     1.730806063977
    H           -4.828771178470     1.301730929926     1.250643741018
    H           -3.217666257940     1.052649341145     1.887887830972
    C            3.931736610107    -0.304498337302    -0.137135448047
    H            4.100374057317     0.290319590150    -1.022566643070
    H            4.604407825474    -1.146594933658    -0.120909417591
    H            4.085267874719     0.312128286713     0.736042251303

  Mulliken Charges: (a.u.)
   Center  Symbol    Alpha    Beta     Spin     Total
       1     O     4.19706  4.19706  0.00000 -0.39412
       2     C     2.80611  2.80611  0.00000  0.38777
       3     C     3.10269  3.10269  0.00000 -0.20539
       4     O     4.14645  4.14645  0.00000 -0.29291
       5     C     3.08369  3.08369  0.00000 -0.16738
       6     H     0.43972  0.43972  0.00000  0.12056
       7     H     0.43958  0.43958  0.00000  0.12084
       8     C     3.09816  3.09816  0.00000 -0.19633
       9     H     0.44594  0.44594  0.00000  0.10812
      10     H     0.44557  0.44557  0.00000  0.10887
      11     C     3.09100  3.09100  0.00000 -0.18199
      12     H     0.44791  0.44791  0.00000  0.10417
      13     H     0.45734  0.45734  0.00000  0.08533
      14     C     3.14733  3.14733  0.00000 -0.29465
      15     H     0.44769  0.44769  0.00000  0.10461
      16     H     0.45410  0.45410  0.00000  0.09180
      17     H     0.45553  0.45553  0.00000  0.08894
      18     H     0.44816  0.44816  0.00000  0.10367
      19     H     0.45420  0.45420  0.00000  0.09161
      20     C     3.03774  3.03774  0.00000 -0.07547
      21     H     0.45434  0.45434  0.00000  0.09131
      22     H     0.44533  0.44533  0.00000  0.10934
      23     H     0.45435  0.45435  0.00000  0.09130

   Total alpha = 36.00000, Total beta = 36.00000, Total charge = -0.00000
