  ==> Input File <==

--------------------------------------------------------------------------
set {
	reference rhf
	basis 6-31G*
}

set_num_threads( 4 )
memory 2 gb

molecule MOL {
0 1

O	 -2.806376	 1.288647	 -0.335232
C	 -2.660508	 0.118854	 -0.177367
C	 -3.794422	 -0.873683	 -0.157888
O	 -1.481751	 -0.454642	 0.000584
H	 -4.328615	 -0.810143	 -1.098347
H	 -3.443656	 -1.883220	 -0.002209
H	 -4.484701	 -0.597866	 0.630350
C	 -0.334255	 0.388708	 0.000906
C	 0.891947	 -0.504646	 0.000751
H	 -0.365390	 1.025305	 -0.873475
H	 -0.365484	 1.024911	 0.875569
C	 2.191998	 0.301789	 0.000897
H	 0.855148	 -1.151283	 -0.871571
H	 0.855132	 -1.151660	 0.872805
C	 3.441114	 -0.581407	 0.000108
H	 2.215074	 0.954890	 -0.869742
H	 2.215465	 0.953923	 0.872248
C	 4.739576	 0.224112	 -0.001102
H	 3.419457	 -1.233487	 -0.870178
H	 3.420834	 -1.233096	 0.870717
H	 4.804918	 0.861552	 -0.878265
H	 5.606527	 -0.429058	 -0.001824
H	 4.806469	 0.861674	 0.875853

	symmetry c1
}
set optking {
	frozen_dihedral = ("
		2 4 8 10
	")
}

ee = optimize('scf')
oeprop('DIPOLE', 'QUADRUPOLE', 'MULLIKEN_CHARGES')
f=open( 'psi4out.xyz', 'w' )
f.write( "23  " )
f.write( str(ee) + "\n" )
f.write( MOL.save_string_xyz() )
f.close()
--------------------------------------------------------------------------

    Molecular point group: c1
  Charge       = 0
  Multiplicity = 1
  Basis Set: 6-31G*
  Basis Set:
  @DF-RHF Final Energy:  -422.97939096327423
    Total Energy =                       -422.9793909632746818
    Molecular point group: c1
  Basis Set: 6-31G*
  Basis Set:
  Basis Set: 6-31G*
  Basis Set:
  @DF-RHF Final Energy:  -422.97939367913733
    Total Energy =                       -422.9793936791372744
  Basis Set: 6-31G*
  Basis Set:
  Basis Set: 6-31G*
  Basis Set:
  @DF-RHF Final Energy:  -422.97932591273286
    Total Energy =                       -422.9793259127326337
  Basis Set: 6-31G*
  Basis Set:
  Basis Set: 6-31G*
  Basis Set:
  @DF-RHF Final Energy:  -422.97940793928126
    Total Energy =                       -422.9794079392812591
  Basis Set: 6-31G*
  Basis Set:
  Basis Set: 6-31G*
  Basis Set:
  @DF-RHF Final Energy:  -422.97940986876279
    Total Energy =                       -422.9794098687630139
  Basis Set: 6-31G*
  Basis Set:
  Charge       = 0
  Multiplicity = 1
  Basis Set: 6-31G*
  Basis Set:

    Orbital Energies (a.u.)
    -----------------------

    Doubly Occupied:

       1A    -20.602975     2A    -20.540514     3A    -11.374178
       4A    -11.281429     5A    -11.232354     6A    -11.224513
       7A    -11.223886     8A    -11.221750     9A    -11.213005
      10A     -1.467833    11A     -1.360782    12A     -1.094306
      13A     -1.042289    14A     -1.003458    15A     -0.931001
      16A     -0.841878    17A     -0.802726    18A     -0.774451
      19A     -0.692509    20A     -0.684639    21A     -0.667742
      22A     -0.646781    23A     -0.605969    24A     -0.588492
      25A     -0.582340    26A     -0.566917    27A     -0.558578
      28A     -0.537144    29A     -0.523288    30A     -0.505111
      31A     -0.490978    32A     -0.478033    33A     -0.471235
      34A     -0.466253    35A     -0.450744    36A     -0.435190

  @DF-RHF Final Energy:  -422.97940973916764

   => Energetics <=

    Nuclear Repulsion Energy =            449.6170116349570662
    One-Electron Energy =               -1466.8223022041538570
    Two-Electron Energy =                 594.2258808300285864
    DFT Exchange-Correlation Energy =       0.0000000000000000
    Empirical Dispersion Energy =           0.0000000000000000
    PCM Polarization Energy =               0.0000000000000000
    EFP Energy =                            0.0000000000000000
    Total Energy =                       -422.9794097391682044
    Molecular point group: c1
  Basis Set: 6-31G*
  Basis Set:

  -Total Gradient:
     Atom            X                  Y                   Z
    ------   -----------------  -----------------  -----------------
       1        0.000006746634    -0.000005895640     0.000001546817
       2        0.000055426939    -0.000082681492    -0.000692221073
       3       -0.000001013579    -0.000000369970     0.000017079684
       4       -0.000181939562     0.000262267832     0.001076114385
       5        0.000002396196    -0.000004237557    -0.000005680191
       6       -0.000000116518     0.000000568286    -0.000001559788
       7       -0.000002464268     0.000002642031    -0.000006826544
       8        0.000529377662    -0.000740571790    -0.000820561366
       9       -0.000004062015     0.000001074871    -0.000015488768
      10       -0.000410805752     0.000560263782     0.000420856157
      11        0.000008227635     0.000005551048     0.000002571750
      12       -0.000001012641     0.000000617604     0.000008453186
      13        0.000004095562    -0.000012358148     0.000002562116
      14       -0.000005402633     0.000013642194     0.000001848555
      15        0.000000469503     0.000000189742     0.000004110788
      16       -0.000000541373     0.000007375025     0.000011215286
      17        0.000000225332    -0.000007821548     0.000010633406
      18        0.000000177221    -0.000000469698    -0.000019522046
      19       -0.000002903567    -0.000008418337     0.000004487388
      20        0.000003113567     0.000008629861     0.000004560854
      21        0.000002479584     0.000005082696     0.000000484159
      22        0.000000146280     0.000000094473    -0.000005111181
      23       -0.000002620195    -0.000005175264     0.000000446426

  **** Optimization is complete! (in 6 steps) ****
    Final optimized geometry and variables:
    Molecular point group: c1

    Geometry (in Angstrom), charge = 0, multiplicity = 1:

    O           -2.815735719163     1.295302223160    -0.243397369164
    C           -2.665601288151     0.124589528200    -0.096702785458
    C           -3.796707774297    -0.871285280600    -0.082946820905
    O           -1.485171296036    -0.447567454857     0.074449498109
    H           -4.335597834687    -0.798579207068    -1.020053761854
    H           -3.442493657623    -1.881523323650     0.059812303069
    H           -4.483927973313    -0.606223035711     0.711629759535
    C           -0.335964393058     0.393647527245     0.063254238833
    C            0.889666835494    -0.500120460746     0.070780554591
    H           -0.369741816931     1.027848141265    -0.811737513350
    H           -0.366141075037     1.035116743665     0.935179488671
    C            2.190041372093     0.305768590749     0.073409262533
    H            0.855531782866    -1.149119091714    -0.799946221626
    H            0.849530908056    -1.144718519970     0.944420432147
    C            3.438741056792    -0.577973286566     0.076203417941
    H            2.215394426683     0.958247162500    -0.797612025253
    H            2.211781592776     0.958469982146     0.944394227630
    C            4.737534251998     0.227025871369     0.075298503778
    H            3.418043800861    -1.231706630994    -0.792862664154
    H            3.416831654306    -1.227988129972     0.948031930926
    H            4.804273690697     0.863034117091    -0.802793719095
    H            5.604183255449    -0.426528583577     0.076703520247
    H            4.803656652038     0.865974321226     0.951308382391

  Mulliken Charges: (a.u.)
   Center  Symbol    Alpha    Beta     Spin     Total
       1     O     4.28390  4.28390  0.00000 -0.56780
       2     C     2.61534  2.61534  0.00000  0.76932
       3     C     3.28777  3.28777  0.00000 -0.57554
       4     O     4.31278  4.31278  0.00000 -0.62556
       5     H     0.39756  0.39756  0.00000  0.20488
       6     H     0.39987  0.39987  0.00000  0.20027
       7     H     0.39747  0.39747  0.00000  0.20506
       8     C     2.99612  2.99612  0.00000  0.00775
       9     C     3.16467  3.16467  0.00000 -0.32935
      10     H     0.40797  0.40797  0.00000  0.18406
      11     H     0.41280  0.41280  0.00000  0.17440
      12     C     3.16006  3.16006  0.00000 -0.32012
      13     H     0.41446  0.41446  0.00000  0.17108
      14     H     0.41403  0.41403  0.00000  0.17193
      15     C     3.15144  3.15144  0.00000 -0.30287
      16     H     0.42061  0.42061  0.00000  0.15877
      17     H     0.42087  0.42087  0.00000  0.15827
      18     C     3.23987  3.23987  0.00000 -0.47975
      19     H     0.42137  0.42137  0.00000  0.15726
      20     H     0.42138  0.42138  0.00000  0.15723
      21     H     0.42079  0.42079  0.00000  0.15843
      22     H     0.41798  0.41798  0.00000  0.16403
      23     H     0.42087  0.42087  0.00000  0.15825

   Total alpha = 36.00000, Total beta = 36.00000, Total charge =  0.00000
