                              Psi4 1.0.54 Driver

  ==> Input File <==

--------------------------------------------------------------------------
set {
	reference rhf
	basis cc-pvtz
}

set_num_threads( 4 )
memory 2 gb

molecule MOL {
0 1

H	 2.566360	 2.057125	 1.168495
N	 1.746130	 1.493033	 1.100376
C	 1.860978	 0.530248	 0.016256
H	 0.975935	 2.110371	 0.948577
C	 0.644130	 -0.381765	 -0.031064
H	 2.748691	 -0.066859	 0.196078
H	 1.993598	 1.002380	 -0.958146
C	 -0.678115	 0.376691	 0.025731
H	 0.693998	 -0.977147	 -0.936845
H	 0.693309	 -1.082142	 0.800523
C	 -1.900706	 -0.535531	 -0.022488
H	 -0.725296	 1.079516	 -0.802982
H	 -0.715474	 0.974884	 0.933278
C	 -3.220513	 0.226854	 0.028039
H	 -1.865036	 -1.134397	 -0.928236
H	 -1.857948	 -1.236381	 0.806820
H	 -3.309098	 0.911849	 -0.808725
H	 -4.066838	 -0.449485	 -0.008086
H	 -3.301685	 0.809374	 0.939860

	symmetry c1
}
set optking {
	frozen_dihedral = ("
		6 3 5 9
	")
}

ee,wfn = optimize('scf', return_wfn=True)
oeprop( wfn, 'DIPOLE', 'QUADRUPOLE', 'MULLIKEN_CHARGES')
f=open( 'psi4out.xyz', 'w' )
f.write( "19  " )
f.write( str(ee) + "\n" )
f.write( MOL.save_string_xyz() )
f.close()
--------------------------------------------------------------------------

    Molecular point group: c1
  Charge       = 0
  Multiplicity = 1
  Basis Set: CC-PVTZ
  Basis Set:
  @DF-RHF Final Energy:  -251.44500136914309
    Total Energy =                       -251.4450013691429149
    Molecular point group: c1
  Basis Set: CC-PVTZ
  Basis Set:
  Basis Set: CC-PVTZ
  Basis Set:
  @DF-RHF Final Energy:  -251.44563683216393
    Total Energy =                       -251.4456368321640412
  Basis Set: CC-PVTZ
  Basis Set:
  Basis Set: CC-PVTZ
  Basis Set:
  @DF-RHF Final Energy:  -251.44620512904029
    Total Energy =                       -251.4462051290403224
  Basis Set: CC-PVTZ
  Basis Set:
  Basis Set: CC-PVTZ
  Basis Set:
  @DF-RHF Final Energy:  -251.44624814794292
    Total Energy =                       -251.4462481479429243
  Basis Set: CC-PVTZ
  Basis Set:
  Basis Set: CC-PVTZ
  Basis Set:
  @DF-RHF Final Energy:  -251.44625347264352
    Total Energy =                       -251.4462534726434342
  Basis Set: CC-PVTZ
  Basis Set:
  Basis Set: CC-PVTZ
  Basis Set:
  @DF-RHF Final Energy:  -251.44625509451032
    Total Energy =                       -251.4462550945101498
  Basis Set: CC-PVTZ
  Basis Set:
  Charge       = 0
  Multiplicity = 1
  Basis Set: CC-PVTZ
  Basis Set:

    Orbital Energies (a.u.)
    -----------------------

    Doubly Occupied:

       1A    -15.526322     2A    -11.238745     3A    -11.210951
       4A    -11.208561     5A    -11.207414     6A    -11.204768
       7A     -1.178165     8A     -1.071465     9A     -0.997573
      10A     -0.907182    11A     -0.814340    12A     -0.778894
      13A     -0.665132    14A     -0.654329    15A     -0.613556
      16A     -0.586090    17A     -0.561036    18A     -0.551076
      19A     -0.528047    20A     -0.500700    21A     -0.488525
      22A     -0.463038    23A     -0.460607    24A     -0.445103
      25A     -0.383335

  @DF-RHF Final Energy:  -251.44625526141382

   => Energetics <=

    Nuclear Repulsion Energy =            249.9764655142828644
    One-Electron Energy =                -834.3555394874897502
    Two-Electron Energy =                 332.9328187117929474
    DFT Exchange-Correlation Energy =       0.0000000000000000
    Empirical Dispersion Energy =           0.0000000000000000
    PCM Polarization Energy =               0.0000000000000000
    EFP Energy =                            0.0000000000000000
    Total Energy =                       -251.4462552614139668
    Molecular point group: c1
  Basis Set: CC-PVTZ
  Basis Set:

  -Total Gradient:
     Atom            X                  Y                   Z
    ------   -----------------  -----------------  -----------------
       1        0.000003206756    -0.000002234754    -0.000005374138
       2       -0.000006196361    -0.000002361558     0.000018137694
       3       -0.000146916798     0.000083623661    -0.004869579611
       4       -0.000008295162     0.000006606540     0.000000537386
       5        0.002324998867    -0.003098387862     0.002862774367
       6       -0.000229235505     0.000392115985     0.003660388404
       7        0.000001721802    -0.000003404535    -0.000000874796
       8        0.000004495024     0.000015675718    -0.000004539389
       9       -0.001945193642     0.002627633691    -0.001664245523
      10        0.000000715307    -0.000003913792     0.000001541407
      11       -0.000005435943    -0.000008211300     0.000012185445
      12        0.000001999271     0.000001098100     0.000003371775
      13        0.000002123518    -0.000005358987    -0.000007944970
      14        0.000004156588    -0.000002159295    -0.000008195692
      15       -0.000004827514     0.000001938513     0.000004561721
      16       -0.000001654739    -0.000000821698    -0.000001650120
      17       -0.000000630023     0.000000856820     0.000002884438
      18        0.000003111110     0.000002143792    -0.000001998026
      19        0.000001857438    -0.000004839041    -0.000001980372

  **** Optimization is complete! (in 7 steps) ****
    Final optimized geometry and variables:
    Molecular point group: c1

    Geometry (in Angstrom), charge = 0, multiplicity = 1:

    H            2.990630420648     1.613113380355     0.956069423155
    N            2.101629988922     1.166848428288     0.880682794825
    C            2.092797025367     0.222423819497    -0.228988334608
    H            1.423947280586     1.887594218047     0.753178065572
    C            0.861509081402    -0.679114512083    -0.206702116339
    H            2.973189453998    -0.397839464265    -0.107538714800
    H            2.166248863145     0.712175448607    -1.200165996331
    C           -0.467709746404     0.070819629944    -0.129702136790
    H            0.859928804737    -1.263767585028    -1.123186800443
    H            0.935501307441    -1.367754880006     0.628229411753
    C           -1.678944582586    -0.852835389001    -0.228275250137
    H           -0.515966428494     0.806184354745    -0.931654226259
    H           -0.522672669071     0.622134138397     0.803191093057
    C           -3.008095691574    -0.110862176751    -0.136442152024
    H           -1.637615843403    -1.402471534349    -1.164707409960
    H           -1.626181597561    -1.595597939465     0.562941023779
    H           -3.105710661394     0.617960669958    -0.934450080801
    H           -3.846108766133    -0.794588067310    -0.209821213378
    H           -3.095664655380     0.419338942808     0.806060504761

  Mulliken Charges: (a.u.)
   Center  Symbol    Alpha    Beta     Spin     Total
       1     H     0.42928  0.42928  0.00000  0.14145
       2     N     3.69215  3.69215  0.00000 -0.38430
       3     C     3.03986  3.03986  0.00000 -0.07972
       4     H     0.42785  0.42785  0.00000  0.14431
       5     C     3.07667  3.07667  0.00000 -0.15334
       6     H     0.45255  0.45255  0.00000  0.09491
       7     H     0.46385  0.46385  0.00000  0.07229
       8     C     3.09720  3.09720  0.00000 -0.19441
       9     H     0.45658  0.45658  0.00000  0.08684
      10     H     0.45350  0.45350  0.00000  0.09301
      11     C     3.08417  3.08417  0.00000 -0.16834
      12     H     0.45673  0.45673  0.00000  0.08653
      13     H     0.45101  0.45101  0.00000  0.09798
      14     C     3.14998  3.14998  0.00000 -0.29997
      15     H     0.45519  0.45519  0.00000  0.08961
      16     H     0.45368  0.45368  0.00000  0.09264
      17     H     0.45609  0.45609  0.00000  0.08782
      18     H     0.44864  0.44864  0.00000  0.10272
      19     H     0.45502  0.45502  0.00000  0.08995

   Total alpha = 25.00000, Total beta = 25.00000, Total charge =  0.00000

*** Psi4 exiting successfully. Buy a developer a beer!
