                              Psi4 1.0.54 Driver

  ==> Input File <==

--------------------------------------------------------------------------
set {
	reference rhf
	basis cc-pvtz
}

set_num_threads( 4 )
memory 2 gb

molecule MOL {
0 1

H	 2.612194	 -1.433240	 1.711391
C	 2.010133	 -1.235231	 0.830993
C	 0.865609	 -0.292631	 1.177510
H	 1.622075	 -2.176136	 0.460819
H	 2.665187	 -0.824171	 0.072925
N	 0.000297	 0.000045	 0.046090
H	 0.270724	 -0.758835	 1.950738
H	 1.262026	 0.627949	 1.614907
C	 -1.359159	 0.315706	 0.454404
C	 0.562979	 1.009567	 -0.836395
C	 -2.416729	 -0.286720	 -0.460525
H	 -1.478729	 1.390261	 0.442008
H	 -1.539692	 0.003361	 1.486761
C	 0.096736	 0.873548	 -2.279501
H	 1.639886	 0.914026	 -0.822169
H	 0.343920	 2.015931	 -0.468760
H	 -2.285276	 0.073129	 -1.473515
H	 -2.371743	 -1.368476	 -0.483209
H	 -3.408658	 -0.007405	 -0.121593
H	 0.372179	 -0.097253	 -2.672673
H	 -0.976762	 0.979094	 -2.375618
H	 0.557284	 1.638302	 -2.895829

	symmetry c1
}
set optking {
	frozen_dihedral = ("
		3 6 9 11
	")
}

ee,wfn = optimize('scf', return_wfn=True)
oeprop( wfn, 'DIPOLE', 'QUADRUPOLE', 'MULLIKEN_CHARGES')
f=open( 'psi4out.xyz', 'w' )
f.write( "22  " )
f.write( str(ee) + "\n" )
f.write( MOL.save_string_xyz() )
f.close()
--------------------------------------------------------------------------

    Molecular point group: c1
  Charge       = 0
  Multiplicity = 1
  Basis Set: CC-PVTZ
  Basis Set:
  @DF-RHF Final Energy:  -290.46880546233473
    Total Energy =                       -290.4688054623347853
    Molecular point group: c1
  Basis Set: CC-PVTZ
  Basis Set:
  Basis Set: CC-PVTZ
  Basis Set:
  @DF-RHF Final Energy:  -290.47112036764764
    Total Energy =                       -290.4711203676475861
  Basis Set: CC-PVTZ
  Basis Set:
  Basis Set: CC-PVTZ
  Basis Set:
  @DF-RHF Final Energy:  -290.47181510336179
    Total Energy =                       -290.4718151033618483
  Basis Set: CC-PVTZ
  Basis Set:
  Basis Set: CC-PVTZ
  Basis Set:
  @DF-RHF Final Energy:  -290.47206122476871
    Total Energy =                       -290.4720612247685949
  Basis Set: CC-PVTZ
  Basis Set:
  @DF-RHF Final Energy:  -290.47223811241486
    Total Energy =                       -290.4722381124149706
  @DF-RHF Final Energy:  -290.47226195995086
    Total Energy =                       -290.4722619599509130
  Basis Set: CC-PVTZ
  Basis Set:
  @DF-RHF Final Energy:  -290.47232400431011
    Total Energy =                       -290.4723240043102237
  Basis Set: CC-PVTZ
  Basis Set:
  Basis Set: CC-PVTZ
  Basis Set:
  @DF-RHF Final Energy:  -290.47233987525465
    Total Energy =                       -290.4723398752547610
  Basis Set: CC-PVTZ
  Basis Set:
  Basis Set: CC-PVTZ
  Basis Set:
  @DF-RHF Final Energy:  -290.47234714348377
    Total Energy =                       -290.4723471434841144
  Basis Set: CC-PVTZ
  Basis Set:
  Charge       = 0
  Multiplicity = 1
  Basis Set: CC-PVTZ
  Basis Set:

    Orbital Energies (a.u.)
    -----------------------

    Doubly Occupied:

       1A    -15.535308     2A    -11.239453     3A    -11.238440
       4A    -11.238057     5A    -11.205433     6A    -11.204474
       7A    -11.200831     8A     -1.224306     9A     -1.027039
      10A     -1.020465    11A     -0.960575    12A     -0.855131
      13A     -0.834605    14A     -0.774372    15A     -0.661356
      16A     -0.636310    17A     -0.616916    18A     -0.600615
      19A     -0.568266    20A     -0.560021    21A     -0.542905
      22A     -0.525720    23A     -0.519257    24A     -0.497067
      25A     -0.490338    26A     -0.478437    27A     -0.464968
      28A     -0.458495    29A     -0.346156

  @DF-RHF Final Energy:  -290.47234882921748

   => Energetics <=

    Nuclear Repulsion Energy =            338.2831002753782741
    One-Electron Energy =               -1062.4602577325586026
    Two-Electron Energy =                 433.7048086279626773
    DFT Exchange-Correlation Energy =       0.0000000000000000
    Empirical Dispersion Energy =           0.0000000000000000
    PCM Polarization Energy =               0.0000000000000000
    EFP Energy =                            0.0000000000000000
    Total Energy =                       -290.4723488292176512
    Molecular point group: c1
  Basis Set: CC-PVTZ
  Basis Set:

  -Total Gradient:
     Atom            X                  Y                   Z
    ------   -----------------  -----------------  -----------------
       1       -0.000002047774     0.000001710747    -0.000011104532
       2       -0.000014627692     0.000010775383     0.000027596182
       3        0.000638723443     0.002328783328    -0.000052231723
       4        0.000001796777     0.000000136646    -0.000002479842
       5       -0.000002986916    -0.000006096998    -0.000008086605
       6       -0.000847659273    -0.002472921951    -0.000543394447
       7        0.000012667101    -0.000025521762     0.000019264079
       8        0.000003846925     0.000005380187    -0.000001782436
       9       -0.000025018441    -0.001679005919     0.002124504932
      10        0.000034208716     0.000088190690    -0.000103629041
      11        0.000142621738     0.001806286953    -0.001465578540
      12        0.000013434547    -0.000032502945    -0.000009125807
      13        0.000027267438     0.000012847446    -0.000008476712
      14        0.000013213816     0.000000350373     0.000096344682
      15       -0.000103673777     0.000034677899    -0.000020175766
      16       -0.000010899937    -0.000083108093    -0.000059463779
      17        0.000023123825    -0.000010492225     0.000031149001
      18       -0.000025342535     0.000022434020    -0.000012287254
      19        0.000013745552    -0.000026721863    -0.000009093805
      20       -0.000002541679     0.000105560247     0.000028366707
      21        0.000126548460    -0.000065285878    -0.000014531976
      22       -0.000016400315    -0.000015476288    -0.000005783316

  **** Optimization is complete! (in 10 steps) ****
    Final optimized geometry and variables:
    Molecular point group: c1

    Geometry (in Angstrom), charge = 0, multiplicity = 1:

    H            2.603390917531    -1.401392957624     2.042567658677
    C            2.124357643443    -1.158989175675     1.100235805869
    C            0.865498478051    -0.341920854434     1.365467825848
    H            1.871541355240    -2.084392696149     0.597082568647
    H            2.852645467035    -0.633243409106     0.497197324448
    N            0.034866121402    -0.127050539905     0.187221735863
    H            0.273821252611    -0.888586350812     2.087390713038
    H            1.137969653352     0.605794408193     1.840523081211
    C           -1.328598651955     0.255503479860     0.545818219294
    C            0.676249666407     0.809680088091    -0.724835161420
    C           -2.406430284231    -0.385176775858    -0.322628548332
    H           -1.442857933251     1.341080970716     0.530128068234
    H           -1.511936849838    -0.046100477226     1.568173789639
    C            0.041734571722     0.932539451310    -2.102961544013
    H            1.695316765115     0.484014742178    -0.868307840922
    H            0.730300293923     1.805262702063    -0.272070323975
    H           -2.332394343527    -0.100550565423    -1.360823128402
    H           -2.334806386288    -1.464976423347    -0.269110271181
    H           -3.388846264119    -0.092325532771     0.034315422372
    H           -0.077524194432    -0.040277441295    -2.563531628539
    H           -0.923194681988     1.419910843681    -2.074125531472
    H            0.685862568670     1.531833623558    -2.736835257532

  Mulliken Charges: (a.u.)
   Center  Symbol    Alpha    Beta     Spin     Total
       1     H     0.45076  0.45076  0.00000  0.09848
       2     C     3.14710  3.14710  0.00000 -0.29419
       3     C     3.03593  3.03593  0.00000 -0.07186
       4     H     0.45025  0.45025  0.00000  0.09950
       5     H     0.45515  0.45515  0.00000  0.08971
       6     N     3.61998  3.61998  0.00000 -0.23996
       7     H     0.45342  0.45342  0.00000  0.09316
       8     H     0.46885  0.46885  0.00000  0.06230
       9     C     3.04735  3.04735  0.00000 -0.09470
      10     C     3.03486  3.03486  0.00000 -0.06972
      11     C     3.13684  3.13684  0.00000 -0.27367
      12     H     0.46182  0.46182  0.00000  0.07635
      13     H     0.45056  0.45056  0.00000  0.09888
      14     C     3.15904  3.15904  0.00000 -0.31808
      15     H     0.45267  0.45267  0.00000  0.09467
      16     H     0.46848  0.46848  0.00000  0.06304
      17     H     0.45239  0.45239  0.00000  0.09521
      18     H     0.45325  0.45325  0.00000  0.09349
      19     H     0.45509  0.45509  0.00000  0.08983
      20     H     0.44854  0.44854  0.00000  0.10291
      21     H     0.45165  0.45165  0.00000  0.09670
      22     H     0.44602  0.44602  0.00000  0.10796

   Total alpha = 29.00000, Total beta = 29.00000, Total charge =  0.00000

*** Psi4 exiting successfully. Buy a developer a beer!
