  ==> Input File <==

--------------------------------------------------------------------------
set {
	reference rhf
	basis 6-31G*
}

set_num_threads( 1 )
memory 2 gb

molecule MOL {
0 1

H	 -3.182143	 -0.091704	 0.625111
C	 -2.776726	 -0.156513	 -0.382648
O	 -1.392607	 -0.295399	 -0.366433
H	 -3.186518	 -1.030837	 -0.869238
H	 -3.084051	 0.730044	 -0.935817
C	 -0.719715	 0.768384	 0.229244
C	 0.719720	 0.768376	 -0.229267
H	 -1.185038	 1.714362	 -0.050570
H	 -0.750528	 0.687237	 1.313896
O	 1.392611	 -0.295398	 0.366430
H	 0.750534	 0.687200	 -1.313918
H	 1.185043	 1.714359	 0.050526
C	 2.706965	 -0.449871	 -0.062409
H	 2.756559	 -0.644779	 -1.131878
H	 3.305899	 0.433456	 0.155466
H	 3.125548	 -1.294566	 0.467107

	symmetry c1
}
set optking {
	frozen_dihedral = ("
		3 6 7 11,
		7 10 13 14
	")
}

ee = energy('scf')
oeprop('DIPOLE', 'QUADRUPOLE', 'MULLIKEN_CHARGES')
f=open( 'psi4out.xyz', 'w' )
f.write( "16  " )
f.write( str(ee) + "\n" )
f.write( MOL.save_string_xyz() )
f.close()
--------------------------------------------------------------------------

    Molecular point group: c1

    Geometry (in Angstrom), charge = 0, multiplicity = 1:

       Center              X                  Y                   Z               Mass
    ------------   -----------------  -----------------  -----------------  -----------------
           H         -3.169888111558    -0.143245749133     0.703313421582     1.007825032070
           C         -2.764471111558    -0.208054749133    -0.304445578418    12.000000000000
           O         -1.380352111558    -0.346940749133    -0.288230578418    15.994914619560
           H         -3.174263111558    -1.082378749133    -0.791035578418     1.007825032070
           H         -3.071796111558     0.678502250867    -0.857614578418     1.007825032070
           C         -0.707460111558     0.716842250867     0.307446421582    12.000000000000
           C          0.731974888442     0.716834250867    -0.151064578418    12.000000000000
           H         -1.172783111558     1.662820250867     0.027632421582     1.007825032070
           H         -0.738273111558     0.635695250867     1.392098421582     1.007825032070
           O          1.404865888442    -0.346939749133     0.444632421582    15.994914619560
           H          0.762788888442     0.635658250867    -1.235715578418     1.007825032070
           H          1.197297888442     1.662817250867     0.128728421582     1.007825032070
           C          2.719219888442    -0.501412749133     0.015793421582    12.000000000000
           H          2.768813888442    -0.696320749133    -1.053675578418     1.007825032070
           H          3.318153888442     0.381914250867     0.233668421582     1.007825032070
           H          3.137802888442    -1.346107749133     0.545309421582     1.007825032070

  Charge       = 0
  Multiplicity = 1
  Basis Set: 6-31G*
  Basis Set:

    Orbital Energies (a.u.)
    -----------------------

    Doubly Occupied:

       1A    -20.553369     2A    -20.553282     3A    -11.268838
       4A    -11.268122     5A    -11.264596     6A    -11.263243
       7A     -1.388261     8A     -1.370789     9A     -1.030621
      10A     -0.936040    11A     -0.893221    12A     -0.823615
      13A     -0.685589    14A     -0.678982    15A     -0.657084
      16A     -0.637388    17A     -0.627963    18A     -0.597486
      19A     -0.554799    20A     -0.531911    21A     -0.507870
      22A     -0.476274    23A     -0.466960    24A     -0.419349
      25A     -0.408952

  @DF-RHF Final Energy:  -306.97634613831860

   => Energetics <=

    Nuclear Repulsion Energy =            258.5646662583969828
    One-Electron Energy =                -931.3527363032075073
    Two-Electron Energy =                 365.8117239064918067
    DFT Exchange-Correlation Energy =       0.0000000000000000
    Empirical Dispersion Energy =           0.0000000000000000
    PCM Polarization Energy =               0.0000000000000000
    EFP Energy =                            0.0000000000000000
    Total Energy =                       -306.9763461383187177

  Mulliken Charges: (a.u.)
   Center  Symbol    Alpha    Beta     Spin     Total
       1     H     0.42935  0.42935  0.00000  0.14131
       2     C     3.08021  3.08021  0.00000 -0.16042
       3     O     4.30015  4.30015  0.00000 -0.60030
       4     H     0.41122  0.41122  0.00000  0.17757
       5     H     0.43124  0.43124  0.00000  0.13753
       6     C     2.99381  2.99381  0.00000  0.01238
       7     C     2.99197  2.99197  0.00000  0.01606
       8     H     0.43312  0.43312  0.00000  0.13376
       9     H     0.42027  0.42027  0.00000  0.15945
      10     O     4.30075  4.30075  0.00000 -0.60150
      11     H     0.42408  0.42408  0.00000  0.15184
      12     H     0.43305  0.43305  0.00000  0.13391
      13     C     3.07942  3.07942  0.00000 -0.15883
      14     H     0.42829  0.42829  0.00000  0.14342
      15     H     0.43199  0.43199  0.00000  0.13603
      16     H     0.41110  0.41110  0.00000  0.17781

   Total alpha = 25.00000, Total beta = 25.00000, Total charge =  0.00000
