  ==> Input File <==

--------------------------------------------------------------------------
set {
	reference rhf
	basis 6-31G*
}

set_num_threads( 1 )
memory 2 gb

molecule MOL {
0 1

O	 2.862325	 1.357334	 0.000267
C	 2.843464	 0.164689	 -0.000222
C	 1.546494	 -0.624492	 -0.000609
C	 4.124123	 -0.644674	 -0.000428
C	 0.291004	 0.242674	 0.000989
H	 1.557904	 -1.283758	 -0.867573
H	 1.558622	 -1.285963	 0.864672
C	 -0.994322	 -0.586602	 0.000262
H	 0.309117	 0.896430	 -0.865270
H	 0.309661	 0.894078	 0.869017
C	 -2.259874	 0.272531	 0.000494
H	 -1.004862	 -1.240012	 -0.870939
H	 -1.005220	 -1.241071	 0.870675
C	 -3.525642	 -0.514274	 0.345143
H	 -2.380021	 0.735754	 -0.977263
H	 -2.139970	 1.088871	 0.710570
C	 -4.785620	 0.350675	 0.343126
H	 -3.647212	 -1.329855	 -0.364696
H	 -3.407340	 -0.976547	 1.322981
H	 -4.950645	 0.800550	 -0.631825
H	 -5.665749	 -0.235005	 0.590216
H	 -4.709579	 1.155673	 1.068619
H	 4.165367	 -1.288615	 -0.874074
H	 4.976217	 0.020734	 -0.001915
H	 4.166763	 -1.286207	 0.874930

	symmetry c1
}
set optking {
	frozen_dihedral = ("
		9 5 8 12,
		15 11 14 18,
		1 2 3 6,
		9 5 3 6
	")
}

ee = energy('scf')
oeprop('DIPOLE', 'QUADRUPOLE', 'MULLIKEN_CHARGES')
f=open( 'psi4out.xyz', 'w' )
f.write( "25  " )
f.write( str(ee) + "\n" )
f.write( MOL.save_string_xyz() )
f.close()
--------------------------------------------------------------------------

    Molecular point group: c1

    Geometry (in Angstrom), charge = 0, multiplicity = 1:

       Center              X                  Y                   Z               Mass
    ------------   -----------------  -----------------  -----------------  -----------------
           O          2.856874163909     1.349325707442    -0.077791781130    15.994914619560
           C          2.838013163909     0.156680707442    -0.078280781130    12.000000000000
           C          1.541043163909    -0.632500292558    -0.078667781130    12.000000000000
           C          4.118672163909    -0.652682292558    -0.078486781130    12.000000000000
           C          0.285553163909     0.234665707442    -0.077069781130    12.000000000000
           H          1.552453163909    -1.291766292558    -0.945631781130     1.007825032070
           H          1.553171163909    -1.293971292558     0.786613218870     1.007825032070
           C         -0.999772836091    -0.594610292558    -0.077796781130    12.000000000000
           H          0.303666163909     0.888421707442    -0.943328781130     1.007825032070
           H          0.304210163909     0.886069707442     0.790958218870     1.007825032070
           C         -2.265324836091     0.264522707442    -0.077564781130    12.000000000000
           H         -1.010312836091    -1.248020292558    -0.948997781130     1.007825032070
           H         -1.010670836091    -1.249079292558     0.792616218870     1.007825032070
           C         -3.531092836091    -0.522282292558     0.267084218870    12.000000000000
           H         -2.385471836091     0.727745707442    -1.055321781130     1.007825032070
           H         -2.145420836091     1.080862707442     0.632511218870     1.007825032070
           C         -4.791070836091     0.342666707442     0.265067218870    12.000000000000
           H         -3.652662836091    -1.337863292558    -0.442754781130     1.007825032070
           H         -3.412790836091    -0.984555292558     1.244922218870     1.007825032070
           H         -4.956095836091     0.792541707442    -0.709883781130     1.007825032070
           H         -5.671199836091    -0.243013292558     0.512157218870     1.007825032070
           H         -4.715029836091     1.147664707442     0.990560218870     1.007825032070
           H          4.159916163909    -1.296623292558    -0.952132781130     1.007825032070
           H          4.970766163909     0.012725707442    -0.079973781130     1.007825032070
           H          4.161312163909    -1.294215292558     0.796871218870     1.007825032070

  Charge       = 0
  Multiplicity = 1
  Basis Set: 6-31G*
  Basis Set:

    Orbital Energies (a.u.)
    -----------------------

    Doubly Occupied:

       1A    -20.550472     2A    -11.326290     3A    -11.231820
       4A    -11.228346     5A    -11.217052     6A    -11.216424
       7A    -11.215395     8A    -11.213308     9A    -11.208221
      10A     -1.395769    11A     -1.093631    12A     -1.056284
      13A     -1.014483    14A     -0.969222    15A     -0.890647
      16A     -0.814303    17A     -0.790776    18A     -0.729941
      19A     -0.661039    20A     -0.651924    21A     -0.632093
      22A     -0.623846    23A     -0.596325    24A     -0.584089
      25A     -0.566329    26A     -0.560326    27A     -0.539862
      28A     -0.526913    29A     -0.512117    30A     -0.489598
      31A     -0.487864    32A     -0.473930    33A     -0.463775
      34A     -0.461440    35A     -0.450464    36A     -0.399405

  @DF-RHF Final Energy:  -387.13580811195499

   => Energetics <=

    Nuclear Repulsion Energy =            438.4694029637619792
    One-Electron Energy =               -1393.5226625570055603
    Two-Electron Energy =                 567.9174514812859798
    DFT Exchange-Correlation Energy =       0.0000000000000000
    Empirical Dispersion Energy =           0.0000000000000000
    PCM Polarization Energy =               0.0000000000000000
    EFP Energy =                            0.0000000000000000
    Total Energy =                       -387.1358081119576582

  Mulliken Charges: (a.u.)
   Center  Symbol    Alpha    Beta     Spin     Total
       1     O     4.26118  4.26118  0.00000 -0.52235
       2     C     2.73570  2.73570  0.00000  0.52860
       3     C     3.21093  3.21093  0.00000 -0.42186
       4     C     3.28663  3.28663  0.00000 -0.57327
       5     C     3.14842  3.14842  0.00000 -0.29684
       6     H     0.41001  0.41001  0.00000  0.17997
       7     H     0.40999  0.40999  0.00000  0.18003
       8     C     3.15416  3.15416  0.00000 -0.30831
       9     H     0.41209  0.41209  0.00000  0.17581
      10     H     0.41207  0.41207  0.00000  0.17586
      11     C     3.15106  3.15106  0.00000 -0.30212
      12     H     0.42418  0.42418  0.00000  0.15164
      13     H     0.42497  0.42497  0.00000  0.15005
      14     C     3.15184  3.15184  0.00000 -0.30367
      15     H     0.42218  0.42218  0.00000  0.15564
      16     H     0.42205  0.42205  0.00000  0.15590
      17     C     3.23943  3.23943  0.00000 -0.47886
      18     H     0.42359  0.42359  0.00000  0.15282
      19     H     0.42334  0.42334  0.00000  0.15332
      20     H     0.42152  0.42152  0.00000  0.15696
      21     H     0.41956  0.41956  0.00000  0.16089
      22     H     0.42121  0.42121  0.00000  0.15758
      23     H     0.40874  0.40874  0.00000  0.18253
      24     H     0.39646  0.39646  0.00000  0.20708
      25     H     0.40870  0.40870  0.00000  0.18261

   Total alpha = 36.00000, Total beta = 36.00000, Total charge = -0.00000
