                              Psi4 1.0.54 Driver

  ==> Input File <==

--------------------------------------------------------------------------
set {
	reference rhf
	basis cc-pvtz
}

set_num_threads( 4 )
memory 2 gb

molecule MOL {
0 1

O	 2.583644	 1.794020	 -0.468346
C	 1.967112	 1.518714	 -1.445180
C	 0.698311	 0.691906	 -1.396554
C	 2.412775	 1.980168	 -2.814366
C	 0.288398	 0.247429	 0.000314
H	 -0.091632	 1.276883	 -1.862236
H	 0.842310	 -0.167329	 -2.047695
C	 -0.993089	 -0.581367	 -0.000217
H	 0.161546	 1.121650	 0.628613
H	 1.096421	 -0.323745	 0.443025
C	 -2.258482	 0.271340	 0.000669
H	 -1.002280	 -1.233920	 -0.870484
H	 -1.002061	 -1.235367	 0.868958
C	 -3.544441	 -0.550271	 -0.000253
H	 -2.250545	 0.925250	 -0.867923
H	 -2.250598	 0.923423	 0.870642
C	 -4.804551	 0.308747	 0.000556
H	 -3.553737	 -1.201524	 -0.870151
H	 -3.553831	 -1.203282	 0.868313
H	 -4.842050	 0.949078	 -0.874436
H	 -5.698404	 -0.304480	 -0.000254
H	 -4.842277	 0.947103	 0.876982
H	 1.638583	 2.582867	 -3.276349
H	 3.320263	 2.557678	 -2.728692
H	 2.583541	 1.125475	 -3.459641

	symmetry c1
}
set optking {
	frozen_dihedral = ("
		9 5 8 12
	")
}

ee,wfn = optimize('scf', return_wfn=True)
oeprop( wfn, 'DIPOLE', 'QUADRUPOLE', 'MULLIKEN_CHARGES')
f=open( 'psi4out.xyz', 'w' )
f.write( "25  " )
f.write( str(ee) + "\n" )
f.write( MOL.save_string_xyz() )
f.close()
--------------------------------------------------------------------------

    Molecular point group: c1
  Charge       = 0
  Multiplicity = 1
  Basis Set: CC-PVTZ
  Basis Set:
  @DF-RHF Final Energy:  -387.27180405997154
    Total Energy =                       -387.2718040599718279
    Molecular point group: c1
  Basis Set: CC-PVTZ
  Basis Set:
  Basis Set: CC-PVTZ
  Basis Set:
  @DF-RHF Final Energy:  -387.27196491992356
    Total Energy =                       -387.2719649199232208
  Basis Set: CC-PVTZ
  Basis Set:
  Basis Set: CC-PVTZ
  Basis Set:
  @DF-RHF Final Energy:  -387.27181751198867
    Total Energy =                       -387.2718175119880470
  Basis Set: CC-PVTZ
  Basis Set:
  Basis Set: CC-PVTZ
  Basis Set:
  @DF-RHF Final Energy:  -387.27200291115793
    Total Energy =                       -387.2720029111577560
  Basis Set: CC-PVTZ
  Basis Set:
  Basis Set: CC-PVTZ
  Basis Set:
  @DF-RHF Final Energy:  -387.27200632060243
    Total Energy =                       -387.2720063206021450
  Basis Set: CC-PVTZ
  Basis Set:
  Charge       = 0
  Multiplicity = 1
  Basis Set: CC-PVTZ
  Basis Set:

    Orbital Energies (a.u.)
    -----------------------

    Doubly Occupied:

       1A    -20.538817     2A    -11.320398     3A    -11.229932
       4A    -11.226553     5A    -11.215430     6A    -11.215041
       7A    -11.214827     8A    -11.213664     9A    -11.208221
      10A     -1.398836    11A     -1.095706    12A     -1.057221
      13A     -1.015404    14A     -0.969266    15A     -0.895888
      16A     -0.816293    17A     -0.789834    18A     -0.733069
      19A     -0.661236    20A     -0.646611    21A     -0.642856
      22A     -0.623243    23A     -0.599162    24A     -0.577231
      25A     -0.571656    26A     -0.567557    27A     -0.542565
      28A     -0.526707    29A     -0.517682    30A     -0.495289
      31A     -0.487998    32A     -0.478787    33A     -0.464636
      34A     -0.460549    35A     -0.447503    36A     -0.402337

  @DF-RHF Final Energy:  -387.27200657834277

   => Energetics <=

    Nuclear Repulsion Energy =            444.5015812514020013
    One-Electron Energy =               -1405.8111607635776181
    Two-Electron Energy =                 574.0375729338323936
    DFT Exchange-Correlation Energy =       0.0000000000000000
    Empirical Dispersion Energy =           0.0000000000000000
    PCM Polarization Energy =               0.0000000000000000
    EFP Energy =                            0.0000000000000000
    Total Energy =                       -387.2720065783431664
    Molecular point group: c1
  Basis Set: CC-PVTZ
  Basis Set:

  -Total Gradient:
     Atom            X                  Y                   Z
    ------   -----------------  -----------------  -----------------
       1        0.000012168584     0.000012540295     0.000016662300
       2       -0.000008399014    -0.000012711620    -0.000006069897
       3       -0.000012591309     0.000008624095     0.000000881955
       4        0.000010909240    -0.000017451277    -0.000004247515
       5        0.000770924008    -0.001173067244     0.002161561012
       6       -0.000000026294    -0.000007951398    -0.000007622961
       7        0.000002262000    -0.000003638543    -0.000003427777
       8        0.001189199510    -0.001920074099     0.001189905116
       9       -0.000843337495     0.001287029474    -0.001973802450
      10       -0.000011357812    -0.000003275989    -0.000014140202
      11        0.000018284126    -0.000005166524    -0.000030558600
      12       -0.001114029358     0.001795834083    -0.001329637860
      13        0.000002159034     0.000011939895    -0.000005318482
      14        0.000012528371    -0.000001415390    -0.000005234624
      15       -0.000001798426     0.000007042720    -0.000006642485
      16        0.000006293931     0.000013028289    -0.000001537897
      17       -0.000007652865    -0.000003082807     0.000022545403
      18        0.000000450391     0.000003700344    -0.000002639463
      19       -0.000008281482    -0.000011656142    -0.000001211838
      20        0.000004432198    -0.000004999341    -0.000003201729
      21       -0.000009659010     0.000001371876     0.000003965730
      22       -0.000003114852     0.000006085740     0.000000976154
      23       -0.000002233132     0.000008363128     0.000000869929
      24       -0.000000766387     0.000002563346     0.000001960711
      25       -0.000006363957     0.000006367092    -0.000004034532

  **** Optimization is complete! (in 6 steps) ****
    Final optimized geometry and variables:
    Molecular point group: c1

    Geometry (in Angstrom), charge = 0, multiplicity = 1:

    O            2.998425136966     1.148725051705     0.193428116209
    C            2.386603520112     0.856990292903    -0.781589781472
    C            1.118961543294     0.028442921949    -0.726483735117
    C            2.837957360525     1.297762930706    -2.155916123064
    C            0.715217404955    -0.409712246491     0.677084535815
    H            0.331977851623     0.609915404318    -1.199536103207
    H            1.265723827182    -0.836085304581    -1.369782233361
    C           -0.590491883528    -1.212724515836     0.703703245262
    H            0.615953408360     0.474314016933     1.295848574333
    H            1.521557285224    -0.993782278333     1.101819071409
    C           -1.850059350443    -0.346498361380     0.705557618204
    H           -0.628615795235    -1.876358676344    -0.156976007740
    H           -0.603204051092    -1.845500864938     1.585058995275
    C           -3.141531717868    -1.159578219628     0.700771535164
    H           -1.846809406796     0.315461354892    -0.156992980312
    H           -1.835910798832     0.297652469228     1.581156926248
    C           -4.396473780306    -0.293288553983     0.723466355586
    H           -3.160924623958    -1.798105495467    -0.178342937240
    H           -3.148410645227    -1.825294409284     1.559516122093
    H           -4.437170191554     0.360007388064    -0.141949712267
    H           -5.293894082028    -0.901224327815     0.720409686249
    H           -4.424081492506     0.332355635448     1.609357344222
    H            2.064233563336     1.890319359380    -2.631617556342
    H            3.743044877356     1.879782792003    -2.074962797616
    H            3.015107101860     0.433309249554    -2.786267839370

  Mulliken Charges: (a.u.)
   Center  Symbol    Alpha    Beta     Spin     Total
       1     O     4.17102  4.17102  0.00000 -0.34203
       2     C     2.86153  2.86153  0.00000  0.27694
       3     C     3.11021  3.11021  0.00000 -0.22041
       4     C     3.15071  3.15071  0.00000 -0.30141
       5     C     3.09330  3.09330  0.00000 -0.18659
       6     H     0.44615  0.44615  0.00000  0.10769
       7     H     0.44535  0.44535  0.00000  0.10930
       8     C     3.10084  3.10084  0.00000 -0.20167
       9     H     0.44616  0.44616  0.00000  0.10768
      10     H     0.44006  0.44006  0.00000  0.11987
      11     C     3.08572  3.08572  0.00000 -0.17144
      12     H     0.45696  0.45696  0.00000  0.08609
      13     H     0.44452  0.44452  0.00000  0.11097
      14     C     3.08489  3.08489  0.00000 -0.16978
      15     H     0.45721  0.45721  0.00000  0.08557
      16     H     0.45264  0.45264  0.00000  0.09472
      17     C     3.14960  3.14960  0.00000 -0.29919
      18     H     0.45477  0.45477  0.00000  0.09046
      19     H     0.45361  0.45361  0.00000  0.09278
      20     H     0.45591  0.45591  0.00000  0.08817
      21     H     0.44816  0.44816  0.00000  0.10368
      22     H     0.45444  0.45444  0.00000  0.09111
      23     H     0.45060  0.45060  0.00000  0.09879
      24     H     0.43535  0.43535  0.00000  0.12929
      25     H     0.45030  0.45030  0.00000  0.09940

   Total alpha = 36.00000, Total beta = 36.00000, Total charge = -0.00000

*** Psi4 exiting successfully. Buy a developer a beer!
