  ==> Input File <==

--------------------------------------------------------------------------
set {
	reference rhf
	basis 6-31G*
}

set_num_threads( 4 )
memory 2 gb

molecule MOL {
0 1

H	 -1.748661	 -2.220942	 -0.005015
C	 -1.343207	 -1.225221	 -0.013879
N	 -0.055091	 -1.100174	 -0.261126
C	 -2.150779	 -0.125890	 0.222726
C	 0.449969	 0.122615	 -0.277109
H	 -3.200618	 -0.238980	 0.422496
N	 -1.660212	 1.097703	 0.209594
C	 -0.371804	 1.219904	 -0.038265
C	 1.928147	 0.267347	 -0.541394
H	 0.029131	 2.217482	 -0.051283
C	 2.425060	 1.699499	 -0.317719
H	 2.460141	 -0.406780	 0.121477
H	 2.146394	 -0.043880	 -1.558095
H	 3.494877	 1.762612	 -0.489490
H	 2.224255	 2.017576	 0.698639
H	 1.934711	 2.393624	 -0.993041

	symmetry c1
}
set optking {
	frozen_dihedral = ("
		12 9 5 3
	")
}

ee = optimize('scf')
oeprop('DIPOLE', 'QUADRUPOLE', 'MULLIKEN_CHARGES')
f=open( 'psi4out.xyz', 'w' )
f.write( "16  " )
f.write( str(ee) + "\n" )
f.write( MOL.save_string_xyz() )
f.close()
--------------------------------------------------------------------------

    Molecular point group: c1
  Charge       = 0
  Multiplicity = 1
  Basis Set: 6-31G*
  Basis Set:
  @DF-RHF Final Energy:  -340.75460154260526
    Total Energy =                       -340.7546015426051440
    Molecular point group: c1
  Basis Set: 6-31G*
  Basis Set:
  Basis Set: 6-31G*
  Basis Set:
  @DF-RHF Final Energy:  -340.75563415499408
    Total Energy =                       -340.7556341549941976
  Basis Set: 6-31G*
  Basis Set:
  Basis Set: 6-31G*
  Basis Set:
  @DF-RHF Final Energy:  -340.75623602120868
    Total Energy =                       -340.7562360212086787
  Basis Set: 6-31G*
  Basis Set:
  Basis Set: 6-31G*
  Basis Set:
  @DF-RHF Final Energy:  -340.75626134175116
    Total Energy =                       -340.7562613417512694
  Basis Set: 6-31G*
  Basis Set:
  Basis Set: 6-31G*
  Basis Set:
  @DF-RHF Final Energy:  -340.75627368868584
    Total Energy =                       -340.7562736886859511
  Basis Set: 6-31G*
  Basis Set:
  Basis Set: 6-31G*
  Basis Set:
  @DF-RHF Final Energy:  -340.75627781017971
    Total Energy =                       -340.7562778101798244
  Basis Set: 6-31G*
  Basis Set:
  Charge       = 0
  Multiplicity = 1
  Basis Set: 6-31G*
  Basis Set:

    Orbital Energies (a.u.)
    -----------------------

    Doubly Occupied:

       1A    -15.585812     2A    -15.580773     3A    -11.281955
       4A    -11.275939     5A    -11.271287     6A    -11.270334
       7A    -11.233556     8A    -11.223480     9A     -1.312408
      10A     -1.220670    11A     -1.085548    12A     -1.015059
      13A     -0.908654    14A     -0.891393    15A     -0.829838
      16A     -0.714556    17A     -0.707083    18A     -0.651851
      19A     -0.630652    20A     -0.610813    21A     -0.567673
      22A     -0.563726    23A     -0.518570    24A     -0.512032
      25A     -0.507440    26A     -0.483329    27A     -0.426563
      28A     -0.394049    29A     -0.344717

  @DF-RHF Final Energy:  -340.75627815554134

   => Energetics <=

    Nuclear Repulsion Energy =            349.2199311084373790
    One-Electron Energy =               -1152.7129011213696685
    Two-Electron Energy =                 462.7366918573910652
    DFT Exchange-Correlation Energy =       0.0000000000000000
    Empirical Dispersion Energy =           0.0000000000000000
    PCM Polarization Energy =               0.0000000000000000
    EFP Energy =                            0.0000000000000000
    Total Energy =                       -340.7562781555412812
    Molecular point group: c1
  Basis Set: 6-31G*
  Basis Set:

  -Total Gradient:
     Atom            X                  Y                   Z
    ------   -----------------  -----------------  -----------------
       1        0.000001132379     0.000002387817    -0.000070985675
       2       -0.000034883397     0.000022755443     0.000163337694
       3        0.000138120556     0.000091995713     0.000102152217
       4        0.000041041290    -0.000132606934     0.000074593975
       5       -0.000077628965    -0.000153176710    -0.000307038767
       6       -0.000013355914    -0.000003076875    -0.000065287074
       7        0.000117479680     0.000072741416     0.000006624759
       8       -0.000096507253     0.000105519847    -0.000111561233
       9        0.000052157908     0.000131730037     0.000217126558
      10       -0.000005589323     0.000008602473     0.000057080617
      11       -0.000026383191     0.000046143909     0.000039478816
      12       -0.000027213152    -0.000156876238    -0.000110291332
      13       -0.000064216165    -0.000022555398     0.000017361611
      14       -0.000032676479    -0.000049457816    -0.000003808137
      15        0.000013602765     0.000017624837     0.000009686587
      16        0.000014919261     0.000018248478    -0.000018470614

  **** Optimization is complete! (in 7 steps) ****
    Final optimized geometry and variables:
    Molecular point group: c1

    Geometry (in Angstrom), charge = 0, multiplicity = 1:

    H           -1.653612483371    -2.516578582485     0.080585251344
    C           -1.276236072322    -1.509705875291     0.092568676947
    N            0.009562685576    -1.345148200020    -0.129547599861
    C           -2.117901188554    -0.435603465622     0.332983145763
    C            0.487125812377    -0.108876990658    -0.118237408855
    H           -3.167748255315    -0.579008167474     0.512992003800
    N           -1.658174411997     0.797381688561     0.348664776921
    C           -0.367231718600     0.961024406339     0.125231069880
    C            1.969482008300     0.030598926061    -0.386944364349
    H           -0.005211975698     1.970885371972     0.142877537016
    C            2.559084971873     1.429899382250    -0.222484770733
    H            2.481984760143    -0.664875040555     0.269709828270
    H            2.153980837521    -0.326560621885    -1.396316021269
    H            3.627151214149     1.402137570766    -0.407976853157
    H            2.409302255033     1.813699249497     0.781796642380
    H            2.125523674763     2.137348613036    -0.922035862714

  Mulliken Charges: (a.u.)
   Center  Symbol    Alpha    Beta     Spin     Total
       1     H     0.39391  0.39391  0.00000  0.21217
       2     C     2.98927  2.98927  0.00000  0.02145
       3     N     3.75372  3.75372  0.00000 -0.50744
       4     C     2.99809  2.99809  0.00000  0.00382
       5     C     2.88271  2.88271  0.00000  0.23457
       6     H     0.39452  0.39452  0.00000  0.21096
       7     N     3.73125  3.73125  0.00000 -0.46249
       8     C     2.99898  2.99898  0.00000  0.00203
       9     C     3.15879  3.15879  0.00000 -0.31757
      10     H     0.39264  0.39264  0.00000  0.21472
      11     C     3.25351  3.25351  0.00000 -0.50702
      12     H     0.40360  0.40360  0.00000  0.19279
      13     H     0.40469  0.40469  0.00000  0.19062
      14     H     0.41166  0.41166  0.00000  0.17669
      15     H     0.41572  0.41572  0.00000  0.16856
      16     H     0.41693  0.41693  0.00000  0.16614

   Total alpha = 29.00000, Total beta = 29.00000, Total charge =  0.00000
