  ==> Input File <==

--------------------------------------------------------------------------
set {
	reference rhf
	basis 6-31G*
}

set_num_threads( 1 )
memory 2 gb

molecule MOL {
0 1

H	 -3.420663	 1.227371	 -1.044276
O	 -3.452007	 0.283848	 -0.965577
C	 -3.181085	 -0.079926	 0.364119
C	 -1.765924	 0.277073	 0.805136
H	 -3.327791	 -1.152017	 0.410903
H	 -3.905698	 0.375695	 1.036898
C	 -0.677594	 -0.417312	 -0.014550
H	 -1.637766	 1.358238	 0.744969
H	 -1.659588	 0.017670	 1.857098
C	 0.737012	 -0.099439	 0.474353
H	 -0.778390	 -0.130214	 -1.056723
H	 -0.838680	 -1.493456	 0.022315
C	 1.820700	 -0.802746	 -0.347270
H	 0.887980	 0.977003	 0.444347
H	 0.833429	 -0.392227	 1.519142
C	 3.251454	 -0.586139	 0.158870
H	 1.754173	 -0.476786	 -1.384102
H	 1.614829	 -1.871113	 -0.352400
C	 3.752456	 0.855366	 0.051796
H	 3.918712	 -1.229579	 -0.409498
H	 3.320835	 -0.916643	 1.193354
H	 3.683012	 1.217427	 -0.970568
H	 4.792284	 0.925688	 0.356180
H	 3.183520	 1.531318	 0.681530

	symmetry c1
}
set optking {
	frozen_dihedral = ("
		20 16 13 17,
		17 13 10 7,
		13 10 7 11,
		1 2 3 5,
		7 4 3 2
	")
}

ee = energy('scf')
oeprop('DIPOLE', 'QUADRUPOLE', 'MULLIKEN_CHARGES')
f=open( 'psi4out.xyz', 'w' )
f.write( "24  " )
f.write( str(ee) + "\n" )
f.write( MOL.save_string_xyz() )
f.close()
--------------------------------------------------------------------------

    Molecular point group: c1

    Geometry (in Angstrom), charge = 0, multiplicity = 1:

       Center              X                  Y                   Z               Mass
    ------------   -----------------  -----------------  -----------------  -----------------
           H         -3.425104582646     1.276709772487    -1.091969331730     1.007825032070
           O         -3.456448582646     0.333186772487    -1.013270331730    15.994914619560
           C         -3.185526582646    -0.030587227513     0.316425668270    12.000000000000
           C         -1.770365582646     0.326411772487     0.757442668270    12.000000000000
           H         -3.332232582646    -1.102678227513     0.363209668270     1.007825032070
           H         -3.910139582646     0.425033772487     0.989204668270     1.007825032070
           C         -0.682035582646    -0.367973227513    -0.062243331730    12.000000000000
           H         -1.642207582646     1.407576772487     0.697275668270     1.007825032070
           H         -1.664029582646     0.067008772487     1.809404668270     1.007825032070
           C          0.732570417354    -0.050100227513     0.426659668270    12.000000000000
           H         -0.782831582646    -0.080875227513    -1.104416331730     1.007825032070
           H         -0.843121582646    -1.444117227513    -0.025378331730     1.007825032070
           C          1.816258417354    -0.753407227513    -0.394963331730    12.000000000000
           H          0.883538417354     1.026341772487     0.396653668270     1.007825032070
           H          0.828987417354    -0.342888227513     1.471448668270     1.007825032070
           C          3.247012417354    -0.536800227513     0.111176668270    12.000000000000
           H          1.749731417354    -0.427447227513    -1.431795331730     1.007825032070
           H          1.610387417354    -1.821774227513    -0.400093331730     1.007825032070
           C          3.748014417354     0.904704772487     0.004102668270    12.000000000000
           H          3.914270417354    -1.180240227513    -0.457191331730     1.007825032070
           H          3.316393417354    -0.867304227513     1.145660668270     1.007825032070
           H          3.678570417354     1.266765772487    -1.018261331730     1.007825032070
           H          4.787842417354     0.975026772487     0.308486668270     1.007825032070
           H          3.179078417354     1.580656772487     0.633836668270     1.007825032070

  Charge       = 0
  Multiplicity = 1
  Basis Set: 6-31G*
  Basis Set:

    Orbital Energies (a.u.)
    -----------------------

    Doubly Occupied:

       1A    -20.553466     2A    -11.267698     3A    -11.217490
       4A    -11.214107     5A    -11.212502     6A    -11.211640
       7A    -11.211272     8A    -11.207411     9A     -1.360064
      10A     -1.088620    11A     -1.048350    12A     -0.985655
      13A     -0.915021    14A     -0.850505    15A     -0.800782
      16A     -0.776300    17A     -0.678986    18A     -0.653700
      19A     -0.625736    20A     -0.619357    21A     -0.597192
      22A     -0.584352    23A     -0.557320    24A     -0.541450
      25A     -0.515065    26A     -0.507974    27A     -0.499726
      28A     -0.473179    29A     -0.467644    30A     -0.459793
      31A     -0.455397    32A     -0.450708    33A     -0.418908

  @DF-RHF Final Energy:  -349.24758831158050

   => Energetics <=

    Nuclear Repulsion Energy =            384.3500601606027089
    One-Electron Energy =               -1235.1403819642973758
    Two-Electron Energy =                 501.5427334921145643
    DFT Exchange-Correlation Energy =       0.0000000000000000
    Empirical Dispersion Energy =           0.0000000000000000
    PCM Polarization Energy =               0.0000000000000000
    EFP Energy =                            0.0000000000000000
    Total Energy =                       -349.2475883115801594

  Mulliken Charges: (a.u.)
   Center  Symbol    Alpha    Beta     Spin     Total
       1     H     0.28340  0.28340  0.00000  0.43320
       2     O     4.36837  4.36837  0.00000 -0.73675
       3     C     2.99617  2.99617  0.00000  0.00766
       4     C     3.16909  3.16909  0.00000 -0.33819
       5     H     0.41629  0.41629  0.00000  0.16742
       6     H     0.42822  0.42822  0.00000  0.14356
       7     C     3.15092  3.15092  0.00000 -0.30184
       8     H     0.42820  0.42820  0.00000  0.14361
       9     H     0.42244  0.42244  0.00000  0.15512
      10     C     3.15369  3.15369  0.00000 -0.30737
      11     H     0.41288  0.41288  0.00000  0.17424
      12     H     0.42348  0.42348  0.00000  0.15305
      13     C     3.15224  3.15224  0.00000 -0.30448
      14     H     0.42293  0.42293  0.00000  0.15415
      15     H     0.42541  0.42541  0.00000  0.14918
      16     C     3.15231  3.15231  0.00000 -0.30463
      17     H     0.42369  0.42369  0.00000  0.15262
      18     H     0.42201  0.42201  0.00000  0.15597
      19     C     3.24104  3.24104  0.00000 -0.48208
      20     H     0.42105  0.42105  0.00000  0.15790
      21     H     0.42377  0.42377  0.00000  0.15246
      22     H     0.42231  0.42231  0.00000  0.15538
      23     H     0.41953  0.41953  0.00000  0.16094
      24     H     0.42056  0.42056  0.00000  0.15889

   Total alpha = 33.00000, Total beta = 33.00000, Total charge = -0.00000
