                              Psi4 1.0.54 Driver

  ==> Input File <==

--------------------------------------------------------------------------
set {
	reference rhf
	basis cc-pvtz
}

set_num_threads( 4 )
memory 2 gb

molecule MOL {
0 1

H	 -3.456139	 -0.529964	 -0.727103
O	 -3.107740	 -0.196887	 0.080383
C	 -1.773395	 -0.074491	 0.022605
C	 -1.049772	 -0.412799	 -1.114213
C	 -1.125498	 0.407167	 1.147957
H	 -1.559532	 -0.785811	 -1.983370
C	 0.317208	 -0.267792	 -1.119816
H	 -1.702282	 0.662206	 2.014153
C	 0.243860	 0.546474	 1.126084
H	 0.886896	 -0.525275	 -1.990602
C	 0.981121	 0.213562	 0.000000
H	 0.747541	 0.920057	 1.998586
C	 2.447402	 0.371303	 0.000000
O	 3.227427	 -0.521847	 0.000000
H	 2.796538	 1.409525	 0.000000

	symmetry c1
}
set optking {
	frozen_dihedral = ("
		7 11 13 14
	")
}

ee,wfn = optimize('scf', return_wfn=True)
oeprop( wfn, 'DIPOLE', 'QUADRUPOLE', 'MULLIKEN_CHARGES')
f=open( 'psi4out.xyz', 'w' )
f.write( "15  " )
f.write( str(ee) + "\n" )
f.write( MOL.save_string_xyz() )
f.close()
--------------------------------------------------------------------------

    Molecular point group: c1
  Charge       = 0
  Multiplicity = 1
  Basis Set: CC-PVTZ
  Basis Set:
  @DF-RHF Final Energy:  -418.42848866698296
    Total Energy =                       -418.4284886669831849
    Molecular point group: c1
  Basis Set: CC-PVTZ
  Basis Set:
  Basis Set: CC-PVTZ
  Basis Set:
  @DF-RHF Final Energy:  -418.42854185774263
    Total Energy =                       -418.4285418577427436
  Basis Set: CC-PVTZ
  Basis Set:
  Basis Set: CC-PVTZ
  Basis Set:
  @DF-RHF Final Energy:  -418.42928717913770
    Total Energy =                       -418.4292871791371908
  Basis Set: CC-PVTZ
  Basis Set:
  Basis Set: CC-PVTZ
  Basis Set:
  @DF-RHF Final Energy:  -418.42942530508174
    Total Energy =                       -418.4294253050819634
  Basis Set: CC-PVTZ
  Basis Set:
  Basis Set: CC-PVTZ
  Basis Set:
  @DF-RHF Final Energy:  -418.42942830282800
    Total Energy =                       -418.4294283028281143
  Basis Set: CC-PVTZ
  Basis Set:
  Basis Set: CC-PVTZ
  Basis Set:
  @DF-RHF Final Energy:  -418.42942934888544
    Total Energy =                       -418.4294293488858330
  Basis Set: CC-PVTZ
  Basis Set:
  Charge       = 0
  Multiplicity = 1
  Basis Set: CC-PVTZ
  Basis Set:

    Orbital Energies (a.u.)
    -----------------------

    Doubly Occupied:

       1A    -20.597792     2A    -20.559253     3A    -11.329477
       4A    -11.313168     5A    -11.252989     6A    -11.252620
       7A    -11.241789     8A    -11.240371     9A    -11.236040
      10A     -1.429710    11A     -1.413392    12A     -1.173258
      13A     -1.041792    14A     -1.039871    15A     -0.889999
      16A     -0.865960    17A     -0.801608    18A     -0.757513
      19A     -0.713970    20A     -0.676387    21A     -0.658592
      22A     -0.631354    23A     -0.608976    24A     -0.608098
      25A     -0.594171    26A     -0.565676    27A     -0.536469
      28A     -0.506178    29A     -0.497377    30A     -0.425111
      31A     -0.359189    32A     -0.328845

  @DF-RHF Final Energy:  -418.42942952760370

   => Energetics <=

    Nuclear Repulsion Energy =            401.1232966226224335
    One-Electron Energy =               -1364.8114532151651019
    Two-Electron Energy =                 545.2587270649386255
    DFT Exchange-Correlation Energy =       0.0000000000000000
    Empirical Dispersion Energy =           0.0000000000000000
    PCM Polarization Energy =               0.0000000000000000
    EFP Energy =                            0.0000000000000000
    Total Energy =                       -418.4294295276040430
    Molecular point group: c1
  Basis Set: CC-PVTZ
  Basis Set:

  -Total Gradient:
     Atom            X                  Y                   Z
    ------   -----------------  -----------------  -----------------
       1        0.000006680496     0.000003472385    -0.000000156792
       2       -0.000011624057     0.000007472126     0.000007322675
       3        0.000020143396    -0.000023198874     0.000003870220
       4       -0.000002894102    -0.000002313831    -0.000005797239
       5       -0.000014235525     0.000023813407    -0.000014315196
       6        0.000003266956     0.000003027145    -0.000001720315
       7       -0.000741899838     0.004996213015    -0.001569580774
       8        0.000007522119     0.000004497812     0.000003449096
       9        0.000001904272    -0.000054376499     0.000003151586
      10       -0.000000368815    -0.000006365173    -0.000001227939
      11        0.001163292321    -0.007464938136     0.005206883153
      12       -0.000004568182     0.000003359994     0.000005068182
      13       -0.000546029263     0.002846948211    -0.010086251688
      14        0.000127542930    -0.000324037377     0.006446050492
      15       -0.000008732706    -0.000013574204     0.000003254536

  **** Optimization is complete! (in 7 steps) ****
    Final optimized geometry and variables:
    Molecular point group: c1

    Geometry (in Angstrom), charge = 0, multiplicity = 1:

    H           -3.474411744596    -0.515732782467    -0.727084519720
    O           -3.123301277752    -0.182603457979     0.079039293746
    C           -1.783738321726    -0.071480269409     0.016618246482
    C           -1.062729518774    -0.397141498126    -1.116707954622
    C           -1.127797163159     0.398884961743     1.143498843534
    H           -1.569399726351    -0.749769183869    -1.996270010445
    C            0.313361347251    -0.268931002804    -1.116165040077
    H           -1.700820447046     0.653946173566     2.012637130216
    C            0.240451866550     0.540934170517     1.124230900415
    H            0.868124980434    -0.533057771838    -1.996171800635
    C            0.979386892405     0.179760143547     0.006895220920
    H            0.738349177869     0.924895731566     1.995558090610
    C            2.458470257495     0.392815768664    -0.014148550495
    O            3.258528606079    -0.475239228897    -0.072430161383
    H            2.784759286883     1.434244443462     0.079899580205

  Mulliken Charges: (a.u.)
   Center  Symbol    Alpha    Beta     Spin     Total
       1     H     0.38636  0.38636  0.00000  0.22728
       2     O     4.16997  4.16997  0.00000 -0.33994
       3     C     2.85583  2.85583  0.00000  0.28834
       4     C     3.12391  3.12391  0.00000 -0.24782
       5     C     3.09902  3.09902  0.00000 -0.19803
       6     H     0.43212  0.43212  0.00000  0.13576
       7     C     3.08918  3.08918  0.00000 -0.17836
       8     H     0.41684  0.41684  0.00000  0.16633
       9     C     3.07806  3.07806  0.00000 -0.15613
      10     H     0.41692  0.41692  0.00000  0.16615
      11     C     2.95828  2.95828  0.00000  0.08343
      12     H     0.42257  0.42257  0.00000  0.15486
      13     C     2.93070  2.93070  0.00000  0.13859
      14     O     4.15995  4.15995  0.00000 -0.31990
      15     H     0.46029  0.46029  0.00000  0.07943

   Total alpha = 32.00000, Total beta = 32.00000, Total charge = -0.00000

*** Psi4 exiting successfully. Buy a developer a beer!
