                              Psi4 1.0.54 Driver

  ==> Input File <==

--------------------------------------------------------------------------
set {
	reference rhf
	basis cc-pvtz
}

set_num_threads( 4 )
memory 2 gb

molecule MOL {
0 1

H	 -3.378112	 -0.892508	 -0.524130
O	 -3.515113	 -0.019339	 -0.206321
C	 -2.302264	 0.528872	 0.237390
C	 -1.175688	 -0.398187	 -0.171891
H	 -2.148018	 1.514076	 -0.197759
H	 -2.310727	 0.646384	 1.319032
C	 0.196029	 0.106276	 0.266738
H	 -1.201873	 -0.515469	 -1.250677
H	 -1.365975	 -1.378728	 0.252664
C	 1.330220	 -0.826136	 -0.155230
H	 0.359542	 1.097229	 -0.145561
H	 0.212134	 0.218135	 1.348778
C	 2.719700	 -0.407669	 0.328325
H	 1.339388	 -0.911200	 -1.239363
H	 1.119001	 -1.821953	 0.224128
C	 3.241564	 0.893452	 -0.276737
H	 3.418299	 -1.204729	 0.093035
H	 2.711776	 -0.323368	 1.411960
H	 3.254204	 0.841071	 -1.360784
H	 2.634460	 1.745075	 0.005842
H	 4.254264	 1.092401	 0.054971

	symmetry c1
}
set optking {
	frozen_dihedral = ("
		1 2 3 5
	")
}

ee,wfn = optimize('scf', return_wfn=True)
oeprop( wfn, 'DIPOLE', 'QUADRUPOLE', 'MULLIKEN_CHARGES')
f=open( 'psi4out.xyz', 'w' )
f.write( "21  " )
f.write( str(ee) + "\n" )
f.write( MOL.save_string_xyz() )
f.close()
--------------------------------------------------------------------------

    Molecular point group: c1
  Charge       = 0
  Multiplicity = 1
  Basis Set: CC-PVTZ
  Basis Set:
  @DF-RHF Final Energy:  -310.32934535081046
    Total Energy =                       -310.3293453508106836
    Molecular point group: c1
  Basis Set: CC-PVTZ
  Basis Set:
  Basis Set: CC-PVTZ
  Basis Set:
  @DF-RHF Final Energy:  -310.13819012971720
    Total Energy =                       -310.1381901297173158
  Basis Set: CC-PVTZ
  Basis Set:
  Basis Set: CC-PVTZ
  Basis Set:
  @DF-RHF Final Energy:  -310.26241670704849
    Total Energy =                       -310.2624167070486010
  Basis Set: CC-PVTZ
  Basis Set:
  Basis Set: CC-PVTZ
  Basis Set:
  @DF-RHF Final Energy:  -310.32582196910488
    Total Energy =                       -310.3258219691051636
  Basis Set: CC-PVTZ
  Basis Set:
  @DF-RHF Final Energy:  -310.32998707052440
    Total Energy =                       -310.3299870705241119
  Basis Set: CC-PVTZ
  Basis Set:
  @DF-RHF Final Energy:  -310.33077540783228
    Total Energy =                       -310.3307754078325047
  Basis Set: CC-PVTZ
  Basis Set:
  Basis Set: CC-PVTZ
  Basis Set:
  @DF-RHF Final Energy:  -310.33083324506066
    Total Energy =                       -310.3308332450603757
  Basis Set: CC-PVTZ
  Basis Set:
  Basis Set: CC-PVTZ
  Basis Set:
  @DF-RHF Final Energy:  -310.33083557664099
    Total Energy =                       -310.3308355766408226
  Basis Set: CC-PVTZ
  Basis Set:
  Charge       = 0
  Multiplicity = 1
  Basis Set: CC-PVTZ
  Basis Set:

    Orbital Energies (a.u.)
    -----------------------

    Doubly Occupied:

       1A    -20.542460     2A    -11.264081     3A    -11.221510
       4A    -11.219797     5A    -11.217467     6A    -11.216861
       7A    -11.209228     8A     -1.360954     9A     -1.093208
      10A     -1.038419    11A     -0.957679    12A     -0.882110
      13A     -0.826669    14A     -0.783900    15A     -0.669347
      16A     -0.664589    17A     -0.626566    18A     -0.620661
      19A     -0.594216    20A     -0.578143    21A     -0.546441
      22A     -0.532442    23A     -0.508879    24A     -0.496415
      25A     -0.488260    26A     -0.466750    27A     -0.461325
      28A     -0.443667    29A     -0.434639

  @DF-RHF Final Energy:  -310.33083534269127

   => Energetics <=

    Nuclear Repulsion Energy =            312.9453722683094270
    One-Electron Energy =               -1040.6190479817732921
    Two-Electron Energy =                 417.3428403707726488
    DFT Exchange-Correlation Energy =       0.0000000000000000
    Empirical Dispersion Energy =           0.0000000000000000
    PCM Polarization Energy =               0.0000000000000000
    EFP Energy =                            0.0000000000000000
    Total Energy =                       -310.3308353426911594
    Molecular point group: c1
  Basis Set: CC-PVTZ
  Basis Set:

  -Total Gradient:
     Atom            X                  Y                   Z
    ------   -----------------  -----------------  -----------------
       1        0.000004486162     0.000646429166    -0.000486241688
       2        0.000054349492    -0.000757028387     0.000472113859
       3       -0.000336643593     0.000067717991     0.000640059881
       4       -0.000014877389    -0.000002917431     0.000010521760
       5        0.000260793671     0.000021337781    -0.000630813012
       6        0.000003263386     0.000010563696    -0.000009887848
       7       -0.000017345369    -0.000013143738    -0.000017141259
       8       -0.000011215162    -0.000005884986     0.000009678277
       9       -0.000000838837     0.000014464639    -0.000004897848
      10        0.000000569159     0.000031053901     0.000015653116
      11       -0.000019575488    -0.000054861952    -0.000016764671
      12        0.000018904813     0.000015304936     0.000001571275
      13       -0.000006313760     0.000019905751     0.000025072910
      14       -0.000012198256     0.000009818181     0.000009153380
      15       -0.000002268742     0.000018574185    -0.000015293886
      16        0.000016139981    -0.000019961299    -0.000005166854
      17        0.000027625820    -0.000010504046     0.000010605920
      18       -0.000001586225     0.000014767238     0.000002946784
      19       -0.000003639752     0.000002512390     0.000002579016
      20        0.000040746837    -0.000004392808    -0.000002876654
      21       -0.000000376745    -0.000003755205    -0.000010872460

  **** Optimization is complete! (in 9 steps) ****
    Final optimized geometry and variables:
    Molecular point group: c1

    Geometry (in Angstrom), charge = 0, multiplicity = 1:

    H           -3.358373940107    -1.143786856343    -0.789308597834
    O           -3.531783647793    -0.543435627325    -0.089086281713
    C           -2.329034204519    -0.080214644510     0.469288982717
    C           -1.103050734610    -0.496382697604    -0.325852045160
    H           -2.382180679448     1.001983946479     0.516842308186
    H           -2.250334348845    -0.449078945345     1.487507477677
    C            0.201176137075     0.014829466831     0.279697128180
    H           -1.202941523626    -0.126593219922    -1.343634990356
    H           -1.073612387178    -1.582632933783    -0.385894214349
    C            1.431856560210    -0.402841246574    -0.523161439845
    H            0.154869761097     1.096407441161     0.352567431417
    H            0.295076724721    -0.357991338713     1.296698061257
    C            2.769599092542     0.013890492400     0.090470709319
    H            1.358343076278     0.002881300147    -1.529512733610
    H            1.424921465588    -1.483915876448    -0.631332129964
    C            3.013086735444     1.520595584094     0.128246548051
    H            3.567080184391    -0.452660012579    -0.479508073112
    H            2.842734458232    -0.388618214798     1.097330048758
    H            2.937160828248     1.952319841489    -0.864628642020
    H            2.302099442931     2.031452530512     0.766236516915
    H            4.004683731636     1.739522835657     0.507281369670

  Mulliken Charges: (a.u.)
   Center  Symbol    Alpha    Beta     Spin     Total
       1     H     0.39183  0.39183  0.00000  0.21635
       2     O     4.20618  4.20618  0.00000 -0.41236
       3     C     2.94713  2.94713  0.00000  0.10575
       4     C     3.10381  3.10381  0.00000 -0.20762
       5     H     0.46816  0.46816  0.00000  0.06368
       6     H     0.47193  0.47193  0.00000  0.05613
       7     C     3.10220  3.10220  0.00000 -0.20439
       8     H     0.45247  0.45247  0.00000  0.09505
       9     H     0.45656  0.45656  0.00000  0.08687
      10     C     3.09542  3.09542  0.00000 -0.19084
      11     H     0.45023  0.45023  0.00000  0.09954
      12     H     0.45250  0.45250  0.00000  0.09500
      13     C     3.09049  3.09049  0.00000 -0.18097
      14     H     0.45321  0.45321  0.00000  0.09358
      15     H     0.44916  0.44916  0.00000  0.10169
      16     C     3.15239  3.15239  0.00000 -0.30479
      17     H     0.44807  0.44807  0.00000  0.10385
      18     H     0.45421  0.45421  0.00000  0.09158
      19     H     0.45460  0.45460  0.00000  0.09079
      20     H     0.45360  0.45360  0.00000  0.09281
      21     H     0.44586  0.44586  0.00000  0.10828

   Total alpha = 29.00000, Total beta = 29.00000, Total charge =  0.00000

*** Psi4 exiting successfully. Buy a developer a beer!
