                              Psi4 1.0.54 Driver

  ==> Input File <==

--------------------------------------------------------------------------
set {
	reference rhf
	basis cc-pvtz
}

set_num_threads( 4 )
memory 2 gb

molecule MOL {
0 1

O	 -1.278239	 1.034789	 -0.784693
C	 -1.204115	 0.062668	 -0.112312
C	 -2.386398	 -0.667698	 0.460323
O	 -0.068058	 -0.518372	 0.226882
H	 -2.382952	 -1.693172	 0.114333
H	 -3.296656	 -0.175702	 0.158400
H	 -2.312537	 -0.685191	 1.540100
C	 0.084502	 -1.928486	 0.034256
C	 1.105508	 -2.388034	 1.055763
C	 0.507229	 -2.210710	 -1.396219
H	 -0.869569	 -2.394610	 0.228070
H	 0.769481	 -2.163987	 2.060072
H	 1.255097	 -3.458020	 0.975356
H	 2.057354	 -1.895777	 0.895735
H	 0.635070	 -3.277171	 -1.540497
H	 -0.241927	 -1.863018	 -2.093733
H	 1.448607	 -1.720832	 -1.617827

	symmetry c1
}
set optking {
	frozen_dihedral = ("
		8 4 2 1
	")
}

ee,wfn = optimize('scf', return_wfn=True)
oeprop( wfn, 'DIPOLE', 'QUADRUPOLE', 'MULLIKEN_CHARGES')
f=open( 'psi4out.xyz', 'w' )
f.write( "17  " )
f.write( str(ee) + "\n" )
f.write( MOL.save_string_xyz() )
f.close()
--------------------------------------------------------------------------

    Molecular point group: c1
  Charge       = 0
  Multiplicity = 1
  Basis Set: CC-PVTZ
  Basis Set:
  @DF-RHF Final Energy:  -345.01769085074449
    Total Energy =                       -345.0176908507445432
    Molecular point group: c1
  Basis Set: CC-PVTZ
  Basis Set:
  Basis Set: CC-PVTZ
  Basis Set:
  @DF-RHF Final Energy:  -345.00270495071589
    Total Energy =                       -345.0027049507157244
  Basis Set: CC-PVTZ
  Basis Set:
  Basis Set: CC-PVTZ
  Basis Set:
  @DF-RHF Final Energy:  -344.98490307658136
    Total Energy =                       -344.9849030765813040
  Basis Set: CC-PVTZ
  Basis Set:
  Basis Set: CC-PVTZ
  Basis Set:
  @DF-RHF Final Energy:  -345.02217997495433
    Total Energy =                       -345.0221799749543834
  Basis Set: CC-PVTZ
  Basis Set:
  @DF-RHF Final Energy:  -345.00113032957819
    Total Energy =                       -345.0011303295781318
  @DF-RHF Final Energy:  -345.02353261550110
    Total Energy =                       -345.0235326155009261
  @DF-RHF Final Energy:  -345.01690809017077
    Total Energy =                       -345.0169080901712277
  @DF-RHF Final Energy:  -345.02523778690198
    Total Energy =                       -345.0252377869019256
  @DF-RHF Final Energy:  -345.02571135378241
    Total Energy =                       -345.0257113537828673
  @DF-RHF Final Energy:  -345.02592911700606
    Total Energy =                       -345.0259291170060578
  @DF-RHF Final Energy:  -345.02609637195400
    Total Energy =                       -345.0260963719537131
  Basis Set: CC-PVTZ
  Basis Set:
  @DF-RHF Final Energy:  -345.02611192000620
    Total Energy =                       -345.0261119200059170
  Basis Set: CC-PVTZ
  Basis Set:
  Basis Set: CC-PVTZ
  Basis Set:
  @DF-RHF Final Energy:  -345.02611463108821
    Total Energy =                       -345.0261146310882623
  Basis Set: CC-PVTZ
  Basis Set:
  Basis Set: CC-PVTZ
  Basis Set:
  @DF-RHF Final Energy:  -345.02611623899924
    Total Energy =                       -345.0261162389994070
  Basis Set: CC-PVTZ
  Basis Set:
  Charge       = 0
  Multiplicity = 1
  Basis Set: CC-PVTZ
  Basis Set:

    Orbital Energies (a.u.)
    -----------------------

    Doubly Occupied:

       1A    -20.580176     2A    -20.535003     3A    -11.367869
       4A    -11.301463     5A    -11.237558     6A    -11.224210
       7A    -11.222164     8A     -1.460357     9A     -1.367692
      10A     -1.076281    11A     -1.014770    12A     -0.956659
      13A     -0.857044    14A     -0.769350    15A     -0.697166
      16A     -0.674869    17A     -0.662166    18A     -0.627116
      19A     -0.593497    20A     -0.585753    21A     -0.560956
      22A     -0.555541    23A     -0.544033    24A     -0.529660
      25A     -0.509713    26A     -0.484232    27A     -0.450149
      28A     -0.435835

  @DF-RHF Final Energy:  -345.02611647357020

   => Energetics <=

    Nuclear Repulsion Energy =            323.7677326207831925
    One-Electron Energy =               -1111.8251323339054579
    Two-Electron Energy =                 443.0312832395521241
    DFT Exchange-Correlation Energy =       0.0000000000000000
    Empirical Dispersion Energy =           0.0000000000000000
    PCM Polarization Energy =               0.0000000000000000
    EFP Energy =                            0.0000000000000000
    Total Energy =                       -345.0261164735701982
    Molecular point group: c1
  Basis Set: CC-PVTZ
  Basis Set:

  -Total Gradient:
     Atom            X                  Y                   Z
    ------   -----------------  -----------------  -----------------
       1       -0.000551381426    -0.003156321263    -0.001299154432
       2        0.001516002222     0.003768366315     0.000601297769
       3       -0.000037450136     0.000018270229     0.000011049237
       4       -0.002194037229     0.000746327988     0.002973130016
       5        0.000013386253     0.000012563210    -0.000002992504
       6        0.000016221150    -0.000010980377     0.000009715175
       7        0.000007660441     0.000005352955    -0.000004471385
       8        0.001229949023    -0.001398950691    -0.002309089398
       9        0.000018079266    -0.000011934341     0.000026202662
      10       -0.000008270752     0.000011760078     0.000003280471
      11        0.000012190204     0.000008599058    -0.000011474891
      12        0.000000687268    -0.000000405547    -0.000001034273
      13        0.000004283092     0.000008942241    -0.000001932755
      14       -0.000016374436    -0.000000044030     0.000000415325
      15       -0.000002542928     0.000005540442    -0.000001405774
      16        0.000002375907    -0.000011881396    -0.000003714953
      17       -0.000010777920     0.000004795129     0.000010179704

  **** Optimization is complete! (in 15 steps) ****
    Final optimized geometry and variables:
    Molecular point group: c1

    Geometry (in Angstrom), charge = 0, multiplicity = 1:

    O           -0.228431390038     1.333539834010    -1.731546017259
    C           -0.491422497581     0.933200697675    -0.655781297116
    C           -1.887233360677     0.980865981561    -0.083227806050
    O            0.465455252454     0.440281155165     0.137734358084
    H           -2.336494455047    -0.004599856644    -0.107819062058
    H           -2.483564565132     1.645740587272    -0.686431754403
    H           -1.871544993469     1.318401824940     0.944499822488
    C            0.323668770285    -0.820105320366     0.783347414470
    C            1.441602651004    -0.899752762084     1.803309348449
    C            0.379324677858    -1.943020626598    -0.238997549630
    H           -0.626984455892    -0.849333608377     1.303850428971
    H            1.371464508361    -0.081143847110     2.507542323310
    H            1.383916815712    -1.832848509339     2.350692918515
    H            2.404431537364    -0.845270376168     1.311117225252
    H            0.286712306811    -2.902405146320     0.256200685091
    H           -0.422313858886    -1.861454757704    -0.963574134749
    H            1.319545913141    -1.916107399968    -0.775052093925

  Mulliken Charges: (a.u.)
   Center  Symbol    Alpha    Beta     Spin     Total
       1     O     4.17602  4.17602  0.00000 -0.35203
       2     C     2.81464  2.81464  0.00000  0.37072
       3     C     3.16192  3.16192  0.00000 -0.32384
       4     O     4.15628  4.15628  0.00000 -0.31256
       5     H     0.44835  0.44835  0.00000  0.10330
       6     H     0.42894  0.42894  0.00000  0.14213
       7     H     0.44285  0.44285  0.00000  0.11429
       8     C     2.94883  2.94883  0.00000  0.10234
       9     C     3.13645  3.13645  0.00000 -0.27290
      10     C     3.14318  3.14318  0.00000 -0.28635
      11     H     0.45291  0.45291  0.00000  0.09417
      12     H     0.44551  0.44551  0.00000  0.10898
      13     H     0.45622  0.45622  0.00000  0.08756
      14     H     0.44706  0.44706  0.00000  0.10588
      15     H     0.44845  0.44845  0.00000  0.10309
      16     H     0.44855  0.44855  0.00000  0.10290
      17     H     0.44384  0.44384  0.00000  0.11231

   Total alpha = 28.00000, Total beta = 28.00000, Total charge = -0.00000

*** Psi4 exiting successfully. Buy a developer a beer!
