                              Psi4 1.0.54 Driver

  ==> Input File <==

--------------------------------------------------------------------------
set {
	reference rhf
	basis cc-pvtz
}

set_num_threads( 4 )
memory 2 gb

molecule MOL {
0 1

H	 -2.816458	 -0.841657	 -0.064679
N	 -1.878861	 -0.711874	 0.250184
C	 -1.341419	 0.551458	 -0.220231
H	 -1.333674	 -1.468530	 -0.105118
C	 0.082190	 0.731516	 0.254705
H	 -1.357065	 0.652078	 -1.304747
H	 -1.939897	 1.357530	 0.189797
O	 0.881195	 -0.248324	 -0.336237
H	 0.440901	 1.722476	 -0.020063
H	 0.119896	 0.643586	 1.338114
C	 0.175928	 -1.241389	 -1.003800
H	 0.891791	 -1.938920	 -1.414136
H	 -0.488367	 -1.778659	 -0.330192
H	 -0.417954	 -0.829783	 -1.816479

	symmetry c1
}
set optking {
	frozen_dihedral = ("
		11 8 5 3
	")
}

ee,wfn = optimize('scf', return_wfn=True)
oeprop( wfn, 'DIPOLE', 'QUADRUPOLE', 'MULLIKEN_CHARGES')
f=open( 'psi4out.xyz', 'w' )
f.write( "14  " )
f.write( str(ee) + "\n" )
f.write( MOL.save_string_xyz() )
f.close()
--------------------------------------------------------------------------

    Molecular point group: c1
  Charge       = 0
  Multiplicity = 1
  Basis Set: CC-PVTZ
  Basis Set:
  @DF-RHF Final Energy:  -248.12420422439035
    Total Energy =                       -248.1242042243902119
    Molecular point group: c1
  Basis Set: CC-PVTZ
  Basis Set:
  Basis Set: CC-PVTZ
  Basis Set:
  @DF-RHF Final Energy:  -248.19057083798182
    Total Energy =                       -248.1905708379818520
  Basis Set: CC-PVTZ
  Basis Set:
  Basis Set: CC-PVTZ
  Basis Set:
  @DF-RHF Final Energy:  -248.20266130996509
    Total Energy =                       -248.2026613099651513
  Basis Set: CC-PVTZ
  Basis Set:
  Basis Set: CC-PVTZ
  Basis Set:
  @DF-RHF Final Energy:  -248.18833803382074
    Total Energy =                       -248.1883380338209122
  Basis Set: CC-PVTZ
  Basis Set:
  @DF-RHF Final Energy:  -248.20786349127641
    Total Energy =                       -248.2078634912763846
  @DF-RHF Final Energy:  -248.21006121147630
    Total Energy =                       -248.2100612114765568
  @DF-RHF Final Energy:  -248.21076577361438
    Total Energy =                       -248.2107657736142983
  @DF-RHF Final Energy:  -248.21101567150473
    Total Energy =                       -248.2110156715046401
  @DF-RHF Final Energy:  -248.21109386782422
    Total Energy =                       -248.2110938678240473
  Basis Set: CC-PVTZ
  Basis Set:
  @DF-RHF Final Energy:  -248.21111653026202
    Total Energy =                       -248.2111165302617337
  Basis Set: CC-PVTZ
  Basis Set:
  Basis Set: CC-PVTZ
  Basis Set:
  @DF-RHF Final Energy:  -248.21112338645469
    Total Energy =                       -248.2111233864545738
  Basis Set: CC-PVTZ
  Basis Set:
  Basis Set: CC-PVTZ
  Basis Set:
  @DF-RHF Final Energy:  -248.21112571546152
    Total Energy =                       -248.2111257154617761
  Basis Set: CC-PVTZ
  Basis Set:
  Charge       = 0
  Multiplicity = 1
  Basis Set: CC-PVTZ
  Basis Set:

    Orbital Energies (a.u.)
    -----------------------

    Doubly Occupied:

       1A    -20.541035     2A    -15.535175     3A    -11.263835
       4A    -11.262545     5A    -11.249398     6A     -1.370557
       7A     -1.185183     8A     -1.003733     9A     -0.922561
      10A     -0.805118    11A     -0.689717    12A     -0.675213
      13A     -0.641923    14A     -0.617917    15A     -0.608886
      16A     -0.547306    17A     -0.536290    18A     -0.520124
      19A     -0.454785    20A     -0.407955    21A     -0.392372

  @DF-RHF Final Energy:  -248.21112629267168

   => Energetics <=

    Nuclear Repulsion Energy =            196.9188065279599869
    One-Electron Energy =                -727.7966091650146154
    Two-Electron Energy =                 282.6666763443828927
    DFT Exchange-Correlation Energy =       0.0000000000000000
    Empirical Dispersion Energy =           0.0000000000000000
    PCM Polarization Energy =               0.0000000000000000
    EFP Energy =                            0.0000000000000000
    Total Energy =                       -248.2111262926717359
    Molecular point group: c1
  Basis Set: CC-PVTZ
  Basis Set:

  -Total Gradient:
     Atom            X                  Y                   Z
    ------   -----------------  -----------------  -----------------
       1       -0.000024087243     0.000011322892    -0.000007184695
       2        0.000084575838    -0.000051994812    -0.000057166609
       3       -0.000493101790    -0.001243929113     0.001168953418
       4       -0.000023868276     0.000022648225     0.000017812884
       5        0.000910796377     0.002593161802    -0.002537534903
       6       -0.000001826329    -0.000004735609    -0.000004494692
       7        0.000006628740     0.000003479596     0.000008104210
       8       -0.000676798386    -0.002691947230     0.002842895472
       9       -0.000011514722     0.000008150310    -0.000000994674
      10       -0.000003277230     0.000002540730     0.000008071414
      11        0.000186393200     0.001353885722    -0.001390601865
      12        0.000007035042    -0.000014876274    -0.000020497181
      13        0.000036271418     0.000009673176    -0.000016583306
      14        0.000002773365     0.000002620587    -0.000010779475

  **** Optimization is complete! (in 13 steps) ****
    Final optimized geometry and variables:
    Molecular point group: c1

    Geometry (in Angstrom), charge = 0, multiplicity = 1:

    H           -2.616642003139     0.377290628742     0.822679875767
    N           -1.700974725626    -0.010535035468     0.745729297686
    C           -0.761558035426     0.987679489680     0.260110312763
    H           -1.765763568403    -0.794852562703     0.135297373649
    C            0.695841277049     0.629744760734     0.509990733630
    H           -0.911962908031     1.254953779771    -0.784539730610
    H           -0.931837833861     1.892990947952     0.831554067726
    O            1.300548415697    -0.359391571064    -0.286885569525
    H            1.286455307197     1.528840999444     0.373385089755
    H            0.785535305970     0.325277195284     1.547024330911
    C            0.567503845720    -1.160115004036    -1.151249756164
    H            1.281513554277    -1.696329101016    -1.760249219234
    H           -0.034397313642    -1.893273675657    -0.620365424210
    H           -0.074301931454    -0.589818554207    -1.814855864816

  Mulliken Charges: (a.u.)
   Center  Symbol    Alpha    Beta     Spin     Total
       1     H     0.42744  0.42744  0.00000  0.14512
       2     N     3.68756  3.68756  0.00000 -0.37512
       3     C     3.06613  3.06613  0.00000 -0.13227
       4     H     0.42833  0.42833  0.00000  0.14333
       5     C     2.95561  2.95561  0.00000  0.08877
       6     H     0.45588  0.45588  0.00000  0.08824
       7     H     0.44662  0.44662  0.00000  0.10675
       8     O     4.18309  4.18309  0.00000 -0.36618
       9     H     0.46387  0.46387  0.00000  0.07226
      10     H     0.46489  0.46489  0.00000  0.07023
      11     C     3.03779  3.03779  0.00000 -0.07557
      12     H     0.44106  0.44106  0.00000  0.11788
      13     H     0.47085  0.47085  0.00000  0.05830
      14     H     0.47087  0.47087  0.00000  0.05827

   Total alpha = 21.00000, Total beta = 21.00000, Total charge =  0.00000

*** Psi4 exiting successfully. Buy a developer a beer!
