                              Psi4 1.0.54 Driver

  ==> Input File <==

--------------------------------------------------------------------------
set {
	reference rhf
	basis cc-pvtz
}

set_num_threads( 4 )
memory 2 gb

molecule MOL {
0 1

H	 3.459101	 0.139266	 -0.762951
C	 2.749156	 -0.051729	 0.031265
C	 1.322304	 0.099773	 -0.484271
H	 2.929445	 -1.053887	 0.403481
H	 2.954281	 0.646699	 0.834672
C	 0.308557	 -0.162619	 0.622645
H	 1.143368	 -0.594400	 -1.295960
H	 1.169532	 1.100095	 -0.870217
N	 -1.069352	 -0.004081	 0.085342
H	 0.371632	 -1.172932	 0.991288
H	 0.400391	 0.548875	 1.426218
O	 -1.906696	 0.363061	 0.839423
O	 -1.243348	 -0.283330	 -1.053380

	symmetry c1
}
set optking {
	frozen_dihedral = ("
		12 9 6 3
	")
}

ee,wfn = optimize('scf', return_wfn=True)
oeprop( wfn, 'DIPOLE', 'QUADRUPOLE', 'MULLIKEN_CHARGES')
f=open( 'psi4out.xyz', 'w' )
f.write( "13  " )
f.write( str(ee) + "\n" )
f.write( MOL.save_string_xyz() )
f.close()
--------------------------------------------------------------------------

    Molecular point group: c1
  Charge       = 0
  Multiplicity = 1
  Basis Set: CC-PVTZ
  Basis Set:
  @DF-RHF Final Energy:  -321.85955688200806
    Total Energy =                       -321.8595568820080643
    Molecular point group: c1
  Basis Set: CC-PVTZ
  Basis Set:
  Basis Set: CC-PVTZ
  Basis Set:
  @DF-RHF Final Energy:  -321.85982479773332
    Total Energy =                       -321.8598247977335518
  Basis Set: CC-PVTZ
  Basis Set:
  Basis Set: CC-PVTZ
  Basis Set:
  @DF-RHF Final Energy:  -321.52865159131727
    Total Energy =                       -321.5286515913172707
  Basis Set: CC-PVTZ
  Basis Set:
  Basis Set: CC-PVTZ
  Basis Set:
  @DF-RHF Final Energy:  -321.68860399893072
    Total Energy =                       -321.6886039989308301
  Basis Set: CC-PVTZ
  Basis Set:
  @DF-RHF Final Energy:  -321.82443177789798
    Total Energy =                       -321.8244317778978711
  @DF-RHF Final Energy:  -321.69100382988381
    Total Energy =                       -321.6910038298836980
  @DF-RHF Final Energy:  -321.49464149752009
    Total Energy =                       -321.4946414975202060
  @DF-RHF Final Energy:  -321.73484209643414
    Total Energy =                       -321.7348420964340221
  @DF-RHF Final Energy:  -321.83829359922225
    Total Energy =                       -321.8382935992223111
  @DF-RHF Final Energy:  -321.82006273476759
    Total Energy =                       -321.8200627347674754
  @DF-RHF Final Energy:  -321.85714536530315
    Total Energy =                       -321.8571453653031540
  @DF-RHF Final Energy:  -321.85963481875774
    Total Energy =                       -321.8596348187578542
  @DF-RHF Final Energy:  -321.85750183038260
    Total Energy =                       -321.8575018303824891
  Basis Set: CC-PVTZ
  Basis Set:
  @DF-RHF Final Energy:  -321.86068950861488
    Total Energy =                       -321.8606895086148825
  Basis Set: CC-PVTZ
  Basis Set:
  Basis Set: CC-PVTZ
  Basis Set:
  @DF-RHF Final Energy:  -321.86073566514403
    Total Energy =                       -321.8607356651439773
  Basis Set: CC-PVTZ
  Basis Set:
  Basis Set: CC-PVTZ
  Basis Set:
  @DF-RHF Final Energy:  -321.86073821086774
    Total Energy =                       -321.8607382108677939
  Basis Set: CC-PVTZ
  Basis Set:
  Charge       = 0
  Multiplicity = 1
  Basis Set: CC-PVTZ
  Basis Set:

    Orbital Energies (a.u.)
    -----------------------

    Doubly Occupied:

       1A    -20.591430     2A    -20.590181     3A    -15.838204
       4A    -11.298737     5A    -11.248318     6A    -11.235315
       7A     -1.637079     8A     -1.421145     9A     -1.132026
      10A     -1.026980    11A     -0.884770    12A     -0.828359
      13A     -0.763665    14A     -0.748303    15A     -0.730621
      16A     -0.661294    17A     -0.606417    18A     -0.579641
      19A     -0.552433    20A     -0.522336    21A     -0.509964
      22A     -0.487665    23A     -0.474423    24A     -0.454408

  @DF-RHF Final Energy:  -321.86073847680359

   => Energetics <=

    Nuclear Repulsion Energy =            247.6470332889389567
    One-Electron Energy =                -929.3681141195057762
    Two-Electron Energy =                 359.8603423537631443
    DFT Exchange-Correlation Energy =       0.0000000000000000
    Empirical Dispersion Energy =           0.0000000000000000
    PCM Polarization Energy =               0.0000000000000000
    EFP Energy =                            0.0000000000000000
    Total Energy =                       -321.8607384768037036
    Molecular point group: c1
  Basis Set: CC-PVTZ
  Basis Set:

  -Total Gradient:
     Atom            X                  Y                   Z
    ------   -----------------  -----------------  -----------------
       1        0.000002090553     0.000004011886     0.000001814744
       2        0.000018121025    -0.000014340503    -0.000000882217
       3        0.000220373025    -0.000175578938     0.000051643910
       4        0.000005025764     0.000004165021    -0.000004722033
       5       -0.000007456973    -0.000000427058    -0.000005944367
       6       -0.000204785311     0.000232005214    -0.000026274080
       7       -0.000001204628     0.000007396234     0.000003798528
       8       -0.000007669077    -0.000007163124     0.000002138151
       9       -0.000459921327    -0.000025610275    -0.000122946617
      10        0.000017732344     0.000005397631    -0.000003817920
      11       -0.000002029027    -0.000014443617     0.000005370645
      12        0.000401548886    -0.000070322237     0.000127271382
      13        0.000018174748     0.000054909766    -0.000027450126

  **** Optimization is complete! (in 17 steps) ****
    Final optimized geometry and variables:
    Molecular point group: c1

    Geometry (in Angstrom), charge = 0, multiplicity = 1:

    H           -0.016325571009    -1.353133733804    -3.317685388435
    C            0.367202366944    -0.559861263781    -2.689411632311
    C           -0.140404934053    -0.723187751447    -1.259614119875
    H            1.450215599785    -0.599935586882    -2.730965606349
    H            0.051761163703     0.384438414241    -3.118973338336
    C            0.392269585836     0.386588134115    -0.373617150790
    H            0.161783235241    -1.680108864920    -0.860401062178
    H           -1.223873937081    -0.702382753881    -1.246619562618
    N           -0.093995595579     0.300359220130     1.035337299047
    H            1.470116932298     0.348693485767    -0.287487255021
    H            0.108142351550     1.369056206387    -0.710847974535
    O           -0.205212842000     1.324103513521     1.621575386180
    O           -0.303077525002    -0.773776897695     1.488339724430

  Mulliken Charges: (a.u.)
   Center  Symbol    Alpha    Beta     Spin     Total
       1     H     0.44135  0.44135  0.00000  0.11730
       2     C     3.15221  3.15221  0.00000 -0.30442
       3     C     3.09325  3.09325  0.00000 -0.18649
       4     H     0.45285  0.45285  0.00000  0.09431
       5     H     0.45267  0.45267  0.00000  0.09466
       6     C     3.04420  3.04420  0.00000 -0.08840
       7     H     0.43451  0.43451  0.00000  0.13098
       8     H     0.44326  0.44326  0.00000  0.11349
       9     N     3.27477  3.27477  0.00000  0.45046
      10     H     0.43640  0.43640  0.00000  0.12719
      11     H     0.43176  0.43176  0.00000  0.13648
      12     O     4.17167  4.17167  0.00000 -0.34334
      13     O     4.17110  4.17110  0.00000 -0.34221

   Total alpha = 24.00000, Total beta = 24.00000, Total charge =  0.00000

*** Psi4 exiting successfully. Buy a developer a beer!
