  ==> Input File <==

--------------------------------------------------------------------------
set {
	reference rhf
	basis 6-31G*
}

set_num_threads( 4 )
memory 2 gb

molecule MOL {
0 1

H	 -4.031818	 -0.453427	 -0.000094
C	 -2.967712	 -0.297022	 -0.000064
C	 -2.458620	 0.992929	 0.000032
C	 -2.109895	 -1.385637	 -0.000122
H	 -3.124998	 1.836319	 0.000077
C	 -1.090278	 1.193236	 0.000070
H	 -2.506361	 -2.384847	 -0.000198
C	 -0.739812	 -1.187531	 -0.000085
H	 -0.678594	 2.184290	 0.000146
C	 -0.226438	 0.104061	 0.000012
H	 -0.072310	 -2.027032	 -0.000131
C	 1.239129	 0.373821	 0.000060
O	 1.787961	 0.259592	 1.200201
O	 1.862651	 0.663082	 -0.972775
C	 3.181054	 0.499401	 1.292147
H	 3.726746	 -0.199352	 0.675090
H	 3.435111	 0.360136	 2.331336
H	 3.412843	 1.507392	 0.980463

	symmetry c1
}
set optking {
	frozen_dihedral = ("
		13 12 10 6
	")
}

ee = optimize('scf')
oeprop('DIPOLE', 'QUADRUPOLE', 'MULLIKEN_CHARGES')
f=open( 'psi4out.xyz', 'w' )
f.write( "18  " )
f.write( str(ee) + "\n" )
f.write( MOL.save_string_xyz() )
f.close()
--------------------------------------------------------------------------

    Molecular point group: c1
  Charge       = 0
  Multiplicity = 1
  Basis Set: 6-31G*
  Basis Set:
  @DF-RHF Final Energy:  -457.33813772143986
    Total Energy =                       -457.3381377214395798
    Molecular point group: c1
  Basis Set: 6-31G*
  Basis Set:
  Basis Set: 6-31G*
  Basis Set:
  @DF-RHF Final Energy:  -457.33733414534294
    Total Energy =                       -457.3373341453426519
  Basis Set: 6-31G*
  Basis Set:
  Basis Set: 6-31G*
  Basis Set:
  @DF-RHF Final Energy:  -457.33851626277561
    Total Energy =                       -457.3385162627757836
  Basis Set: 6-31G*
  Basis Set:
  Basis Set: 6-31G*
  Basis Set:
  @DF-RHF Final Energy:  -457.33858705814987
    Total Energy =                       -457.3385870581498693
  Basis Set: 6-31G*
  Basis Set:
  Charge       = 0
  Multiplicity = 1
  Basis Set: 6-31G*
  Basis Set:

    Orbital Energies (a.u.)
    -----------------------

    Doubly Occupied:

       1A    -20.610002     2A    -20.551144     3A    -11.380829
       4A    -11.283743     5A    -11.251705     6A    -11.243996
       7A    -11.243607     8A    -11.240554     9A    -11.239713
      10A    -11.238821    11A     -1.475719    12A     -1.368318
      13A     -1.166604    14A     -1.048824    15A     -1.025766
      16A     -0.980010    17A     -0.859617    18A     -0.838360
      19A     -0.780496    20A     -0.737672    21A     -0.685370
      22A     -0.680333    23A     -0.676863    24A     -0.631226
      25A     -0.629658    26A     -0.597286    27A     -0.591437
      28A     -0.548200    29A     -0.536871    30A     -0.517723
      31A     -0.507612    32A     -0.502046    33A     -0.459823
      34A     -0.444638    35A     -0.342690    36A     -0.342062

  @DF-RHF Final Energy:  -457.33858931812426

   => Energetics <=

    Nuclear Repulsion Energy =            491.5975044825063378
    One-Electron Energy =               -1597.3535133092727847
    Two-Electron Energy =                 648.4174195086424106
    DFT Exchange-Correlation Energy =       0.0000000000000000
    Empirical Dispersion Energy =           0.0000000000000000
    PCM Polarization Energy =               0.0000000000000000
    EFP Energy =                            0.0000000000000000
    Total Energy =                       -457.3385893181240363
    Molecular point group: c1
  Basis Set: 6-31G*
  Basis Set:

  -Total Gradient:
     Atom            X                  Y                   Z
    ------   -----------------  -----------------  -----------------
       1       -0.000000807847     0.000002106404     0.000019420807
       2        0.000024210583    -0.000172787445    -0.000033782098
       3        0.000147427896     0.000149693592     0.000018105548
       4       -0.000175489617    -0.000009524156    -0.000052092181
       5        0.000000020346     0.000006546306    -0.000018642784
       6       -0.000130371518     0.000178682670     0.002662820305
       7        0.000009007162    -0.000010211864    -0.000006394810
       8        0.000118332348     0.000025327798     0.000142771490
       9        0.000006387558    -0.000072656518    -0.000014591429
      10        0.000034238773     0.000565738026    -0.003685001172
      11       -0.000062002999     0.000047794589    -0.000048222223
      12        0.000469069424    -0.003186880211     0.000685977408
      13       -0.000438961913     0.002474256686     0.000452326832
      14        0.000025567862    -0.000003898843    -0.000098953616
      15        0.000013568391     0.000006642322    -0.000029712373
      16       -0.000005770976     0.000000142422     0.000005926730
      17       -0.000031570586    -0.000003428049    -0.000004112603
      18       -0.000002854896     0.000002456275     0.000004156169

  **** Optimization is complete! (in 5 steps) ****
    Final optimized geometry and variables:
    Molecular point group: c1

    Geometry (in Angstrom), charge = 0, multiplicity = 1:

    H           -4.002171272431    -0.620356989718    -0.145242968928
    C           -2.940501380675    -0.450591629530    -0.153983723785
    C           -2.445363203083     0.843589516691    -0.165047965606
    C           -2.066450551589    -1.525538088525    -0.151984186590
    H           -3.120905808274     1.679883448664    -0.163207186853
    C           -1.078375339572     1.063926635670    -0.180850656819
    H           -2.447183382755    -2.530875005315    -0.141667531640
    C           -0.698632101091    -1.308109521593    -0.157024120330
    H           -0.693916541470     2.067769128451    -0.199518000700
    C           -0.204532669814    -0.012907625601    -0.184678882028
    H           -0.021419309914    -2.143197996149    -0.145148258827
    C            1.274229991022     0.235908015935    -0.190494619146
    O            1.800324143359     0.107000658474     1.016678281074
    O            1.902299597190     0.540290566518    -1.151666169371
    C            3.196241175402     0.325778416492     1.134157441915
    H            3.743132152557    -0.372647643760     0.517355545122
    H            3.430205738905     0.170481624617     2.175509531518
    H            3.447096657846     1.334152672016     0.838505290460

  Mulliken Charges: (a.u.)
   Center  Symbol    Alpha    Beta     Spin     Total
       1     H     0.39650  0.39650  0.00000  0.20701
       2     C     3.09741  3.09741  0.00000 -0.19481
       3     C     3.10005  3.10005  0.00000 -0.20010
       4     C     3.10001  3.10001  0.00000 -0.20002
       5     H     0.39580  0.39580  0.00000  0.20840
       6     C     3.09884  3.09884  0.00000 -0.19767
       7     H     0.39592  0.39592  0.00000  0.20816
       8     C     3.09734  3.09734  0.00000 -0.19468
       9     H     0.39004  0.39004  0.00000  0.21992
      10     C     3.00892  3.00892  0.00000 -0.01785
      11     H     0.39166  0.39166  0.00000  0.21667
      12     C     2.64113  2.64113  0.00000  0.71773
      13     O     4.29476  4.29476  0.00000 -0.58952
      14     O     4.27471  4.27471  0.00000 -0.54941
      15     C     3.09429  3.09429  0.00000 -0.18859
      16     H     0.40837  0.40837  0.00000  0.18326
      17     H     0.40635  0.40635  0.00000  0.18729
      18     H     0.40790  0.40790  0.00000  0.18421

   Total alpha = 36.00000, Total beta = 36.00000, Total charge =  0.00000
