                              Psi4 1.0.54 Driver

  ==> Input File <==

--------------------------------------------------------------------------
set {
	reference rhf
	basis cc-pvtz
}

set_num_threads( 4 )
memory 2 gb

molecule MOL {
0 1

H	 0.784030	 3.360763	 1.560757
O	 1.506559	 2.892726	 1.181793
C	 1.104265	 1.742509	 0.612810
C	 2.073931	 0.951141	 0.013974
C	 -0.213999	 1.339364	 0.609243
H	 3.093039	 1.283366	 0.028102
C	 1.721034	 -0.236781	 -0.584072
H	 -0.982341	 1.929792	 1.063493
C	 -0.532034	 0.141680	 0.000000
H	 2.477194	 -0.841831	 -1.044380
C	 0.403459	 -0.663005	 -0.600514
N	 -1.937041	 -0.281114	 0.000000
H	 0.114819	 -1.582514	 -1.060855
O	 -2.159542	 -1.446261	 0.000000
O	 -2.764978	 0.565773	 0.000000

	symmetry c1
}
set optking {
	frozen_dihedral = ("
		11 9 12 14
	")
}

ee,wfn = optimize('scf', return_wfn=True)
oeprop( wfn, 'DIPOLE', 'QUADRUPOLE', 'MULLIKEN_CHARGES')
f=open( 'psi4out.xyz', 'w' )
f.write( "15  " )
f.write( str(ee) + "\n" )
f.write( MOL.save_string_xyz() )
f.close()
--------------------------------------------------------------------------

    Molecular point group: c1
  Charge       = 0
  Multiplicity = 1
  Basis Set: CC-PVTZ
  Basis Set:
  @DF-RHF Final Energy:  -509.21741995078361
    Total Energy =                       -509.2174199507836647
    Molecular point group: c1
  Basis Set: CC-PVTZ
  Basis Set:
  Basis Set: CC-PVTZ
  Basis Set:
  @DF-RHF Final Energy:  -509.20956938668627
    Total Energy =                       -509.2095693866863257
  Basis Set: CC-PVTZ
  Basis Set:
  Basis Set: CC-PVTZ
  Basis Set:
  @DF-RHF Final Energy:  -509.21619155023978
    Total Energy =                       -509.2161915502399552
  Basis Set: CC-PVTZ
  Basis Set:
  Basis Set: CC-PVTZ
  Basis Set:
  @DF-RHF Final Energy:  -509.21754425893255
    Total Energy =                       -509.2175442589327758
  Basis Set: CC-PVTZ
  Basis Set:
  Basis Set: CC-PVTZ
  Basis Set:
  @DF-RHF Final Energy:  -509.21748223992336
    Total Energy =                       -509.2174822399230152
  Basis Set: CC-PVTZ
  Basis Set:
  Basis Set: CC-PVTZ
  Basis Set:
  @DF-RHF Final Energy:  -509.21761940642671
    Total Energy =                       -509.2176194064268202
  Basis Set: CC-PVTZ
  Basis Set:
  Basis Set: CC-PVTZ
  Basis Set:
  @DF-RHF Final Energy:  -509.21762011330293
    Total Energy =                       -509.2176201133028144
  Basis Set: CC-PVTZ
  Basis Set:
  Charge       = 0
  Multiplicity = 1
  Basis Set: CC-PVTZ
  Basis Set:

    Orbital Energies (a.u.)
    -----------------------

    Doubly Occupied:

       1A    -20.609048     2A    -20.596267     3A    -20.595689
       4A    -15.850293     5A    -11.328573     6A    -11.310020
       7A    -11.263806     8A    -11.263408     9A    -11.258825
      10A    -11.255421    11A     -1.644661    12A     -1.441742
      13A     -1.427424    14A     -1.203335    15A     -1.096157
      16A     -1.048722    17A     -0.966991    18A     -0.883021
      19A     -0.832293    20A     -0.794677    21A     -0.760542
      22A     -0.741526    23A     -0.726903    24A     -0.711043
      25A     -0.676176    26A     -0.636252    27A     -0.622286
      28A     -0.598132    29A     -0.562300    30A     -0.547810
      31A     -0.525192    32A     -0.494840    33A     -0.492702
      34A     -0.459437    35A     -0.379227    36A     -0.346426

  @DF-RHF Final Energy:  -509.21762034898637

   => Energetics <=

    Nuclear Repulsion Energy =            504.6757471860494775
    One-Electron Energy =               -1695.8844047810464417
    Two-Electron Energy =                 681.9910372460103645
    DFT Exchange-Correlation Energy =       0.0000000000000000
    Empirical Dispersion Energy =           0.0000000000000000
    PCM Polarization Energy =               0.0000000000000000
    EFP Energy =                            0.0000000000000000
    Total Energy =                       -509.2176203489866566
    Molecular point group: c1
  Basis Set: CC-PVTZ
  Basis Set:

  -Total Gradient:
     Atom            X                  Y                   Z
    ------   -----------------  -----------------  -----------------
       1       -0.000000134519    -0.000006340299     0.000006803610
       2        0.000005985652     0.000011307522    -0.000010457251
       3       -0.000015952951    -0.000007220929     0.000000522106
       4        0.000003160151    -0.000003225220    -0.000008402378
       5        0.000028602962     0.000016910428     0.000044967217
       6        0.000001098679    -0.000000324640     0.000000500540
       7        0.000018757605    -0.000000508507     0.000006354976
       8        0.000015384250    -0.000008982071    -0.000001721781
       9        0.000592967566    -0.002075126204     0.004552857288
      10        0.000002923129    -0.000000206990     0.000000333130
      11       -0.000398112066     0.001378260435    -0.002348234420
      12       -0.000212105800     0.000869408064    -0.005439695997
      13       -0.000000681746     0.000005165346     0.000000890718
      14        0.000022231753    -0.000120937653     0.003190461703
      15       -0.000064124654    -0.000058179280     0.000004820540

  **** Optimization is complete! (in 8 steps) ****
    Final optimized geometry and variables:
    Molecular point group: c1

    Geometry (in Angstrom), charge = 0, multiplicity = 1:

    H            0.938554946629     2.841908689675     1.419611716242
    O            1.659543150009     2.375743474604     1.035514573174
    C            1.256100772162     1.228637891242     0.462232315575
    C            2.221522287791     0.449112618079    -0.159085590979
    C           -0.061016680482     0.819784153569     0.469039618338
    H            3.237761647254     0.790068099689    -0.160577864373
    C            1.867936445979    -0.735937628008    -0.762412824741
    H           -0.831255142787     1.411942158650     0.919522097757
    C           -0.373408489224    -0.384461729703    -0.127089217045
    H            2.619892477780    -1.326747551392    -1.247512179373
    C            0.554971346848    -1.177148036796    -0.751590408955
    N           -1.776210965064    -0.804815730305    -0.133254379200
    H            0.265440923127    -2.100524077657    -1.205586137523
    O           -1.996061396816    -1.968574451032    -0.162088637027
    O           -2.601915850181     0.045521693899    -0.087580234801

  Mulliken Charges: (a.u.)
   Center  Symbol    Alpha    Beta     Spin     Total
       1     H     0.38428  0.38428  0.00000  0.23145
       2     O     4.16809  4.16809  0.00000 -0.33618
       3     C     2.84446  2.84446  0.00000  0.31108
       4     C     3.09885  3.09885  0.00000 -0.19770
       5     C     3.13767  3.13767  0.00000 -0.27535
       6     H     0.41336  0.41336  0.00000  0.17328
       7     C     3.05590  3.05590  0.00000 -0.11180
       8     H     0.41180  0.41180  0.00000  0.17640
       9     C     2.95690  2.95690  0.00000  0.08621
      10     H     0.41605  0.41605  0.00000  0.16790
      11     C     3.10132  3.10132  0.00000 -0.20265
      12     N     3.26238  3.26238  0.00000  0.47525
      13     H     0.40361  0.40361  0.00000  0.19278
      14     O     4.17083  4.17083  0.00000 -0.34167
      15     O     4.17450  4.17450  0.00000 -0.34900

   Total alpha = 36.00000, Total beta = 36.00000, Total charge =  0.00000

*** Psi4 exiting successfully. Buy a developer a beer!
