  ==> Input File <==

--------------------------------------------------------------------------
set {
	reference rhf
	basis 6-31G*
}

set_num_threads( 1 )
memory 2 gb

molecule MOL {
0 1

O	 1.525560	 0.915694	 -0.859193
C	 1.705091	 0.115954	 0.001797
C	 0.833403	 -0.074920	 1.219005
O	 2.721346	 -0.737485	 -0.000216
C	 -0.353954	 0.881733	 1.270419
H	 0.505032	 -1.110710	 1.223975
H	 1.468080	 0.037848	 2.093755
C	 -1.219888	 0.665847	 2.512439
H	 -0.954546	 0.754655	 0.375249
H	 0.009423	 1.904337	 1.247067
C	 -2.416230	 1.616690	 2.579677
H	 -1.578246	 -0.362353	 2.531942
H	 -0.611400	 0.792300	 3.406661
C	 -3.280381	 1.401323	 3.821495
H	 -3.026506	 1.489776	 1.688276
H	 -2.059829	 2.644199	 2.561166
H	 -3.680471	 0.391729	 3.850849
H	 -4.119446	 2.089840	 3.840573
H	 -2.705932	 1.554894	 4.730745
C	 4.024888	 -0.184556	 -0.001949
H	 4.179030	 0.422472	 -0.882452
H	 4.701782	 -1.024608	 -0.003642
H	 4.181981	 0.421185	 0.878906

	symmetry c1
}
set optking {
	frozen_dihedral = ("
		15 11 8 12,
		9 5 8 12,
		1 2 3 6,
		9 5 3 6
	")
}

ee = energy('scf')
oeprop('DIPOLE', 'QUADRUPOLE', 'MULLIKEN_CHARGES')
f=open( 'psi4out.xyz', 'w' )
f.write( "23  " )
f.write( str(ee) + "\n" )
f.write( MOL.save_string_xyz() )
f.close()
--------------------------------------------------------------------------

    Molecular point group: c1

    Geometry (in Angstrom), charge = 0, multiplicity = 1:

       Center              X                  Y                   Z               Mass
    ------------   -----------------  -----------------  -----------------  -----------------
           O          1.097240384396     0.408396057790    -2.018668304105    15.994914619560
           C          1.276771384396    -0.391343942210    -1.157678304105    12.000000000000
           C          0.405083384396    -0.582217942210     0.059529695895    12.000000000000
           O          2.293026384396    -1.244782942210    -1.159691304105    15.994914619560
           C         -0.782273615604     0.374435057790     0.110943695895    12.000000000000
           H          0.076712384396    -1.618007942210     0.064499695895     1.007825032070
           H          1.039760384396    -0.469449942210     0.934279695895     1.007825032070
           C         -1.648207615604     0.158549057790     1.352963695895    12.000000000000
           H         -1.382865615604     0.247357057790    -0.784226304105     1.007825032070
           H         -0.418896615604     1.397039057790     0.087591695895     1.007825032070
           C         -2.844549615604     1.109392057790     1.420201695895    12.000000000000
           H         -2.006565615604    -0.869650942210     1.372466695895     1.007825032070
           H         -1.039719615604     0.285002057790     2.247185695895     1.007825032070
           C         -3.708700615604     0.894025057790     2.662019695895    12.000000000000
           H         -3.454825615604     0.982478057790     0.528800695895     1.007825032070
           H         -2.488148615604     2.136901057790     1.401690695895     1.007825032070
           H         -4.108790615604    -0.115568942210     2.691373695895     1.007825032070
           H         -4.547765615604     1.582542057790     2.681097695895     1.007825032070
           H         -3.134251615604     1.047596057790     3.571269695895     1.007825032070
           C          3.596568384396    -0.691853942210    -1.161424304105    12.000000000000
           H          3.750710384396    -0.084825942210    -2.041927304105     1.007825032070
           H          4.273462384396    -1.531905942210    -1.163117304105     1.007825032070
           H          3.753661384396    -0.086112942210    -0.280569304105     1.007825032070

  Charge       = 0
  Multiplicity = 1
  Basis Set: 6-31G*
  Basis Set:

    Orbital Energies (a.u.)
    -----------------------

    Doubly Occupied:

       1A    -20.590337     2A    -20.551743     3A    -11.373212
       4A    -11.289592     5A    -11.236148     6A    -11.219330
       7A    -11.218313     8A    -11.216865     9A    -11.210041
      10A     -1.465280    11A     -1.364823    12A     -1.093240
      13A     -1.042219    14A     -0.986616    15A     -0.937722
      16A     -0.846711    17A     -0.795647    18A     -0.767939
      19A     -0.695991    20A     -0.681284    21A     -0.673656
      22A     -0.650000    23A     -0.611831    24A     -0.606404
      25A     -0.576609    26A     -0.566594    27A     -0.554703
      28A     -0.533801    29A     -0.508609    30A     -0.503067
      31A     -0.485567    32A     -0.473010    33A     -0.468824
      34A     -0.465881    35A     -0.450664    36A     -0.430504

  @DF-RHF Final Energy:  -422.96125089010900

   => Energetics <=

    Nuclear Repulsion Energy =            452.8266382285607961
    One-Electron Energy =               -1473.2901692716297930
    Two-Electron Energy =                 597.5022801529607932
    DFT Exchange-Correlation Energy =       0.0000000000000000
    Empirical Dispersion Energy =           0.0000000000000000
    PCM Polarization Energy =               0.0000000000000000
    EFP Energy =                            0.0000000000000000
    Total Energy =                       -422.9612508901082037

  Mulliken Charges: (a.u.)
   Center  Symbol    Alpha    Beta     Spin     Total
       1     O     4.26880  4.26880  0.00000 -0.53761
       2     C     2.60819  2.60819  0.00000  0.78362
       3     C     3.21053  3.21053  0.00000 -0.42105
       4     O     4.31111  4.31111  0.00000 -0.62223
       5     C     3.15352  3.15352  0.00000 -0.30703
       6     H     0.39895  0.39895  0.00000  0.20209
       7     H     0.40596  0.40596  0.00000  0.18808
       8     C     3.15307  3.15307  0.00000 -0.30613
       9     H     0.41079  0.41079  0.00000  0.17843
      10     H     0.41297  0.41297  0.00000  0.17406
      11     C     3.15151  3.15151  0.00000 -0.30302
      12     H     0.42371  0.42371  0.00000  0.15258
      13     H     0.42487  0.42487  0.00000  0.15026
      14     C     3.23957  3.23957  0.00000 -0.47913
      15     H     0.42102  0.42102  0.00000  0.15796
      16     H     0.42162  0.42162  0.00000  0.15677
      17     H     0.42167  0.42167  0.00000  0.15665
      18     H     0.41841  0.41841  0.00000  0.16317
      19     H     0.42209  0.42209  0.00000  0.15583
      20     C     3.09458  3.09458  0.00000 -0.18916
      21     H     0.40332  0.40332  0.00000  0.19336
      22     H     0.40430  0.40430  0.00000  0.19139
      23     H     0.41944  0.41944  0.00000  0.16113

   Total alpha = 36.00000, Total beta = 36.00000, Total charge =  0.00000
