  ==> Input File <==

--------------------------------------------------------------------------
set {
	reference rhf
	basis 6-31G*
}

set_num_threads( 4 )
memory 2 gb

molecule MOL {
0 1

O	 -2.439739	 -0.935931	 -0.423848
C	 -1.921153	 0.064240	 -0.045697
C	 -2.624470	 1.379923	 0.150949
O	 -0.632575	 0.154573	 0.251549
H	 -2.168117	 2.136577	 -0.476876
H	 -3.669540	 1.273223	 -0.098610
H	 -2.519365	 1.700893	 1.180846
C	 0.160891	 -1.019931	 0.106212
C	 1.589627	 -0.672828	 0.480843
H	 0.089836	 -1.367806	 -0.916050
H	 -0.238459	 -1.792301	 0.749618
C	 2.246377	 0.346236	 -0.452210
H	 2.163194	 -1.597435	 0.473358
H	 1.604769	 -0.303424	 1.502885
C	 3.372876	 -0.263014	 -1.285765
H	 1.491232	 0.763938	 -1.115069
H	 2.634123	 1.172456	 0.134622
H	 3.822662	 0.479016	 -1.937775
H	 3.007140	 -1.073501	 -1.909965
H	 4.157674	 -0.663863	 -0.650556

	symmetry c1
}
set optking {
	frozen_dihedral = ("
		16 12 9 8
	")
}

ee = optimize('scf')
oeprop('DIPOLE', 'QUADRUPOLE', 'MULLIKEN_CHARGES')
f=open( 'psi4out.xyz', 'w' )
f.write( "20  " )
f.write( str(ee) + "\n" )
f.write( MOL.save_string_xyz() )
f.close()
--------------------------------------------------------------------------

    Molecular point group: c1
  Charge       = 0
  Multiplicity = 1
  Basis Set: 6-31G*
  Basis Set:
  @DF-RHF Final Energy:  -383.94027563706294
    Total Energy =                       -383.9402756370629959
    Molecular point group: c1
  Basis Set: 6-31G*
  Basis Set:
  Basis Set: 6-31G*
  Basis Set:
  @DF-RHF Final Energy:  -383.94041199328768
    Total Energy =                       -383.9404119932879667
  Basis Set: 6-31G*
  Basis Set:
  Basis Set: 6-31G*
  Basis Set:
  @DF-RHF Final Energy:  -383.93945004553473
    Total Energy =                       -383.9394500455352954
  Basis Set: 6-31G*
  Basis Set:
  Basis Set: 6-31G*
  Basis Set:
  @DF-RHF Final Energy:  -383.94055932014390
    Total Energy =                       -383.9405593201437341
  Basis Set: 6-31G*
  Basis Set:
  Basis Set: 6-31G*
  Basis Set:
  @DF-RHF Final Energy:  -383.94056741468808
    Total Energy =                       -383.9405674146878482
  Basis Set: 6-31G*
  Basis Set:
  Basis Set: 6-31G*
  Basis Set:
  @DF-RHF Final Energy:  -383.94056966734183
    Total Energy =                       -383.9405696673418333
  Basis Set: 6-31G*
  Basis Set:
  Basis Set: 6-31G*
  Basis Set:
  @DF-RHF Final Energy:  -383.94057083339010
    Total Energy =                       -383.9405708333903249
  Basis Set: 6-31G*
  Basis Set:
  Charge       = 0
  Multiplicity = 1
  Basis Set: 6-31G*
  Basis Set:

    Orbital Energies (a.u.)
    -----------------------

    Doubly Occupied:

       1A    -20.601820     2A    -20.544137     3A    -11.374554
       4A    -11.282526     5A    -11.233364     6A    -11.225155
       7A    -11.220890     8A    -11.213882     9A     -1.468033
      10A     -1.362313    11A     -1.084125    12A     -1.027519
      13A     -0.980800    14A     -0.881709    15A     -0.812073
      16A     -0.772718    17A     -0.689848    18A     -0.687411
      19A     -0.666101    20A     -0.624753    21A     -0.605248
      22A     -0.587538    23A     -0.573155    24A     -0.559015
      25A     -0.541658    26A     -0.528645    27A     -0.512870
      28A     -0.484524    29A     -0.474026    30A     -0.468504
      31A     -0.448577    32A     -0.438526

  @DF-RHF Final Energy:  -383.94057084949907

   => Energetics <=

    Nuclear Repulsion Energy =            386.1895638506629211
    One-Electron Energy =               -1288.3082386953228706
    Two-Electron Energy =                 518.1781039951606544
    DFT Exchange-Correlation Energy =       0.0000000000000000
    Empirical Dispersion Energy =           0.0000000000000000
    PCM Polarization Energy =               0.0000000000000000
    EFP Energy =                            0.0000000000000000
    Total Energy =                       -383.9405708494992950
    Molecular point group: c1
  Basis Set: 6-31G*
  Basis Set:

  -Total Gradient:
     Atom            X                  Y                   Z
    ------   -----------------  -----------------  -----------------
       1       -0.000008602697    -0.000004750440     0.000005193113
       2        0.000001367473     0.000004762358    -0.000013519574
       3       -0.000001970832    -0.000001589955     0.000008413368
       4        0.000011272046    -0.000002367237     0.000009921612
       5       -0.000000213995    -0.000002177753    -0.000002533717
       6        0.000000392033     0.000000189466    -0.000001134209
       7        0.000000784057     0.000003052730    -0.000000734049
       8       -0.000336262862     0.000770752853     0.000566160279
       9        0.000533161204    -0.001326935192    -0.001029986786
      10        0.000009731738     0.000001716900     0.000012118183
      11       -0.000008851584    -0.000004889163     0.000007341702
      12       -0.000447737852     0.001561686782     0.001369760695
      13       -0.000009913398    -0.000007342728     0.000008006117
      14       -0.000005328337    -0.000005674164    -0.000001085043
      15       -0.000004497957     0.000012580797    -0.000009565621
      16        0.000264243742    -0.001006800272    -0.000920118302
      17        0.000003360004     0.000005797458    -0.000009559068
      18        0.000002632495    -0.000002195303    -0.000004155073
      19       -0.000000860314    -0.000000365440     0.000002802282
      20       -0.000002704957     0.000004548308     0.000002674092

  **** Optimization is complete! (in 8 steps) ****
    Final optimized geometry and variables:
    Molecular point group: c1

    Geometry (in Angstrom), charge = 0, multiplicity = 1:

    O           -2.398466762598    -0.809498228855    -0.285046637778
    C           -1.879820473587     0.184777051192     0.108384561999
    C           -2.581516381524     1.499431995322     0.317749926724
    O           -0.594202294962     0.266966764361     0.420543688521
    H           -2.116827436560     2.264019451130    -0.294077801732
    H           -3.624347536862     1.399275711948     0.056349192391
    H           -2.485617893973     1.804603350440     1.353357429006
    C            0.197729569292    -0.907577114033     0.269184615109
    C            1.624319396691    -0.556973929654     0.649069283647
    H            0.127574940601    -1.249391856683    -0.755364472852
    H           -0.202602564005    -1.683297530409     0.908125714389
    C            2.291815087625     0.463841522081    -0.298560464972
    H            2.194702567765    -1.482186184173     0.665888764730
    H            1.617689471731    -0.183291446177     1.667946510321
    C            3.423129461947    -0.141325390247    -1.131565964878
    H            1.545660203402     0.877275027975    -0.969769340106
    H            2.678992231278     1.300186625204     0.274018474178
    H            3.856241777483     0.596191667632    -1.800116073177
    H            3.064530281421    -0.967734154720    -1.739516316363
    H            4.218516681864    -0.520857153394    -0.496410421669

  Mulliken Charges: (a.u.)
   Center  Symbol    Alpha    Beta     Spin     Total
       1     O     4.28320  4.28320  0.00000 -0.56639
       2     C     2.61977  2.61977  0.00000  0.76046
       3     C     3.28157  3.28157  0.00000 -0.56313
       4     O     4.30777  4.30777  0.00000 -0.61555
       5     H     0.40073  0.40073  0.00000  0.19853
       6     H     0.39693  0.39693  0.00000  0.20615
       7     H     0.40050  0.40050  0.00000  0.19899
       8     C     3.00552  3.00552  0.00000 -0.01103
       9     C     3.16748  3.16748  0.00000 -0.33495
      10     H     0.41077  0.41077  0.00000  0.17845
      11     H     0.40905  0.40905  0.00000  0.18190
      12     C     3.15639  3.15639  0.00000 -0.31279
      13     H     0.41524  0.41524  0.00000  0.16952
      14     H     0.41148  0.41148  0.00000  0.17704
      15     C     3.24159  3.24159  0.00000 -0.48318
      16     H     0.41386  0.41386  0.00000  0.17228
      17     H     0.41677  0.41677  0.00000  0.16647
      18     H     0.41848  0.41848  0.00000  0.16303
      19     H     0.42191  0.42191  0.00000  0.15617
      20     H     0.42098  0.42098  0.00000  0.15804

   Total alpha = 32.00000, Total beta = 32.00000, Total charge = -0.00000
