                              Psi4 1.0.54 Driver

  ==> Input File <==

--------------------------------------------------------------------------
set {
	reference rhf
	basis cc-pvtz
}

set_num_threads( 4 )
memory 2 gb

molecule MOL {
0 1

O	 0.749630	 1.305591	 -0.000460
C	 0.576499	 0.134701	 -0.003900
C	 -0.765656	 -0.550508	 -0.002152
O	 1.564816	 -0.744612	 -0.000631
C	 -1.945526	 0.411052	 0.000603
H	 -0.794329	 -1.203792	 -0.868145
H	 -0.791555	 -1.205429	 0.862701
C	 -3.281254	 -0.319477	 0.084755
H	 -1.912751	 1.019394	 -0.895075
H	 -1.846031	 1.096241	 0.833667
H	 -3.418359	 -0.989732	 -0.757428
H	 -4.106193	 0.382618	 0.084928
H	 -3.351211	 -0.911266	 0.991518
C	 2.884339	 -0.237801	 0.002883
H	 3.064150	 0.362814	 -0.876312
H	 3.533055	 -1.098529	 0.004958
H	 3.059365	 0.363432	 0.882614

	symmetry c1
}
set optking {
	frozen_dihedral = ("
		9 5 3 6
	")
}

ee,wfn = optimize('scf', return_wfn=True)
oeprop( wfn, 'DIPOLE', 'QUADRUPOLE', 'MULLIKEN_CHARGES')
f=open( 'psi4out.xyz', 'w' )
f.write( "17  " )
f.write( str(ee) + "\n" )
f.write( MOL.save_string_xyz() )
f.close()
--------------------------------------------------------------------------

    Molecular point group: c1
  Charge       = 0
  Multiplicity = 1
  Basis Set: CC-PVTZ
  Basis Set:
  @DF-RHF Final Energy:  -345.03537294899326
    Total Energy =                       -345.0353729489933698
    Molecular point group: c1
  Basis Set: CC-PVTZ
  Basis Set:
  Basis Set: CC-PVTZ
  Basis Set:
  @DF-RHF Final Energy:  -345.03514410326602
    Total Energy =                       -345.0351441032659636
  Basis Set: CC-PVTZ
  Basis Set:
  Basis Set: CC-PVTZ
  Basis Set:
  @DF-RHF Final Energy:  -345.03538119519050
    Total Energy =                       -345.0353811951906664
  Basis Set: CC-PVTZ
  Basis Set:
  Basis Set: CC-PVTZ
  Basis Set:
  @DF-RHF Final Energy:  -345.03538284056117
    Total Energy =                       -345.0353828405611125
  Basis Set: CC-PVTZ
  Basis Set:
  Charge       = 0
  Multiplicity = 1
  Basis Set: CC-PVTZ
  Basis Set:

    Orbital Energies (a.u.)
    -----------------------

    Doubly Occupied:

       1A    -20.596662     2A    -20.534496     3A    -11.364921
       4A    -11.278753     5A    -11.234405     6A    -11.220121
       7A    -11.212698     8A     -1.472584     9A     -1.366174
      10A     -1.081757    11A     -1.002546    12A     -0.940322
      13A     -0.827808    14A     -0.769307    15A     -0.702504
      16A     -0.686778    17A     -0.676272    18A     -0.637944
      19A     -0.596827    20A     -0.575506    21A     -0.569873
      22A     -0.528718    23A     -0.523359    24A     -0.500153
      25A     -0.487766    26A     -0.480006    27A     -0.460083
      28A     -0.441412

  @DF-RHF Final Energy:  -345.03538291231155

   => Energetics <=

    Nuclear Repulsion Energy =            313.0262355410388864
    One-Electron Energy =               -1090.5837254736852628
    Two-Electron Energy =                 432.5221070203348290
    DFT Exchange-Correlation Energy =       0.0000000000000000
    Empirical Dispersion Energy =           0.0000000000000000
    PCM Polarization Energy =               0.0000000000000000
    EFP Energy =                            0.0000000000000000
    Total Energy =                       -345.0353829123115474
    Molecular point group: c1
  Basis Set: CC-PVTZ
  Basis Set:

  -Total Gradient:
     Atom            X                  Y                   Z
    ------   -----------------  -----------------  -----------------
       1        0.000008671769     0.000007754861     0.000001677591
       2        0.000004693032    -0.000011634406     0.000009108104
       3       -0.000489996494    -0.000597134765     0.000308115707
       4       -0.000009673207     0.000006902050    -0.000004665725
       5        0.000492494214     0.000604962616     0.000275692424
       6        0.000323836790     0.000395043914    -0.000310695552
       7       -0.000003730343     0.000007124506    -0.000003418814
       8       -0.000001783615     0.000000226572     0.000008902835
       9       -0.000324459131    -0.000409695201    -0.000285932485
      10       -0.000000724177    -0.000002333746    -0.000003704793
      11        0.000003168020     0.000000581701     0.000001547500
      12       -0.000002561043    -0.000001026693    -0.000000822565
      13       -0.000007001592    -0.000002368620     0.000001827893
      14        0.000011251306     0.000003238132     0.000002977349
      15       -0.000003056751    -0.000000968333     0.000000864083
      16        0.000000681714    -0.000000007241    -0.000000199290
      17       -0.000001810492    -0.000000665348    -0.000001274262

  **** Optimization is complete! (in 5 steps) ****
    Final optimized geometry and variables:
    Molecular point group: c1

    Geometry (in Angstrom), charge = 0, multiplicity = 1:

    O            0.748477226123     1.305899416518    -0.014194106131
    C            0.576036933397     0.134881610659    -0.010518602313
    C           -0.765730902335    -0.552075311697    -0.006429244776
    O            1.565585491803    -0.743168686279    -0.010237647593
    C           -1.945917898748     0.409210425817    -0.008043813330
    H           -0.791276474426    -1.205248718508    -0.872641712442
    H           -0.790804468464    -1.204682856770     0.860108263281
    C           -3.281688830637    -0.323170586504     0.062878670914
    H           -1.909533039463     1.017435337350    -0.903937546391
    H           -1.853474170335     1.092345732304     0.827186487747
    H           -3.409127742886    -0.995020709460    -0.779662725012
    H           -4.107604455924     0.377798846873     0.053153474222
    H           -3.360386636312    -0.913671119394     0.969793077697
    C            2.884261602239    -0.234790077148    -0.014377549534
    H            3.059242654882     0.364109083089    -0.895807341879
    H            3.534639387867    -1.094362012564    -0.013366359040
    H            3.062932903823     0.368948889295     0.863000918984

  Mulliken Charges: (a.u.)
   Center  Symbol    Alpha    Beta     Spin     Total
       1     O     4.19662  4.19662  0.00000 -0.39324
       2     C     2.80667  2.80667  0.00000  0.38667
       3     C     3.09578  3.09578  0.00000 -0.19156
       4     O     4.14694  4.14694  0.00000 -0.29388
       5     C     3.07857  3.07857  0.00000 -0.15713
       6     H     0.44071  0.44071  0.00000  0.11859
       7     H     0.44116  0.44116  0.00000  0.11768
       8     C     3.15134  3.15134  0.00000 -0.30268
       9     H     0.44753  0.44753  0.00000  0.10494
      10     H     0.44597  0.44597  0.00000  0.10805
      11     H     0.45594  0.45594  0.00000  0.08811
      12     H     0.44562  0.44562  0.00000  0.10877
      13     H     0.45578  0.45578  0.00000  0.08845
      14     C     3.03743  3.03743  0.00000 -0.07487
      15     H     0.45434  0.45434  0.00000  0.09133
      16     H     0.44529  0.44529  0.00000  0.10941
      17     H     0.45432  0.45432  0.00000  0.09136

   Total alpha = 28.00000, Total beta = 28.00000, Total charge = -0.00000

*** Psi4 exiting successfully. Buy a developer a beer!
