                              Psi4 1.0.54 Driver

  ==> Input File <==

--------------------------------------------------------------------------
set {
	reference rhf
	basis cc-pvtz
}

set_num_threads( 4 )
memory 2 gb

molecule MOL {
0 1

H	 -2.644180	 -0.653737	 1.272255
C	 -2.092774	 -0.380414	 0.391915
O	 -0.808934	 -0.154049	 0.752536
F	 -2.163230	 -1.351640	 -0.507133
F	 -2.627232	 0.691260	 -0.169301
C	 0.085006	 0.250800	 -0.215074
C	 1.370439	 -0.548013	 -0.012993
Cl	 0.421658	 1.987697	 -0.091007
H	 -0.272219	 0.063284	 -1.212508
F	 2.369010	 0.252470	 0.261061
F	 1.656301	 -1.185184	 -1.123673
F	 1.261980	 -1.425865	 0.946103

	symmetry c1
}
set optking {
	frozen_dihedral = ("
		10 7 6 9
	")
}

ee,wfn = optimize('scf', return_wfn=True)
oeprop( wfn, 'DIPOLE', 'QUADRUPOLE', 'MULLIKEN_CHARGES')
f=open( 'psi4out.xyz', 'w' )
f.write( "12  " )
f.write( str(ee) + "\n" )
f.write( MOL.save_string_xyz() )
f.close()
--------------------------------------------------------------------------

    Molecular point group: c1
  Charge       = 0
  Multiplicity = 1
  Basis Set: CC-PVTZ
  Basis Set:
  @DF-RHF Final Energy: -1146.60846893023631
    Total Energy =                      -1146.6084689302369952
    Molecular point group: c1
  Basis Set: CC-PVTZ
  Basis Set:
  Basis Set: CC-PVTZ
  Basis Set:
  @DF-RHF Final Energy: -1146.60806053851002
    Total Energy =                      -1146.6080605385097897
  Basis Set: CC-PVTZ
  Basis Set:
  Basis Set: CC-PVTZ
  Basis Set:
  @DF-RHF Final Energy: -1146.61080532150663
    Total Energy =                      -1146.6108053215064047
  Basis Set: CC-PVTZ
  Basis Set:
  Basis Set: CC-PVTZ
  Basis Set:
  @DF-RHF Final Energy: -1146.61097990444478
    Total Energy =                      -1146.6109799044443207
  Basis Set: CC-PVTZ
  Basis Set:
  @DF-RHF Final Energy: -1146.61099923524853
    Total Energy =                      -1146.6109992352478457
  @DF-RHF Final Energy: -1146.61100479708739
    Total Energy =                      -1146.6110047970867072
  Basis Set: CC-PVTZ
  Basis Set:
  @DF-RHF Final Energy: -1146.61101141720246
    Total Energy =                      -1146.6110114172020076
  Basis Set: CC-PVTZ
  Basis Set:
  Basis Set: CC-PVTZ
  Basis Set:
  @DF-RHF Final Energy: -1146.61101496060087
    Total Energy =                      -1146.6110149606006416
  Basis Set: CC-PVTZ
  Basis Set:
  Basis Set: CC-PVTZ
  Basis Set:
  @DF-RHF Final Energy: -1146.61101693343539
    Total Energy =                      -1146.6110169334349393
  Basis Set: CC-PVTZ
  Basis Set:
  Charge       = 0
  Multiplicity = 1
  Basis Set: CC-PVTZ
  Basis Set:

    Orbital Energies (a.u.)
    -----------------------

    Doubly Occupied:

       1A   -104.855316     2A    -26.353497     3A    -26.353313
       4A    -26.352787     5A    -26.343491     6A    -26.343235
       7A    -20.639421     8A    -11.522729     9A    -11.483846
      10A    -11.402395    11A    -10.580924    12A     -8.047700
      13A     -8.045729    14A     -8.045643    15A     -1.768526
      16A     -1.724658    17A     -1.662553    18A     -1.660193
      19A     -1.644819    20A     -1.486721    21A     -1.174890
      22A     -1.048259    23A     -0.991241    24A     -0.924157
      25A     -0.862067    26A     -0.858449    27A     -0.851947
      28A     -0.831519    29A     -0.819737    30A     -0.795937
      31A     -0.732882    32A     -0.732176    33A     -0.710630
      34A     -0.708611    35A     -0.684747    36A     -0.680027
      37A     -0.665437    38A     -0.662551    39A     -0.650523
      40A     -0.634562    41A     -0.598317    42A     -0.579334
      43A     -0.523503    44A     -0.476694    45A     -0.468573

  @DF-RHF Final Energy: -1146.61101752596710

   => Energetics <=

    Nuclear Repulsion Energy =            735.4800203596751089
    One-Electron Energy =               -3054.2135487506302525
    Two-Electron Energy =                1172.1225108649878166
    DFT Exchange-Correlation Energy =       0.0000000000000000
    Empirical Dispersion Energy =           0.0000000000000000
    PCM Polarization Energy =               0.0000000000000000
    EFP Energy =                            0.0000000000000000
    Total Energy =                      -1146.6110175259673269
    Molecular point group: c1
  Basis Set: CC-PVTZ
  Basis Set:

  -Total Gradient:
     Atom            X                  Y                   Z
    ------   -----------------  -----------------  -----------------
       1        0.000008462486     0.000008611341     0.000003049591
       2        0.000005474386    -0.000009995773    -0.000030567614
       3        0.000063676507     0.000031485031     0.000024352473
       4       -0.000016584598    -0.000045438696    -0.000017533406
       5       -0.000028557051     0.000038385226    -0.000000562449
       6       -0.000867550241    -0.001181059115     0.000064864275
       7       -0.000175983903     0.000072969584     0.001388810607
       8        0.000004621697     0.000017274346     0.000002684986
       9        0.000753056559     0.000975286326    -0.000353415328
      10        0.000267969824     0.000142951848    -0.001060341096
      11       -0.000011711472    -0.000018281673    -0.000006019381
      12       -0.000002874164    -0.000032188408    -0.000015322658

  **** Optimization is complete! (in 10 steps) ****
    Final optimized geometry and variables:
    Molecular point group: c1

    Geometry (in Angstrom), charge = 0, multiplicity = 1:

    H           -2.753606800406    -0.547954359368     1.115828725807
    C           -2.123984715128    -0.307191019543     0.279582558729
    O           -0.878885533251    -0.063855091055     0.744872743209
    F           -2.112419400224    -1.313686203823    -0.584251007192
    F           -2.606349295840     0.739739332193    -0.369997052778
    C            0.094185981331     0.304788084254    -0.158224543238
    C            1.345071238164    -0.605666980650     0.025253008707
    CL           0.491718449808     2.021746951793     0.042137551680
    H           -0.231632483171     0.191539415776    -1.175276245826
    F            2.420755847519     0.042888725218     0.373328452426
    F            1.594608087326    -1.195364930598    -1.125534760499
    F            1.129135163996    -1.538102418297     0.912329873428

  Mulliken Charges: (a.u.)
   Center  Symbol    Alpha    Beta     Spin     Total
       1     H     0.45152  0.45152  0.00000  0.09695
       2     C     2.73845  2.73845  0.00000  0.52311
       3     O     4.14975  4.14975  0.00000 -0.29950
       4     F     4.61875  4.61875  0.00000 -0.23749
       5     F     4.61572  4.61572  0.00000 -0.23143
       6     C     2.96400  2.96400  0.00000  0.07200
       7     C     2.66096  2.66096  0.00000  0.67807
       8    CL     8.56882  8.56882  0.00000 -0.13765
       9     H     0.43157  0.43157  0.00000  0.13686
      10     F     4.59521  4.59521  0.00000 -0.19042
      11     F     4.60758  4.60758  0.00000 -0.21516
      12     F     4.59767  4.59767  0.00000 -0.19533

   Total alpha = 45.00000, Total beta = 45.00000, Total charge = -0.00000

*** Psi4 exiting successfully. Buy a developer a beer!
