                              Psi4 1.0.54 Driver

  ==> Input File <==

--------------------------------------------------------------------------
set {
	reference rhf
	basis cc-pvtz
}

set_num_threads( 4 )
memory 2 gb

molecule MOL {
0 1

H	 -3.162190	 0.493205	 -0.000107
C	 -2.363908	 -0.234727	 0.000005
O	 -1.158738	 0.454634	 -0.000087
H	 -2.464314	 -0.863616	 -0.882153
H	 -2.464327	 -0.863359	 0.882345
C	 -0.028611	 -0.359694	 0.000037
C	 -0.173026	 -1.413841	 1.079070
H	 0.864336	 0.240043	 0.177796
H	 0.090884	 -0.833534	 -0.974560
C	 1.029039	 -2.349362	 1.143794
H	 -0.310466	 -0.915703	 2.032429
H	 -1.077734	 -1.980768	 0.889200
H	 1.942812	 -1.804808	 1.357258
H	 0.899602	 -3.091310	 1.922112
H	 1.170239	 -2.877207	 0.206505

	symmetry c1
}
set optking {
	frozen_dihedral = ("
		8 6 3 2
	")
}

ee,wfn = optimize('scf', return_wfn=True)
oeprop( wfn, 'DIPOLE', 'QUADRUPOLE', 'MULLIKEN_CHARGES')
f=open( 'psi4out.xyz', 'w' )
f.write( "15  " )
f.write( str(ee) + "\n" )
f.write( MOL.save_string_xyz() )
f.close()
--------------------------------------------------------------------------

    Molecular point group: c1
  Charge       = 0
  Multiplicity = 1
  Basis Set: CC-PVTZ
  Basis Set:
  @DF-RHF Final Energy:  -232.21539598118693
    Total Energy =                       -232.2153959811869299
    Molecular point group: c1
  Basis Set: CC-PVTZ
  Basis Set:
  Basis Set: CC-PVTZ
  Basis Set:
  @DF-RHF Final Energy:  -231.53323034715882
    Total Energy =                       -231.5332303471588489
  Basis Set: CC-PVTZ
  Basis Set:
  Basis Set: CC-PVTZ
  Basis Set:
  @DF-RHF Final Energy:  -231.71921091814045
    Total Energy =                       -231.7192109181406181
  Basis Set: CC-PVTZ
  Basis Set:
  Basis Set: CC-PVTZ
  Basis Set:
  @DF-RHF Final Energy:  -231.07167132176238
    Total Energy =                       -231.0716713217624374
  Basis Set: CC-PVTZ
  Basis Set:
  @DF-RHF Final Energy:  -231.39054804562642
    Total Energy =                       -231.3905480456262183
  @DF-RHF Final Energy:  -231.49981186380418
    Total Energy =                       -231.4998118638042115
  @DF-RHF Final Energy:  -231.83931699004810
    Total Energy =                       -231.8393169900479336
  @DF-RHF Final Energy:  -232.06734495342738
    Total Energy =                       -232.0673449534275221
  @DF-RHF Final Energy:  -232.19182384267216
    Total Energy =                       -232.1918238426721928
  @DF-RHF Final Energy:  -232.21381297504317
    Total Energy =                       -232.2138129750432540
  @DF-RHF Final Energy:  -232.22213868989519
    Total Energy =                       -232.2221386898951891
  @DF-RHF Final Energy:  -232.22228280050834
    Total Energy =                       -232.2222828005083670
  @DF-RHF Final Energy:  -232.22257666110266
    Total Energy =                       -232.2225766611024369
  @DF-RHF Final Energy:  -232.22330971170922
    Total Energy =                       -232.2233097117091347
  Basis Set: CC-PVTZ
  Basis Set:
  @DF-RHF Final Energy:  -232.22340944703393
    Total Energy =                       -232.2234094470338164
  Basis Set: CC-PVTZ
  Basis Set:
  Basis Set: CC-PVTZ
  Basis Set:
  @DF-RHF Final Energy:  -232.22341517700076
    Total Energy =                       -232.2234151770007315
  Basis Set: CC-PVTZ
  Basis Set:
  Basis Set: CC-PVTZ
  Basis Set:
  @DF-RHF Final Energy:  -232.22341771003431
    Total Energy =                       -232.2234177100343118
  Basis Set: CC-PVTZ
  Basis Set:
  Charge       = 0
  Multiplicity = 1
  Basis Set: CC-PVTZ
  Basis Set:

    Orbital Energies (a.u.)
    -----------------------

    Doubly Occupied:

       1A    -20.544847     2A    -11.264383     3A    -11.260435
       4A    -11.217337     5A    -11.213980     6A     -1.376443
       7A     -1.058554     8A     -0.961477     9A     -0.885369
      10A     -0.800801    11A     -0.673276    12A     -0.660517
      13A     -0.632305    14A     -0.605878    15A     -0.563497
      16A     -0.531586    17A     -0.526815    18A     -0.498750
      19A     -0.488270    20A     -0.450954    21A     -0.409605

  @DF-RHF Final Energy:  -232.22341882730683

   => Energetics <=

    Nuclear Repulsion Energy =            192.3972020603293913
    One-Electron Energy =                -695.9910858261421254
    Two-Electron Energy =                 271.3704649385059042
    DFT Exchange-Correlation Energy =       0.0000000000000000
    Empirical Dispersion Energy =           0.0000000000000000
    PCM Polarization Energy =               0.0000000000000000
    EFP Energy =                            0.0000000000000000
    Total Energy =                       -232.2234188273068298
    Molecular point group: c1
  Basis Set: CC-PVTZ
  Basis Set:

  -Total Gradient:
     Atom            X                  Y                   Z
    ------   -----------------  -----------------  -----------------
       1        0.000020884794     0.000034469590     0.000025975067
       2       -0.002224538943    -0.000271073970     0.002268945704
       3        0.002828832572     0.000322876096    -0.003009322673
       4       -0.000012499436     0.000005440084     0.000030695642
       5       -0.000008293045    -0.000040960597     0.000138534965
       6        0.001495420160     0.000698002855    -0.002469885053
       7        0.000096430315     0.000058459400     0.000069611558
       8       -0.002177017393    -0.000838421448     0.003058789750
       9       -0.000017995009     0.000037547940    -0.000028245830
      10       -0.000062668496    -0.000033195837    -0.000098851486
      11        0.000006559540     0.000028987240    -0.000063361396
      12        0.000008943987     0.000007534911    -0.000012941911
      13       -0.000010745657    -0.000013329185     0.000022429192
      14        0.000042981609     0.000021757255     0.000023919081
      15        0.000013705005    -0.000018094335     0.000043707389

  **** Optimization is complete! (in 18 steps) ****
    Final optimized geometry and variables:
    Molecular point group: c1

    Geometry (in Angstrom), charge = 0, multiplicity = 1:

    H           -0.819434834241    -2.282651324511    -1.839698768769
    C           -0.309046826824    -1.729170475902    -1.064579528307
    O           -0.648946659417    -0.390525219535    -1.222242296091
    H            0.761995255936    -1.889609073624    -1.175836206892
    H           -0.618112715309    -2.122189479558    -0.101654318901
    C            0.061368424121     0.543597437749    -0.463904428201
    C            0.133867622818     0.254129143835     1.031111683800
    H           -0.467967623504     1.478616653350    -0.594732841074
    H            1.067760806704     0.659615968230    -0.865558709767
    C            0.764967468335     1.417086592530     1.790429392510
    H           -0.870057663028     0.072041750715     1.401869139525
    H            0.708974350524    -0.645620406554     1.218618215265
    H            0.186689722690     2.326608811202     1.669381611244
    H            0.824318551875     1.202340388155     2.850455699811
    H            1.771877426671     1.616300934682     1.438818774179

  Mulliken Charges: (a.u.)
   Center  Symbol    Alpha    Beta     Spin     Total
       1     H     0.44369  0.44369  0.00000  0.11261
       2     C     3.03666  3.03666  0.00000 -0.07333
       3     O     4.17622  4.17622  0.00000 -0.35245
       4     H     0.47296  0.47296  0.00000  0.05407
       5     H     0.46816  0.46816  0.00000  0.06369
       6     C     2.97222  2.97222  0.00000  0.05556
       7     C     3.09657  3.09657  0.00000 -0.19313
       8     H     0.45334  0.45334  0.00000  0.09332
       9     H     0.46944  0.46944  0.00000  0.06112
      10     C     3.15241  3.15241  0.00000 -0.30483
      11     H     0.44911  0.44911  0.00000  0.10178
      12     H     0.45420  0.45420  0.00000  0.09161
      13     H     0.45339  0.45339  0.00000  0.09322
      14     H     0.44664  0.44664  0.00000  0.10672
      15     H     0.45499  0.45499  0.00000  0.09002

   Total alpha = 21.00000, Total beta = 21.00000, Total charge = -0.00000

*** Psi4 exiting successfully. Buy a developer a beer!
