                              Psi4 1.0.54 Driver

  ==> Input File <==

--------------------------------------------------------------------------
set {
	reference rhf
	basis cc-pvtz
}

set_num_threads( 4 )
memory 2 gb

molecule MOL {
0 1

H	 2.454355	 -1.419018	 -1.025102
N	 1.475375	 -1.233990	 -1.041542
C	 1.221403	 0.188933	 -0.938440
C	 0.796911	 -1.973319	 0.003888
H	 1.723190	 0.698163	 -1.752226
H	 1.590934	 0.608833	 -0.001024
C	 -0.272670	 0.441707	 -1.027473
H	 0.991102	 -3.030907	 -0.127065
H	 1.139623	 -1.690031	 1.000841
C	 -0.696606	 -1.717712	 -0.086380
H	 -0.620930	 0.165821	 -2.027069
H	 -0.469247	 1.498592	 -0.891567
N	 -0.976577	 -0.298712	 -0.000000
H	 -1.199715	 -2.222222	 0.729996
H	 -1.074071	 -2.142363	 -1.021143
C	 -2.391156	 -0.021003	 -0.000000
H	 -2.853954	 -0.458728	 -0.875714
H	 -2.853954	 -0.458728	 0.875714
H	 -2.614037	 1.049773	 -0.000000

	symmetry c1
}
set optking {
	frozen_dihedral = ("
		7 13 16 19
	")
}

ee,wfn = optimize('scf', return_wfn=True)
oeprop( wfn, 'DIPOLE', 'QUADRUPOLE', 'MULLIKEN_CHARGES')
f=open( 'psi4out.xyz', 'w' )
f.write( "19  " )
f.write( str(ee) + "\n" )
f.write( MOL.save_string_xyz() )
f.close()
--------------------------------------------------------------------------

    Molecular point group: c1
  Charge       = 0
  Multiplicity = 1
  Basis Set: CC-PVTZ
  Basis Set:
  @DF-RHF Final Energy:  -305.30815866112738
    Total Energy =                       -305.3081586611272087
    Molecular point group: c1
  Basis Set: CC-PVTZ
  Basis Set:
  Basis Set: CC-PVTZ
  Basis Set:
  @DF-RHF Final Energy:  -305.30880704754207
    Total Energy =                       -305.3088070475422455
  Basis Set: CC-PVTZ
  Basis Set:
  Basis Set: CC-PVTZ
  Basis Set:
  @DF-RHF Final Energy:  -305.30888998996710
    Total Energy =                       -305.3088899899668718
  Basis Set: CC-PVTZ
  Basis Set:
  Charge       = 0
  Multiplicity = 1
  Basis Set: CC-PVTZ
  Basis Set:

    Orbital Energies (a.u.)
    -----------------------

    Doubly Occupied:

       1A    -15.536056     2A    -15.531289     3A    -11.237309
       4A    -11.237274     5A    -11.235976     6A    -11.235848
       7A    -11.233273     8A     -1.249351     9A     -1.187745
      10A     -1.024203    11A     -0.965863    12A     -0.862073
      13A     -0.858235    14A     -0.757236    15A     -0.692825
      16A     -0.635331    17A     -0.627815    18A     -0.608930
      19A     -0.605703    20A     -0.581736    21A     -0.544103
      22A     -0.528711    23A     -0.512796    24A     -0.490526
      25A     -0.468462    26A     -0.458535    27A     -0.366128
      28A     -0.346748

  @DF-RHF Final Energy:  -305.30889107514537

   => Energetics <=

    Nuclear Repulsion Energy =            340.2972314840258719
    One-Electron Energy =               -1087.9720864430007623
    Two-Electron Energy =                 442.3659638838296360
    DFT Exchange-Correlation Energy =       0.0000000000000000
    Empirical Dispersion Energy =           0.0000000000000000
    PCM Polarization Energy =               0.0000000000000000
    EFP Energy =                            0.0000000000000000
    Total Energy =                       -305.3088910751453113
    Molecular point group: c1
  Basis Set: CC-PVTZ
  Basis Set:

  -Total Gradient:
     Atom            X                  Y                   Z
    ------   -----------------  -----------------  -----------------
       1        0.000016102349     0.000014947003    -0.000010353206
       2        0.000027363245    -0.000012823851    -0.000024977614
       3       -0.000005269390     0.000016240414    -0.000062449949
       4       -0.000032109381     0.000124896446     0.000043629865
       5        0.000032761593    -0.000004804687    -0.000007821423
       6       -0.000025161385    -0.000010324881    -0.000010254036
       7        0.000245884017     0.000969961040     0.000777844510
       8       -0.000047507581     0.000021568195    -0.000000546152
       9        0.000022836865    -0.000010821289     0.000023174690
      10       -0.000086709193    -0.000131687853    -0.000042492782
      11        0.000025252261    -0.000006008180     0.000031616129
      12        0.000011118666     0.000008781734    -0.000010731829
      13       -0.000255079672    -0.001278294623    -0.001457183616
      14       -0.000015918367     0.000001117103     0.000011283255
      15       -0.000005553581     0.000024628979     0.000003612842
      16        0.000018143722     0.000294284333     0.002334404044
      17        0.000035250510    -0.000005124101    -0.000004255211
      18        0.000010852189    -0.000006369953     0.000009779694
      19        0.000027743132    -0.000010165829    -0.001604279211

  **** Optimization is complete! (in 4 steps) ****
    Final optimized geometry and variables:
    Molecular point group: c1

    Geometry (in Angstrom), charge = 0, multiplicity = 1:

    H            2.574864117216    -0.785458026732    -0.587875020244
    N            1.597418871385    -0.591832237325    -0.600757195763
    C            1.356585630028     0.833674069208    -0.503319784214
    C            0.916672633704    -1.320469530813     0.450587898349
    H            1.862643035311     1.335381171840    -1.319249576989
    H            1.730755077622     1.253430838035     0.432430576675
    C           -0.135301646608     1.101087303304    -0.591250381647
    H            1.102486996193    -2.380277297623     0.325166338571
    H            1.264328838369    -1.034187543687     1.445084610591
    C           -0.575102736386    -1.054145387933     0.362192499026
    H           -0.485588184974     0.830376913403    -1.591811862148
    H           -0.320914084801     2.159557888524    -0.453543772081
    N           -0.843947666809     0.366489934476     0.436369874671
    H           -1.081020320073    -1.547660271933     1.183922084267
    H           -0.958502658031    -1.483655174005    -0.568025401881
    C           -2.255881966066     0.655499561712     0.452800312657
    H           -2.779956310692     0.252513579056    -0.418979941456
    H           -2.712912173460     0.236785052396     1.340938514863
    H           -2.413410481175     1.726517594159     0.459805216207

  Mulliken Charges: (a.u.)
   Center  Symbol    Alpha    Beta     Spin     Total
       1     H     0.43994  0.43994  0.00000  0.12013
       2     N     3.64286  3.64286  0.00000 -0.28573
       3     C     3.04108  3.04108  0.00000 -0.08216
       4     C     3.04059  3.04059  0.00000 -0.08117
       5     H     0.45245  0.45245  0.00000  0.09510
       6     H     0.46549  0.46549  0.00000  0.06902
       7     C     3.03349  3.03349  0.00000 -0.06697
       8     H     0.45244  0.45244  0.00000  0.09511
       9     H     0.46543  0.46543  0.00000  0.06915
      10     C     3.03453  3.03453  0.00000 -0.06906
      11     H     0.46920  0.46920  0.00000  0.06159
      12     H     0.45407  0.45407  0.00000  0.09187
      13     N     3.61408  3.61408  0.00000 -0.22815
      14     H     0.45434  0.45434  0.00000  0.09132
      15     H     0.46814  0.46814  0.00000  0.06372
      16     C     3.09666  3.09666  0.00000 -0.19333
      17     H     0.47044  0.47044  0.00000  0.05913
      18     H     0.45169  0.45169  0.00000  0.09662
      19     H     0.45310  0.45310  0.00000  0.09380

   Total alpha = 28.00000, Total beta = 28.00000, Total charge =  0.00000

*** Psi4 exiting successfully. Buy a developer a beer!
