  ==> Input File <==

--------------------------------------------------------------------------
set {
	reference rhf
	basis 6-31G*
}

set_num_threads( 1 )
memory 2 gb

molecule MOL {
0 1

O	 -2.401811	 -1.061819	 0.800546
C	 -1.900747	 -0.002343	 0.603779
C	 -2.609235	 1.320791	 0.711982
O	 -0.632575	 0.154573	 0.251549
H	 -2.567124	 1.837688	 -0.239854
H	 -3.637224	 1.159113	 0.999969
H	 -2.111369	 1.943707	 1.446054
C	 0.160891	 -1.019931	 0.106212
C	 1.589627	 -0.672828	 0.480843
H	 0.089836	 -1.367806	 -0.916050
H	 -0.238459	 -1.792301	 0.749618
C	 2.246377	 0.346236	 -0.452210
H	 2.163194	 -1.597435	 0.473358
H	 1.604769	 -0.303424	 1.502885
C	 3.691736	 0.652107	 -0.061850
H	 2.219579	 -0.032311	 -1.472055
H	 1.666466	 1.263317	 -0.447249
H	 4.134505	 1.377213	 -0.737283
H	 4.305508	 -0.243868	 -0.089969
H	 3.748266	 1.059562	 0.943567

	symmetry c1
}
set optking {
	frozen_dihedral = ("
		16 12 9 8,
		12 9 8 10,
		1 2 4 8
	")
}

ee = energy('scf')
oeprop('DIPOLE', 'QUADRUPOLE', 'MULLIKEN_CHARGES')
f=open( 'psi4out.xyz', 'w' )
f.write( "20  " )
f.write( str(ee) + "\n" )
f.write( MOL.save_string_xyz() )
f.close()
--------------------------------------------------------------------------

    Molecular point group: c1

    Geometry (in Angstrom), charge = 0, multiplicity = 1:

       Center              X                  Y                   Z               Mass
    ------------   -----------------  -----------------  -----------------  -----------------
           O         -2.411080367989    -1.030000297417     0.492806495610    15.994914619560
           C         -1.910016367989     0.029475702583     0.296039495610    12.000000000000
           C         -2.618504367989     1.352609702583     0.404242495610    12.000000000000
           O         -0.641844367989     0.186391702583    -0.056190504390    15.994914619560
           H         -2.576393367989     1.869506702583    -0.547593504390     1.007825032070
           H         -3.646493367989     1.190931702583     0.692229495610     1.007825032070
           H         -2.120638367989     1.975525702583     1.138314495610     1.007825032070
           C          0.151621632011    -0.988112297417    -0.201527504390    12.000000000000
           C          1.580357632011    -0.641009297417     0.173103495610    12.000000000000
           H          0.080566632011    -1.335987297417    -1.223789504390     1.007825032070
           H         -0.247728367989    -1.760482297417     0.441878495610     1.007825032070
           C          2.237107632011     0.378054702583    -0.759949504390    12.000000000000
           H          2.153924632011    -1.565616297417     0.165618495610     1.007825032070
           H          1.595499632011    -0.271605297417     1.195145495610     1.007825032070
           C          3.682466632011     0.683925702583    -0.369589504390    12.000000000000
           H          2.210309632011    -0.000492297417    -1.779794504390     1.007825032070
           H          1.657196632011     1.295135702583    -0.754988504390     1.007825032070
           H          4.125235632011     1.409031702583    -1.045022504390     1.007825032070
           H          4.296238632011    -0.212049297417    -0.397708504390     1.007825032070
           H          3.738996632011     1.091380702583     0.635827495610     1.007825032070

  Charge       = 0
  Multiplicity = 1
  Basis Set: 6-31G*
  Basis Set:

    Orbital Energies (a.u.)
    -----------------------

    Doubly Occupied:

       1A    -20.601872     2A    -20.543872     3A    -11.375465
       4A    -11.279984     5A    -11.233877     6A    -11.224404
       7A    -11.219721     8A    -11.212842     9A     -1.468421
      10A     -1.362564    11A     -1.085275    12A     -1.028383
      13A     -0.980795    14A     -0.880217    15A     -0.813641
      16A     -0.770915    17A     -0.694251    18A     -0.684639
      19A     -0.663554    20A     -0.630325    21A     -0.599258
      22A     -0.591951    23A     -0.570803    24A     -0.557242
      25A     -0.543447    26A     -0.527311    27A     -0.515931
      28A     -0.486478    29A     -0.474661    30A     -0.464682
      31A     -0.449782    32A     -0.437823

  @DF-RHF Final Energy:  -383.94413461098372

   => Energetics <=

    Nuclear Repulsion Energy =            385.1187061769318234
    One-Electron Energy =               -1286.1768945733479086
    Two-Electron Energy =                 517.1140537854319064
    DFT Exchange-Correlation Energy =       0.0000000000000000
    Empirical Dispersion Energy =           0.0000000000000000
    PCM Polarization Energy =               0.0000000000000000
    EFP Energy =                            0.0000000000000000
    Total Energy =                       -383.9441346109841788

  Mulliken Charges: (a.u.)
   Center  Symbol    Alpha    Beta     Spin     Total
       1     O     4.28350  4.28350  0.00000 -0.56700
       2     C     2.61936  2.61936  0.00000  0.76128
       3     C     3.28237  3.28237  0.00000 -0.56474
       4     O     4.30791  4.30791  0.00000 -0.61582
       5     H     0.40017  0.40017  0.00000  0.19966
       6     H     0.39675  0.39675  0.00000  0.20651
       7     H     0.40079  0.40079  0.00000  0.19843
       8     C     3.01033  3.01033  0.00000 -0.02066
       9     C     3.16267  3.16267  0.00000 -0.32534
      10     H     0.41552  0.41552  0.00000  0.16895
      11     H     0.39541  0.39541  0.00000  0.20918
      12     C     3.15505  3.15505  0.00000 -0.31009
      13     H     0.41919  0.41919  0.00000  0.16162
      14     H     0.41558  0.41558  0.00000  0.16883
      15     C     3.24028  3.24028  0.00000 -0.48056
      16     H     0.42328  0.42328  0.00000  0.15344
      17     H     0.41148  0.41148  0.00000  0.17703
      18     H     0.41779  0.41779  0.00000  0.16442
      19     H     0.42177  0.42177  0.00000  0.15646
      20     H     0.42080  0.42080  0.00000  0.15840

   Total alpha = 32.00000, Total beta = 32.00000, Total charge =  0.00000
