  ==> Input File <==

--------------------------------------------------------------------------
set {
	reference rhf
	basis 6-31G*
}

set_num_threads( 1 )
memory 2 gb

molecule MOL {
0 1

H	 -2.710296	 -0.543471	 1.928056
O	 -1.868711	 -0.256024	 1.604199
C	 -2.026376	 0.340750	 0.341611
C	 -0.673256	 0.843270	 -0.132153
H	 -2.420473	 -0.380481	 -0.372147
H	 -2.732366	 1.168585	 0.395656
C	 0.486613	 -0.083066	 0.235839
H	 -0.715586	 0.970948	 -1.210718
H	 -0.508072	 1.829858	 0.297090
C	 1.840406	 0.433480	 -0.254303
H	 0.300215	 -1.068318	 -0.178947
H	 0.519509	 -0.203625	 1.318070
C	 3.000220	 -0.489290	 0.118523
H	 1.809207	 0.553576	 -1.335192
H	 2.021860	 1.424500	 0.157276
H	 2.864959	 -1.479103	 -0.307933
H	 3.946603	 -0.099227	 -0.243630
H	 3.080049	 -0.602997	 1.196117

	symmetry c1
}
set optking {
	frozen_dihedral = ("
		14 10 7 11,
		10 7 4 8,
		1 2 3 4
	")
}

ee = energy('scf')
oeprop('DIPOLE', 'QUADRUPOLE', 'MULLIKEN_CHARGES')
f=open( 'psi4out.xyz', 'w' )
f.write( "18  " )
f.write( str(ee) + "\n" )
f.write( MOL.save_string_xyz() )
f.close()
--------------------------------------------------------------------------

    Molecular point group: c1

    Geometry (in Angstrom), charge = 0, multiplicity = 1:

       Center              X                  Y                   Z               Mass
    ------------   -----------------  -----------------  -----------------  -----------------
           H         -2.791347271054    -0.657324026589     1.575800267807     1.007825032070
           O         -1.949762271054    -0.369877026589     1.251943267807    15.994914619560
           C         -2.107427271054     0.226896973411    -0.010644732193    12.000000000000
           C         -0.754307271054     0.729416973411    -0.484408732193    12.000000000000
           H         -2.501524271054    -0.494334026589    -0.724402732193     1.007825032070
           H         -2.813417271054     1.054731973411     0.043400267807     1.007825032070
           C          0.405561728946    -0.196919026589    -0.116416732193    12.000000000000
           H         -0.796637271054     0.857094973411    -1.562973732193     1.007825032070
           H         -0.589123271054     1.716004973411    -0.055165732193     1.007825032070
           C          1.759354728946     0.319626973411    -0.606558732193    12.000000000000
           H          0.219163728946    -1.182171026589    -0.531202732193     1.007825032070
           H          0.438457728946    -0.317478026589     0.965814267807     1.007825032070
           C          2.919168728946    -0.603143026589    -0.233732732193    12.000000000000
           H          1.728155728946     0.439722973411    -1.687447732193     1.007825032070
           H          1.940808728946     1.310646973411    -0.194979732193     1.007825032070
           H          2.783907728946    -1.592956026589    -0.660188732193     1.007825032070
           H          3.865551728946    -0.213080026589    -0.595885732193     1.007825032070
           H          2.998997728946    -0.716850026589     0.843861267807     1.007825032070

  Charge       = 0
  Multiplicity = 1
  Basis Set: 6-31G*
  Basis Set:

    Orbital Energies (a.u.)
    -----------------------

    Doubly Occupied:

       1A    -20.553253     2A    -11.268007     3A    -11.211335
       4A    -11.208431     5A    -11.202908     6A    -11.202755
       7A     -1.360504     8A     -1.072282     9A     -1.007596
      10A     -0.912623    11A     -0.816617    12A     -0.780737
      13A     -0.701712    14A     -0.651144    15A     -0.618481
      16A     -0.580033    17A     -0.570793    18A     -0.553317
      19A     -0.518728    20A     -0.502001    21A     -0.489472
      22A     -0.464331    23A     -0.453945    24A     -0.443718
      25A     -0.429043

  @DF-RHF Final Energy:  -271.17653584457548

   => Energetics <=

    Nuclear Repulsion Energy =            250.4831837410710875
    One-Electron Energy =                -864.1719723700805389
    Two-Electron Energy =                 342.5122527844337696
    DFT Exchange-Correlation Energy =       0.0000000000000000
    Empirical Dispersion Energy =           0.0000000000000000
    PCM Polarization Energy =               0.0000000000000000
    EFP Energy =                            0.0000000000000000
    Total Energy =                       -271.1765358445756533

  Mulliken Charges: (a.u.)
   Center  Symbol    Alpha    Beta     Spin     Total
       1     H     0.28050  0.28050  0.00000  0.43899
       2     O     4.37003  4.37003  0.00000 -0.74006
       3     C     2.99439  2.99439  0.00000  0.01122
       4     C     3.16625  3.16625  0.00000 -0.33251
       5     H     0.43202  0.43202  0.00000  0.13596
       6     H     0.42932  0.42932  0.00000  0.14136
       7     C     3.14845  3.14845  0.00000 -0.29690
       8     H     0.42285  0.42285  0.00000  0.15430
       9     H     0.41958  0.41958  0.00000  0.16084
      10     C     3.15196  3.15196  0.00000 -0.30392
      11     H     0.42527  0.42527  0.00000  0.14946
      12     H     0.40598  0.40598  0.00000  0.18804
      13     C     3.23858  3.23858  0.00000 -0.47717
      14     H     0.42632  0.42632  0.00000  0.14736
      15     H     0.42396  0.42396  0.00000  0.15209
      16     H     0.42245  0.42245  0.00000  0.15510
      17     H     0.42096  0.42096  0.00000  0.15808
      18     H     0.42112  0.42112  0.00000  0.15777

   Total alpha = 25.00000, Total beta = 25.00000, Total charge = -0.00000
