  ==> Input File <==

--------------------------------------------------------------------------
set {
	reference rhf
	basis 6-31G*
}

set_num_threads( 1 )
memory 2 gb

molecule MOL {
0 1

H	 -2.499100	 -0.730091	 -0.745082
O	 -2.347518	 -0.290803	 0.079804
C	 -1.184022	 0.487508	 -0.006784
C	 0.062599	 -0.378592	 0.031606
H	 -1.176523	 1.099369	 -0.904519
H	 -1.187323	 1.153111	 0.844927
O	 1.171513	 0.459272	 -0.058250
H	 0.050699	 -1.089204	 -0.797170
H	 0.078739	 -0.954914	 0.954740
C	 0.872551	 1.779655	 -0.384368
H	 0.228888	 2.238350	 0.363916
H	 1.805121	 2.325070	 -0.426057
H	 0.379895	 1.847954	 -1.352054

	symmetry c1
}
set optking {
	frozen_dihedral = ("
		8 4 3 5,
		1 2 3 5,
		4 7 10 13
	")
}

ee = energy('scf')
oeprop('DIPOLE', 'QUADRUPOLE', 'MULLIKEN_CHARGES')
f=open( 'psi4out.xyz', 'w' )
f.write( "13  " )
f.write( str(ee) + "\n" )
f.write( MOL.save_string_xyz() )
f.close()
--------------------------------------------------------------------------

    Molecular point group: c1

    Geometry (in Angstrom), charge = 0, multiplicity = 1:

       Center              X                  Y                   Z               Mass
    ------------   -----------------  -----------------  -----------------  -----------------
           H         -2.181762096360    -1.141560181715    -0.665568085965     1.007825032070
           O         -2.030180096360    -0.702272181715     0.159317914035    15.994914619560
           C         -0.866684096360     0.076038818285     0.072729914035    12.000000000000
           C          0.379936903640    -0.790061181715     0.111119914035    12.000000000000
           H         -0.859185096360     0.687899818285    -0.825005085965     1.007825032070
           H         -0.869985096360     0.741641818285     0.924440914035     1.007825032070
           O          1.488850903640     0.047802818285     0.021263914035    15.994914619560
           H          0.368036903640    -1.500673181715    -0.717656085965     1.007825032070
           H          0.396076903640    -1.366383181715     1.034253914035     1.007825032070
           C          1.189888903640     1.368185818285    -0.304854085965    12.000000000000
           H          0.546225903640     1.826880818285     0.443429914035     1.007825032070
           H          2.122458903640     1.913600818285    -0.346543085965     1.007825032070
           H          0.697232903640     1.436484818285    -1.272540085965     1.007825032070

  Charge       = 0
  Multiplicity = 1
  Basis Set: 6-31G*
  Basis Set:

    Orbital Energies (a.u.)
    -----------------------

    Doubly Occupied:

       1A    -20.562663     2A    -20.559209     3A    -11.273527
       4A    -11.271588     5A    -11.270112     6A     -1.392005
       7A     -1.367554     8A     -1.009105     9A     -0.956913
      10A     -0.820952    11A     -0.722540    12A     -0.689013
      13A     -0.662364    14A     -0.632313    15A     -0.584818
      16A     -0.568936    17A     -0.551443    18A     -0.519114
      19A     -0.499337    20A     -0.423122    21A     -0.409532

  @DF-RHF Final Energy:  -267.92048071255039

   => Energetics <=

    Nuclear Repulsion Energy =            197.3203735428543268
    One-Electron Energy =                -756.9892970257494653
    Two-Electron Energy =                 291.7484427703440133
    DFT Exchange-Correlation Energy =       0.0000000000000000
    Empirical Dispersion Energy =           0.0000000000000000
    PCM Polarization Energy =               0.0000000000000000
    EFP Energy =                            0.0000000000000000
    Total Energy =                       -267.9204807125511252

  Mulliken Charges: (a.u.)
   Center  Symbol    Alpha    Beta     Spin     Total
       1     H     0.28141  0.28141  0.00000  0.43718
       2     O     4.37640  4.37640  0.00000 -0.75279
       3     C     3.02171  3.02171  0.00000 -0.04341
       4     C     2.98427  2.98427  0.00000  0.03146
       5     H     0.42335  0.42335  0.00000  0.15330
       6     H     0.40669  0.40669  0.00000  0.18661
       7     O     4.30972  4.30972  0.00000 -0.61944
       8     H     0.43228  0.43228  0.00000  0.13544
       9     H     0.41348  0.41348  0.00000  0.17304
      10     C     3.09456  3.09456  0.00000 -0.18912
      11     H     0.42461  0.42461  0.00000  0.15078
      12     H     0.40533  0.40533  0.00000  0.18933
      13     H     0.42619  0.42619  0.00000  0.14761

   Total alpha = 21.00000, Total beta = 21.00000, Total charge =  0.00000
