                              Psi4 1.0.54 Driver

  ==> Input File <==

--------------------------------------------------------------------------
set {
	reference rhf
	basis cc-pvtz
}

set_num_threads( 4 )
memory 2 gb

molecule MOL {
0 1

H	 2.190573	 -0.629143	 -0.208718
O	 1.355408	 -0.529451	 0.208662
C	 0.700177	 0.619554	 -0.266242
C	 -0.713111	 0.588314	 0.266177
H	 0.678680	 0.627133	 -1.351786
H	 1.199747	 1.521489	 0.077736
O	 -1.421673	 -0.521378	 -0.196983
H	 -1.244794	 1.469161	 -0.069059
H	 -0.685100	 0.604721	 1.352683
H	 -1.176881	 -1.269507	 0.319160

	symmetry c1
}
set optking {
	frozen_dihedral = ("
		10 7 4 3
	")
}

ee,wfn = optimize('scf', return_wfn=True)
oeprop( wfn, 'DIPOLE', 'QUADRUPOLE', 'MULLIKEN_CHARGES')
f=open( 'psi4out.xyz', 'w' )
f.write( "10  " )
f.write( str(ee) + "\n" )
f.write( MOL.save_string_xyz() )
f.close()
--------------------------------------------------------------------------

    Molecular point group: c1
  Charge       = 0
  Multiplicity = 1
  Basis Set: CC-PVTZ
  Basis Set:
  @DF-RHF Final Energy:  -229.02748399404399
    Total Energy =                       -229.0274839940441041
    Molecular point group: c1
  Basis Set: CC-PVTZ
  Basis Set:
  Basis Set: CC-PVTZ
  Basis Set:
  @DF-RHF Final Energy:  -228.99520168785986
    Total Energy =                       -228.9952016878598613
  Basis Set: CC-PVTZ
  Basis Set:
  Basis Set: CC-PVTZ
  Basis Set:
  @DF-RHF Final Energy:  -229.02695982617578
    Total Energy =                       -229.0269598261758688
  Basis Set: CC-PVTZ
  Basis Set:
  Basis Set: CC-PVTZ
  Basis Set:
  @DF-RHF Final Energy:  -229.02767323345225
    Total Energy =                       -229.0276732334523331
  Basis Set: CC-PVTZ
  Basis Set:
  Basis Set: CC-PVTZ
  Basis Set:
  @DF-RHF Final Energy:  -229.02769949080397
    Total Energy =                       -229.0276994908039683
  Basis Set: CC-PVTZ
  Basis Set:
  Basis Set: CC-PVTZ
  Basis Set:
  @DF-RHF Final Energy:  -229.02770735737317
    Total Energy =                       -229.0277073573730036
  Basis Set: CC-PVTZ
  Basis Set:
  Charge       = 0
  Multiplicity = 1
  Basis Set: CC-PVTZ
  Basis Set:

    Orbital Energies (a.u.)
    -----------------------

    Doubly Occupied:

       1A    -20.554845     2A    -20.544399     3A    -11.269815
       4A    -11.267281     5A     -1.380166     6A     -1.356273
       7A     -1.003308     8A     -0.841087     9A     -0.727268
      10A     -0.690919    11A     -0.639379    12A     -0.606256
      13A     -0.579239    14A     -0.525486    15A     -0.495393
      16A     -0.452199    17A     -0.436674

  @DF-RHF Final Energy:  -229.02770751934779

   => Energetics <=

    Nuclear Repulsion Energy =            133.9850097511831279
    One-Electron Energy =                -579.2854624346949777
    Two-Electron Energy =                 216.2727451641641210
    DFT Exchange-Correlation Energy =       0.0000000000000000
    Empirical Dispersion Energy =           0.0000000000000000
    PCM Polarization Energy =               0.0000000000000000
    EFP Energy =                            0.0000000000000000
    Total Energy =                       -229.0277075193477003
    Molecular point group: c1
  Basis Set: CC-PVTZ
  Basis Set:

  -Total Gradient:
     Atom            X                  Y                   Z
    ------   -----------------  -----------------  -----------------
       1        0.000005472680     0.000008324775     0.000005568376
       2       -0.000011978974    -0.000022936853     0.000004614940
       3       -0.000539494760     0.000989981578    -0.001399534617
       4        0.000443879392    -0.001056341737     0.002414881043
       5       -0.000009350916     0.000001925312     0.000006067204
       6       -0.000003856668    -0.000002717708    -0.000000630551
       7        0.001542988361    -0.001180770891    -0.003073950640
       8        0.000014281765     0.000000750232     0.000000020410
       9        0.000009061025    -0.000001832402    -0.000010002446
      10       -0.001451001903     0.001263617693     0.002052966282

  **** Optimization is complete! (in 7 steps) ****
    Final optimized geometry and variables:
    Molecular point group: c1

    Geometry (in Angstrom), charge = 0, multiplicity = 1:

    H            1.907199085522    -1.209559369145    -0.462698445139
    O            1.237295125922    -0.838595028280     0.080639121984
    C            0.756644118881     0.356123539866    -0.478400865197
    C           -0.477616980997     0.767064813531     0.288192435693
    H            0.496089485400     0.217615580748    -1.523040273088
    H            1.504187562219     1.143371051938    -0.409061112700
    O           -1.537921697330    -0.122085865037     0.092281422429
    H           -0.806806510016     1.735827216606    -0.066378638421
    H           -0.233400981092     0.862342951125     1.341970348347
    H           -1.418435123359    -0.876505808800     0.639612780123

  Mulliken Charges: (a.u.)
   Center  Symbol    Alpha    Beta     Spin     Total
       1     H     0.39220  0.39220  0.00000  0.21560
       2     O     4.20486  4.20486  0.00000 -0.40973
       3     C     2.96712  2.96712  0.00000  0.06577
       4     C     2.97104  2.97104  0.00000  0.05791
       5     H     0.47091  0.47091  0.00000  0.05818
       6     H     0.47504  0.47504  0.00000  0.04991
       7     O     4.20727  4.20727  0.00000 -0.41454
       8     H     0.45766  0.45766  0.00000  0.08469
       9     H     0.46683  0.46683  0.00000  0.06634
      10     H     0.38707  0.38707  0.00000  0.22587

   Total alpha = 17.00000, Total beta = 17.00000, Total charge = -0.00000

*** Psi4 exiting successfully. Buy a developer a beer!
