                              Psi4 1.0.54 Driver

  ==> Input File <==

--------------------------------------------------------------------------
set {
	reference rhf
	basis cc-pvtz
}

set_num_threads( 4 )
memory 2 gb

molecule MOL {
0 1

H	 -2.816458	 -0.841657	 -0.064679
N	 -1.878861	 -0.711874	 0.250184
C	 -1.341419	 0.551458	 -0.220231
H	 -1.333674	 -1.468530	 -0.105118
C	 0.082190	 0.731516	 0.254705
H	 -1.357065	 0.652078	 -1.304747
H	 -1.939897	 1.357530	 0.189797
O	 0.082964	 0.832586	 1.646643
H	 0.686703	 -0.118406	 -0.058933
H	 0.503853	 1.631390	 -0.187286
C	 1.331693	 1.070689	 2.206289
H	 1.210371	 1.126111	 3.278480
H	 2.030474	 0.269504	 1.974982
H	 1.754098	 2.008168	 1.852354

	symmetry c1
}
set optking {
	frozen_dihedral = ("
		8 5 3 6
	")
}

ee,wfn = optimize('scf', return_wfn=True)
oeprop( wfn, 'DIPOLE', 'QUADRUPOLE', 'MULLIKEN_CHARGES')
f=open( 'psi4out.xyz', 'w' )
f.write( "14  " )
f.write( str(ee) + "\n" )
f.write( MOL.save_string_xyz() )
f.close()
--------------------------------------------------------------------------

    Molecular point group: c1
  Charge       = 0
  Multiplicity = 1
  Basis Set: CC-PVTZ
  Basis Set:
  @DF-RHF Final Energy:  -248.22083591380647
    Total Energy =                       -248.2208359138062406
    Molecular point group: c1
  Basis Set: CC-PVTZ
  Basis Set:
  Basis Set: CC-PVTZ
  Basis Set:
  @DF-RHF Final Energy:  -248.22127117225116
    Total Energy =                       -248.2212711722510790
  Basis Set: CC-PVTZ
  Basis Set:
  Basis Set: CC-PVTZ
  Basis Set:
  @DF-RHF Final Energy:  -248.22134792955893
    Total Energy =                       -248.2213479295588741
  Basis Set: CC-PVTZ
  Basis Set:
  Basis Set: CC-PVTZ
  Basis Set:
  @DF-RHF Final Energy:  -248.22135796194442
    Total Energy =                       -248.2213579619443635
  Basis Set: CC-PVTZ
  Basis Set:
  Basis Set: CC-PVTZ
  Basis Set:
  @DF-RHF Final Energy:  -248.22136384085917
    Total Energy =                       -248.2213638408588849
  Basis Set: CC-PVTZ
  Basis Set:
  Basis Set: CC-PVTZ
  Basis Set:
  @DF-RHF Final Energy:  -248.22136793856870
    Total Energy =                       -248.2213679385685055
  Basis Set: CC-PVTZ
  Basis Set:
  Basis Set: CC-PVTZ
  Basis Set:
  @DF-RHF Final Energy:  -248.22137120818749
    Total Energy =                       -248.2213712081874633
  Basis Set: CC-PVTZ
  Basis Set:
  Charge       = 0
  Multiplicity = 1
  Basis Set: CC-PVTZ
  Basis Set:

    Orbital Energies (a.u.)
    -----------------------

    Doubly Occupied:

       1A    -20.543666     2A    -15.525565     3A    -11.264968
       4A    -11.259244     5A    -11.241865     6A     -1.380337
       7A     -1.177443     8A     -0.999839     9A     -0.904153
      10A     -0.818042    11A     -0.683867    12A     -0.667454
      13A     -0.650038    14A     -0.619002    15A     -0.593672
      16A     -0.556925    17A     -0.519545    18A     -0.502402
      19A     -0.465052    20A     -0.415569    21A     -0.383057

  @DF-RHF Final Energy:  -248.22137133614655

   => Energetics <=

    Nuclear Repulsion Energy =            193.6560496865080836
    One-Electron Energy =                -721.4114328451414622
    Two-Electron Energy =                 279.5340118224870025
    DFT Exchange-Correlation Energy =       0.0000000000000000
    Empirical Dispersion Energy =           0.0000000000000000
    PCM Polarization Energy =               0.0000000000000000
    EFP Energy =                            0.0000000000000000
    Total Energy =                       -248.2213713361463192
    Molecular point group: c1
  Basis Set: CC-PVTZ
  Basis Set:

  -Total Gradient:
     Atom            X                  Y                   Z
    ------   -----------------  -----------------  -----------------
       1        0.000020419759    -0.000008961077    -0.000002217272
       2       -0.000002247777    -0.000002602567     0.000001891014
       3       -0.000245387052     0.001201434460     0.000120984330
       4       -0.000017613482     0.000008005615     0.000001196073
       5       -0.000108798195     0.001084030182    -0.000141185299
       6        0.000229029618    -0.001262131528    -0.000070907785
       7        0.000001855569     0.000004197809    -0.000000414935
       8        0.000128426041    -0.001014867146     0.000107626578
       9        0.000000796856    -0.000004629177    -0.000007968765
      10        0.000001584805    -0.000001534193    -0.000004896225
      11       -0.000006810563    -0.000001972691    -0.000000707878
      12       -0.000001507667     0.000000016263    -0.000000640129
      13        0.000002047821    -0.000001034632    -0.000000995754
      14       -0.000001795731     0.000000048682    -0.000001763952

  **** Optimization is complete! (in 8 steps) ****
    Final optimized geometry and variables:
    Molecular point group: c1

    Geometry (in Angstrom), charge = 0, multiplicity = 1:

    H           -2.527753780686    -1.307414055515    -0.774845839178
    N           -1.558916492905    -1.224803726290    -0.553508408700
    C           -1.018421253539     0.031086145908    -1.040254078391
    H           -1.090487122638    -2.003563610309    -0.966818417423
    C            0.402129271528     0.258923341929    -0.567047682772
    H           -1.011569456958     0.095355628431    -2.129294433767
    H           -1.638437390033     0.837501972861    -0.668802428133
    O            0.436645601324     0.415036222355     0.811801840795
    H            1.028685806993    -0.583154444391    -0.867023016071
    H            0.800729535670     1.146501399378    -1.058632099729
    C            1.709464578660     0.580663794318     1.338081266932
    H            1.612788240867     0.697701639234     2.407664266479
    H            2.340204711271    -0.283090129784     1.137254501982
    H            2.199869858090     1.464129939912     0.932815152236

  Mulliken Charges: (a.u.)
   Center  Symbol    Alpha    Beta     Spin     Total
       1     H     0.42913  0.42913  0.00000  0.14175
       2     N     3.68276  3.68276  0.00000 -0.36552
       3     C     3.02496  3.02496  0.00000 -0.04993
       4     H     0.43331  0.43331  0.00000  0.13337
       5     C     2.96430  2.96430  0.00000  0.07140
       6     H     0.46945  0.46945  0.00000  0.06111
       7     H     0.45428  0.45428  0.00000  0.09145
       8     O     4.16498  4.16498  0.00000 -0.32996
       9     H     0.47942  0.47942  0.00000  0.04117
      10     H     0.47210  0.47210  0.00000  0.05579
      11     C     3.03203  3.03203  0.00000 -0.06406
      12     H     0.44644  0.44644  0.00000  0.10711
      13     H     0.47286  0.47286  0.00000  0.05427
      14     H     0.47398  0.47398  0.00000  0.05205

   Total alpha = 21.00000, Total beta = 21.00000, Total charge =  0.00000

*** Psi4 exiting successfully. Buy a developer a beer!
