                              Psi4 1.0.54 Driver

  ==> Input File <==

--------------------------------------------------------------------------
set {
	reference rhf
	basis cc-pvtz
}

set_num_threads( 4 )
memory 2 gb

molecule MOL {
0 1

O	 -1.870514	 -2.152070	 0.708083
C	 -0.836078	 -1.681968	 0.375223
C	 0.477045	 -2.421277	 0.320530
O	 -0.695554	 -0.422406	 0.000602
C	 0.368919	 -3.877732	 0.742452
H	 1.176712	 -1.879459	 0.947307
H	 0.854588	 -2.330425	 -0.691964
H	 0.007686	 -3.963094	 1.758544
H	 1.339451	 -4.355108	 0.683061
H	 -0.317378	 -4.418180	 0.104377
C	 -1.852370	 0.402254	 0.000718
C	 -3.063338	 -0.501097	 -0.000437
H	 -1.831732	 1.039442	 -0.872158
H	 -1.832493	 1.038301	 0.874430
H	 -3.071944	 -1.133732	 -0.879113
H	 -3.966302	 0.097976	 -0.000483
H	 -3.072764	 -1.134834	 0.877435

	symmetry c1
}
set optking {
	frozen_dihedral = ("
		2 4 11 13
	")
}

ee,wfn = optimize('scf', return_wfn=True)
oeprop( wfn, 'DIPOLE', 'QUADRUPOLE', 'MULLIKEN_CHARGES')
f=open( 'psi4out.xyz', 'w' )
f.write( "17  " )
f.write( str(ee) + "\n" )
f.write( MOL.save_string_xyz() )
f.close()
--------------------------------------------------------------------------

    Molecular point group: c1
  Charge       = 0
  Multiplicity = 1
  Basis Set: CC-PVTZ
  Basis Set:
  @DF-RHF Final Energy:  -344.97167305112038
    Total Energy =                       -344.9716730511206038
    Molecular point group: c1
  Basis Set: CC-PVTZ
  Basis Set:
  Basis Set: CC-PVTZ
  Basis Set:
  @DF-RHF Final Energy:  -344.77707247985779
    Total Energy =                       -344.7770724798581341
  Basis Set: CC-PVTZ
  Basis Set:
  Basis Set: CC-PVTZ
  Basis Set:
  @DF-RHF Final Energy:  -344.92613018173205
    Total Energy =                       -344.9261301817318781
  Basis Set: CC-PVTZ
  Basis Set:
  Basis Set: CC-PVTZ
  Basis Set:
  @DF-RHF Final Energy:  -344.99496104857496
    Total Energy =                       -344.9949610485749645
  Basis Set: CC-PVTZ
  Basis Set:
  @DF-RHF Final Energy:  -345.02272874344220
    Total Energy =                       -345.0227287434419168
  @DF-RHF Final Energy:  -345.02770654715232
    Total Energy =                       -345.0277065471522064
  @DF-RHF Final Energy:  -345.02795387113207
    Total Energy =                       -345.0279538711321834
  @DF-RHF Final Energy:  -345.00925909028564
    Total Energy =                       -345.0092590902856386
  @DF-RHF Final Energy:  -345.02818599029678
    Total Energy =                       -345.0281859902966062
  @DF-RHF Final Energy:  -345.02919044937295
    Total Energy =                       -345.0291904493731181
  Basis Set: CC-PVTZ
  Basis Set:
  @DF-RHF Final Energy:  -345.02930388007837
    Total Energy =                       -345.0293038800779755
  Basis Set: CC-PVTZ
  Basis Set:
  Basis Set: CC-PVTZ
  Basis Set:
  @DF-RHF Final Energy:  -345.02931707358414
    Total Energy =                       -345.0293170735839112
  Basis Set: CC-PVTZ
  Basis Set:
  Basis Set: CC-PVTZ
  Basis Set:
  @DF-RHF Final Energy:  -345.02932437674338
    Total Energy =                       -345.0293243767433182
  Basis Set: CC-PVTZ
  Basis Set:
  Charge       = 0
  Multiplicity = 1
  Basis Set: CC-PVTZ
  Basis Set:

    Orbital Energies (a.u.)
    -----------------------

    Doubly Occupied:

       1A    -20.589776     2A    -20.529177     3A    -11.364633
       4A    -11.289038     5A    -11.233249     6A    -11.213680
       7A    -11.211923     8A     -1.463107     9A     -1.364280
      10A     -1.068261    11A     -1.028595    12A     -0.919862
      13A     -0.858645    14A     -0.743357    15A     -0.695475
      16A     -0.683253    17A     -0.671808    18A     -0.629894
      19A     -0.604267    20A     -0.568326    21A     -0.545610
      22A     -0.529354    23A     -0.523004    24A     -0.517562
      25A     -0.494549    26A     -0.491348    27A     -0.447637
      28A     -0.430806

  @DF-RHF Final Energy:  -345.02932486829752

   => Energetics <=

    Nuclear Repulsion Energy =            319.1535403439362426
    One-Electron Energy =               -1102.9447843429845761
    Two-Electron Energy =                 438.7619191307505844
    DFT Exchange-Correlation Energy =       0.0000000000000000
    Empirical Dispersion Energy =           0.0000000000000000
    PCM Polarization Energy =               0.0000000000000000
    EFP Energy =                            0.0000000000000000
    Total Energy =                       -345.0293248682977492
    Molecular point group: c1
  Basis Set: CC-PVTZ
  Basis Set:

  -Total Gradient:
     Atom            X                  Y                   Z
    ------   -----------------  -----------------  -----------------
       1        0.000010667770    -0.000025524431     0.000059107334
       2        0.003791049636     0.000651767406    -0.001827481155
       3        0.000042407497     0.000005331313    -0.000027793585
       4       -0.005371219919    -0.001416097236     0.002318807260
       5       -0.000012451211     0.000013249625    -0.000003559136
       6       -0.000016292452     0.000001106413     0.000012947575
       7       -0.000011940831     0.000012910480     0.000013457602
       8       -0.000003378792    -0.000011518296     0.000001228140
       9       -0.000002187484     0.000004004345    -0.000000253293
      10        0.000001186705    -0.000005730413    -0.000003577046
      11       -0.001139702973     0.002561582607     0.002314641845
      12       -0.000037981935     0.000037943582    -0.000037535155
      13        0.002732647058    -0.001840584612    -0.002813791058
      14       -0.000001347265    -0.000004534999    -0.000004450116
      15        0.000010494429     0.000004113447    -0.000002575812
      16        0.000005152125     0.000003623488    -0.000004460418
      17        0.000002897641     0.000008357283     0.000005287018

  **** Optimization is complete! (in 14 steps) ****
    Final optimized geometry and variables:
    Molecular point group: c1

    Geometry (in Angstrom), charge = 0, multiplicity = 1:

    O           -0.333420653510    -1.056601696157    -0.473384991677
    C            0.068641594942    -0.242508230164     0.285000257945
    C            0.948850094053    -0.544967094861     1.474907069769
    O           -0.199386311748     1.049067283343     0.231995542992
    C            1.238418868665    -2.026569754769     1.652674251433
    H            0.462625164443    -0.129217327533     2.350036182012
    H            1.864429157859     0.022412884820     1.347560353361
    H            0.324696874935    -2.587891239960     1.796082608045
    H            1.872971420473    -2.180180552556     2.517181641184
    H            1.739308244303    -2.433003920335     0.784364925231
    C           -0.841890456155     1.732618487633    -0.844518006584
    C           -0.838808821374     1.080451928527    -2.216479601410
    H           -0.292211165377     2.659654411370    -0.917956019492
    H           -1.852768711814     1.947855446565    -0.526458674670
    H            0.161484981193     0.801105376745    -2.520537989185
    H           -1.207121783525     1.823044779501    -2.917062939977
    H           -1.466323164794     0.207401893238    -2.268434476327

  Mulliken Charges: (a.u.)
   Center  Symbol    Alpha    Beta     Spin     Total
       1     O     4.19804  4.19804  0.00000 -0.39607
       2     C     2.80464  2.80464  0.00000  0.39072
       3     C     3.09209  3.09209  0.00000 -0.18417
       4     O     4.15553  4.15553  0.00000 -0.31106
       5     C     3.14003  3.14003  0.00000 -0.28006
       6     H     0.44094  0.44094  0.00000  0.11812
       7     H     0.44370  0.44370  0.00000  0.11260
       8     H     0.44901  0.44901  0.00000  0.10197
       9     H     0.45095  0.45095  0.00000  0.09811
      10     H     0.44863  0.44863  0.00000  0.10273
      11     C     2.98217  2.98217  0.00000  0.03566
      12     C     3.15215  3.15215  0.00000 -0.30429
      13     H     0.45104  0.45104  0.00000  0.09793
      14     H     0.45418  0.45418  0.00000  0.09163
      15     H     0.44945  0.44945  0.00000  0.10110
      16     H     0.45198  0.45198  0.00000  0.09603
      17     H     0.43547  0.43547  0.00000  0.12905

   Total alpha = 28.00000, Total beta = 28.00000, Total charge = -0.00000

*** Psi4 exiting successfully. Buy a developer a beer!
