                              Psi4 1.0.54 Driver

  ==> Input File <==

--------------------------------------------------------------------------
set {
	reference rhf
	basis cc-pvtz
}

set_num_threads( 4 )
memory 2 gb

molecule MOL {
0 1

H	 0.984828	 2.693481	 -2.391218
O	 1.658602	 2.387465	 -1.810611
C	 1.183106	 1.480509	 -0.938880
C	 2.075728	 0.945167	 -0.021409
C	 -0.135617	 1.078890	 -0.933414
H	 3.096655	 1.271351	 -0.043055
C	 1.645891	 0.012932	 0.894850
H	 -0.845518	 1.475108	 -1.629367
C	 -0.532034	 0.141680	 0.000000
H	 2.342830	 -0.395319	 1.600083
C	 0.326200	 -0.406263	 0.920041
N	 -1.937041	 -0.281114	 0.000000
H	 -0.021665	 -1.128959	 1.625324
O	 -2.159542	 -1.446261	 0.000000
O	 -2.764978	 0.565773	 0.000000

	symmetry c1
}
set optking {
	frozen_dihedral = ("
		11 9 12 14
	")
}

ee,wfn = optimize('scf', return_wfn=True)
oeprop( wfn, 'DIPOLE', 'QUADRUPOLE', 'MULLIKEN_CHARGES')
f=open( 'psi4out.xyz', 'w' )
f.write( "15  " )
f.write( str(ee) + "\n" )
f.write( MOL.save_string_xyz() )
f.close()
--------------------------------------------------------------------------

    Molecular point group: c1
  Charge       = 0
  Multiplicity = 1
  Basis Set: CC-PVTZ
  Basis Set:
  @DF-RHF Final Energy:  -509.21416621904592
    Total Energy =                       -509.2141662190459783
    Molecular point group: c1
  Basis Set: CC-PVTZ
  Basis Set:
  Basis Set: CC-PVTZ
  Basis Set:
  @DF-RHF Final Energy:  -509.20756381938355
    Total Energy =                       -509.2075638193837221
  Basis Set: CC-PVTZ
  Basis Set:
  Basis Set: CC-PVTZ
  Basis Set:
  @DF-RHF Final Energy:  -509.21334549547197
    Total Energy =                       -509.2133454954719127
  Basis Set: CC-PVTZ
  Basis Set:
  Basis Set: CC-PVTZ
  Basis Set:
  @DF-RHF Final Energy:  -509.21449263877213
    Total Energy =                       -509.2144926387720716
  Basis Set: CC-PVTZ
  Basis Set:
  Basis Set: CC-PVTZ
  Basis Set:
  @DF-RHF Final Energy:  -509.21445501516928
    Total Energy =                       -509.2144550151692783
  Basis Set: CC-PVTZ
  Basis Set:
  Basis Set: CC-PVTZ
  Basis Set:
  @DF-RHF Final Energy:  -509.21463194067559
    Total Energy =                       -509.2146319406756447
  Basis Set: CC-PVTZ
  Basis Set:
  Charge       = 0
  Multiplicity = 1
  Basis Set: CC-PVTZ
  Basis Set:

    Orbital Energies (a.u.)
    -----------------------

    Doubly Occupied:

       1A    -20.609786     2A    -20.598270     3A    -20.597583
       4A    -15.850314     5A    -11.329626     6A    -11.311911
       7A    -11.264549     8A    -11.263836     9A    -11.258780
      10A    -11.253405    11A     -1.645868    12A     -1.442602
      13A     -1.428934    14A     -1.204139    15A     -1.096629
      16A     -1.049508    17A     -0.966990    18A     -0.885014
      19A     -0.832972    20A     -0.794095    21A     -0.764547
      22A     -0.740734    23A     -0.724927    24A     -0.712425
      25A     -0.674657    26A     -0.636352    27A     -0.623014
      28A     -0.597421    29A     -0.564212    30A     -0.549163
      31A     -0.531394    32A     -0.494986    33A     -0.490806
      34A     -0.459626    35A     -0.377892    36A     -0.346583

  @DF-RHF Final Energy:  -509.21463240286073

   => Energetics <=

    Nuclear Repulsion Energy =            504.4333253806381663
    One-Electron Energy =               -1695.3488151022054353
    Two-Electron Energy =                 681.7008573187069942
    DFT Exchange-Correlation Energy =       0.0000000000000000
    Empirical Dispersion Energy =           0.0000000000000000
    PCM Polarization Energy =               0.0000000000000000
    EFP Energy =                            0.0000000000000000
    Total Energy =                       -509.2146324028601612
    Molecular point group: c1
  Basis Set: CC-PVTZ
  Basis Set:

  -Total Gradient:
     Atom            X                  Y                   Z
    ------   -----------------  -----------------  -----------------
       1        0.000000252218    -0.000007288940    -0.000003670107
       2        0.000008745415     0.000014938029    -0.000008627201
       3       -0.000030530608     0.000010390543     0.000044452240
       4        0.000009022624    -0.000008253943    -0.000004178654
       5       -0.000001371602    -0.000014823799    -0.000034722012
       6       -0.000001428780     0.000000441362     0.000001373747
       7        0.000021417936    -0.000012803669    -0.000007855856
       8        0.000005708181    -0.000001373068     0.000003929145
       9        0.001350544368    -0.005047233630    -0.005897460845
      10       -0.000000447664     0.000004584064     0.000005508042
      11       -0.000943641955     0.003414510275     0.002770419408
      12       -0.000413660115     0.001792953227     0.008244187458
      13        0.000003756971     0.000006411876    -0.000003313544
      14        0.000036740670    -0.000238251851    -0.005115118993
      15       -0.000045107654     0.000085799525     0.000005077170

  **** Optimization is complete! (in 7 steps) ****
    Final optimized geometry and variables:
    Molecular point group: c1

    Geometry (in Angstrom), charge = 0, multiplicity = 1:

    H            1.118568122422     2.225919475855    -2.178752076628
    O            1.791004381143     1.922028119938    -1.595554055674
    C            1.315367797188     1.021238651219    -0.719345816734
    C            2.203316523960     0.504067630325     0.213469809202
    C           -0.003547809764     0.615380787043    -0.715828956091
    H            3.220306082760     0.842173217468     0.200583918822
    C            1.772390653123    -0.420317492785     1.136815101734
    H           -0.719249975943     1.023279534742    -1.401563503433
    C           -0.387391379396    -0.335455065005     0.204811248207
    H            2.463363346368    -0.804924249965     1.861095472523
    C            0.459112478290    -0.862157930449     1.144229664101
    N           -1.794399511676    -0.737906126166     0.224762813165
    H            0.112042061322    -1.591944713651     1.845440402942
    O           -2.025096440553    -1.898902098169     0.270167463372
    O           -2.606021628452     0.123927737392     0.159607041583

  Mulliken Charges: (a.u.)
   Center  Symbol    Alpha    Beta     Spin     Total
       1     H     0.38446  0.38446  0.00000  0.23109
       2     O     4.16747  4.16747  0.00000 -0.33495
       3     C     2.84360  2.84360  0.00000  0.31281
       4     C     3.10234  3.10234  0.00000 -0.20468
       5     C     3.14056  3.14056  0.00000 -0.28112
       6     H     0.41376  0.41376  0.00000  0.17247
       7     C     3.05293  3.05293  0.00000 -0.10586
       8     H     0.41699  0.41699  0.00000  0.16602
       9     C     2.93379  2.93379  0.00000  0.13242
      10     H     0.41625  0.41625  0.00000  0.16750
      11     C     3.10722  3.10722  0.00000 -0.21444
      12     N     3.27626  3.27626  0.00000  0.44748
      13     H     0.40835  0.40835  0.00000  0.18329
      14     O     4.16651  4.16651  0.00000 -0.33301
      15     O     4.16951  4.16951  0.00000 -0.33903

   Total alpha = 36.00000, Total beta = 36.00000, Total charge = -0.00000

*** Psi4 exiting successfully. Buy a developer a beer!
