  ==> Input File <==

--------------------------------------------------------------------------
set {
	reference rhf
	basis 6-31G*
}

set_num_threads( 1 )
memory 2 gb

molecule MOL {
0 1

H	 -2.646374	 -0.642757	 1.268656
C	 -2.083525	 -0.384536	 0.393091
O	 -0.807605	 -0.127164	 0.768327
F	 -2.118945	 -1.383102	 -0.486752
F	 -2.621877	 0.670592	 -0.209486
C	 0.137144	 0.037049	 -0.228252
C	 1.349245	 -0.796804	 0.166285
Cl	 0.582694	 1.742599	 -0.400876
H	 -0.213273	 -0.307290	 -1.185546
F	 2.291141	 -0.699589	 -0.747784
F	 0.986259	 -2.061387	 0.246967
F	 1.844866	 -0.432484	 1.323698

	symmetry c1
}
set optking {
	frozen_dihedral = ("
		10 7 6 9,
		9 6 3 2
	")
}

ee = energy('scf')
oeprop('DIPOLE', 'QUADRUPOLE', 'MULLIKEN_CHARGES')
f=open( 'psi4out.xyz', 'w' )
f.write( "12  " )
f.write( str(ee) + "\n" )
f.write( MOL.save_string_xyz() )
f.close()
--------------------------------------------------------------------------

    Molecular point group: c1

    Geometry (in Angstrom), charge = 0, multiplicity = 1:

       Center              X                  Y                   Z               Mass
    ------------   -----------------  -----------------  -----------------  -----------------
           H         -2.671691728003    -0.479723776696     1.242921493260     1.007825032070
           C         -2.108842728003    -0.221502776696     0.367356493260    12.000000000000
           O         -0.832922728003     0.035869223304     0.742592493260    15.994914619560
           F         -2.144262728003    -1.220068776696    -0.512486506740    18.998403224000
           F         -2.647194728003     0.833625223304    -0.235220506740    18.998403224000
           C          0.111826271997     0.200082223304    -0.253986506740    12.000000000000
           C          1.323927271997    -0.633770776696     0.140550493260    12.000000000000
          CL          0.557376271997     1.905632223304    -0.426610506740    34.968852682000
           H         -0.238590728003    -0.144256776696    -1.211280506740     1.007825032070
           F          2.265823271997    -0.536555776696    -0.773518506740    18.998403224000
           F          0.960941271997    -1.898353776696     0.221232493260    18.998403224000
           F          1.819548271997    -0.269450776696     1.297963493260    18.998403224000

  Charge       = 0
  Multiplicity = 1
  Basis Set: 6-31G*
  Basis Set:

    Orbital Energies (a.u.)
    -----------------------

    Doubly Occupied:

       1A   -104.843123     2A    -26.360022     3A    -26.359026
       4A    -26.357703     5A    -26.349454     6A    -26.343654
       7A    -20.649894     8A    -11.527504     9A    -11.489880
      10A    -11.399932    11A    -10.577855    12A     -8.047216
      13A     -8.043674    14A     -8.043583    15A     -1.761186
      16A     -1.718272    17A     -1.657608    18A     -1.656458
      19A     -1.638769    20A     -1.486177    21A     -1.179548
      22A     -1.051688    23A     -0.986822    24A     -0.919492
      25A     -0.860567    26A     -0.852735    27A     -0.845815
      28A     -0.822903    29A     -0.812035    30A     -0.790094
      31A     -0.727638    32A     -0.726401    33A     -0.707077
      34A     -0.701208    35A     -0.678638    36A     -0.675154
      37A     -0.658372    38A     -0.657574    39A     -0.643481
      40A     -0.634875    41A     -0.597829    42A     -0.581177
      43A     -0.524287    44A     -0.475880    45A     -0.468145

  @DF-RHF Final Energy: -1146.31383507233068

   => Energetics <=

    Nuclear Repulsion Energy =            737.8411628295658602
    One-Electron Energy =               -3058.5289922479369125
    Two-Electron Energy =                1174.3739943460361701
    DFT Exchange-Correlation Energy =       0.0000000000000000
    Empirical Dispersion Energy =           0.0000000000000000
    PCM Polarization Energy =               0.0000000000000000
    EFP Energy =                            0.0000000000000000
    Total Energy =                      -1146.3138350723349959

  Mulliken Charges: (a.u.)
   Center  Symbol    Alpha    Beta     Spin     Total
       1     H     0.40144  0.40144  0.00000  0.19712
       2     C     2.56410  2.56410  0.00000  0.87180
       3     O     4.29898  4.29898  0.00000 -0.59797
       4     F     4.68682  4.68682  0.00000 -0.37364
       5     F     4.68350  4.68350  0.00000 -0.36699
       6     C     3.04869  3.04869  0.00000 -0.09737
       7     C     2.43322  2.43322  0.00000  1.13355
       8    CL     8.49909  8.49909  0.00000  0.00183
       9     H     0.36542  0.36542  0.00000  0.26917
      10     F     4.67395  4.67395  0.00000 -0.34791
      11     F     4.67627  4.67627  0.00000 -0.35255
      12     F     4.66852  4.66852  0.00000 -0.33704

   Total alpha = 45.00000, Total beta = 45.00000, Total charge =  0.00000
