                              Psi4 1.0.54 Driver

  ==> Input File <==

--------------------------------------------------------------------------
set {
	reference rhf
	basis cc-pvtz
}

set_num_threads( 4 )
memory 2 gb

molecule MOL {
0 1

H	 -2.874786	 -0.118149	 -1.556714
O	 -3.458596	 0.315260	 -0.960865
C	 -3.176635	 -0.080824	 0.355601
C	 -1.763371	 0.265266	 0.799691
H	 -3.321825	 -1.153438	 0.379502
H	 -3.895468	 0.357385	 1.043382
C	 -0.673390	 -0.426948	 -0.013392
H	 -1.631049	 1.344913	 0.747560
H	 -1.664587	 -0.001624	 1.849167
C	 0.737842	 -0.043159	 0.423759
H	 -0.806103	 -0.190518	 -1.063345
H	 -0.797221	 -1.503753	 0.074146
C	 1.824000	 -0.743224	 -0.390623
H	 0.850588	 1.033777	 0.343840
H	 0.868587	 -0.286314	 1.476203
C	 3.255957	 -0.453067	 0.062319
H	 1.718250	 -0.470599	 -1.438164
H	 1.658105	 -1.815850	 -0.339904
C	 3.707029	 0.992337	 -0.133857
H	 3.928201	 -1.104096	 -0.488158
H	 3.362667	 -0.724561	 1.109374
H	 3.605811	 1.294044	 -1.171549
H	 4.748333	 1.111029	 0.143343
H	 3.129882	 1.683078	 0.468956

	symmetry c1
}
set optking {
	frozen_dihedral = ("
		1 2 3 5
	")
}

ee,wfn = optimize('scf', return_wfn=True)
oeprop( wfn, 'DIPOLE', 'QUADRUPOLE', 'MULLIKEN_CHARGES')
f=open( 'psi4out.xyz', 'w' )
f.write( "24  " )
f.write( str(ee) + "\n" )
f.write( MOL.save_string_xyz() )
f.close()
--------------------------------------------------------------------------

    Molecular point group: c1
  Charge       = 0
  Multiplicity = 1
  Basis Set: CC-PVTZ
  Basis Set:
  @DF-RHF Final Energy:  -349.37813524337338
    Total Energy =                       -349.3781352433734924
    Molecular point group: c1
  Basis Set: CC-PVTZ
  Basis Set:
  Basis Set: CC-PVTZ
  Basis Set:
  @DF-RHF Final Energy:  -349.14631859413987
    Total Energy =                       -349.1463185941393590
  Basis Set: CC-PVTZ
  Basis Set:
  Basis Set: CC-PVTZ
  Basis Set:
  @DF-RHF Final Energy:  -349.27855877396064
    Total Energy =                       -349.2785587739609809
  Basis Set: CC-PVTZ
  Basis Set:
  Basis Set: CC-PVTZ
  Basis Set:
  @DF-RHF Final Energy:  -349.36243058329080
    Total Energy =                       -349.3624305832910864
  Basis Set: CC-PVTZ
  Basis Set:
  @DF-RHF Final Energy:  -349.37820091933321
    Total Energy =                       -349.3782009193332669
  @DF-RHF Final Energy:  -349.37981888157594
    Total Energy =                       -349.3798188815763410
  @DF-RHF Final Energy:  -349.38002320754708
    Total Energy =                       -349.3800232075468557
  Basis Set: CC-PVTZ
  Basis Set:
  @DF-RHF Final Energy:  -349.38002837958607
    Total Energy =                       -349.3800283795862356
  Basis Set: CC-PVTZ
  Basis Set:
  Basis Set: CC-PVTZ
  Basis Set:
  @DF-RHF Final Energy:  -349.38003711658075
    Total Energy =                       -349.3800371165809224
  Basis Set: CC-PVTZ
  Basis Set:
  Basis Set: CC-PVTZ
  Basis Set:
  @DF-RHF Final Energy:  -349.38003947422459
    Total Energy =                       -349.3800394742250433
  Basis Set: CC-PVTZ
  Basis Set:
  Charge       = 0
  Multiplicity = 1
  Basis Set: CC-PVTZ
  Basis Set:

    Orbital Energies (a.u.)
    -----------------------

    Doubly Occupied:

       1A    -20.544936     2A    -11.264756     3A    -11.218873
       4A    -11.215237     5A    -11.214941     6A    -11.214500
       7A    -11.213896     8A    -11.207472     9A     -1.363071
      10A     -1.094426    11A     -1.052047    12A     -0.989282
      13A     -0.920499    14A     -0.854590    15A     -0.798759
      16A     -0.781118    17A     -0.693962    18A     -0.653866
      19A     -0.629172    20A     -0.611182    21A     -0.605886
      22A     -0.589290    23A     -0.562418    24A     -0.538529
      25A     -0.526865    26A     -0.512518    27A     -0.494538
      28A     -0.484144    29A     -0.477004    30A     -0.463105
      31A     -0.458207    32A     -0.445387    33A     -0.426609

  @DF-RHF Final Energy:  -349.38003957384080

   => Energetics <=

    Nuclear Repulsion Energy =            384.8652216877683259
    One-Electron Energy =               -1236.2483554741452281
    Two-Electron Energy =                 502.0030942125357569
    DFT Exchange-Correlation Energy =       0.0000000000000000
    Empirical Dispersion Energy =           0.0000000000000000
    PCM Polarization Energy =               0.0000000000000000
    EFP Energy =                            0.0000000000000000
    Total Energy =                       -349.3800395738411453
    Molecular point group: c1
  Basis Set: CC-PVTZ
  Basis Set:

  -Total Gradient:
     Atom            X                  Y                   Z
    ------   -----------------  -----------------  -----------------
       1        0.000569906546     0.000187914345     0.000135208164
       2       -0.000803261239    -0.000160844266    -0.000068368632
       3        0.000666505615    -0.000257806450    -0.000295304283
       4       -0.000006695176    -0.000006597621     0.000001286122
       5       -0.000417151204     0.000204125197     0.000253216622
       6        0.000009647300     0.000015219374    -0.000023196458
       7       -0.000002283359    -0.000002261656    -0.000009714032
       8        0.000006451784     0.000015034092     0.000010509169
       9       -0.000007912714     0.000002087221    -0.000006868823
      10        0.000000300468     0.000001390640     0.000006927869
      11       -0.000009686243    -0.000001197623    -0.000000696469
      12       -0.000007752231    -0.000011721937    -0.000001261154
      13        0.000006035534     0.000006234679    -0.000003742783
      14        0.000015398442     0.000014100066     0.000010733293
      15       -0.000003163633     0.000000563827    -0.000009575626
      16        0.000002014851     0.000000339458    -0.000007098869
      17        0.000001681952    -0.000005065485     0.000007896053
      18       -0.000001400003    -0.000010422085    -0.000002396442
      19       -0.000007426218     0.000000683243     0.000002716689
      20       -0.000003369009     0.000008053166     0.000002669274
      21       -0.000000094161     0.000010106359    -0.000002842094
      22       -0.000000598422    -0.000008213514     0.000005674437
      23       -0.000007311149     0.000001469302    -0.000002070138
      24        0.000000162275    -0.000003190336    -0.000003701891

  **** Optimization is complete! (in 11 steps) ****
    Final optimized geometry and variables:
    Molecular point group: c1

    Geometry (in Angstrom), charge = 0, multiplicity = 1:

    H           -2.736994571030     1.662546911084    -1.081630690121
    O           -3.030372881732     2.037095196138    -0.271966072952
    C           -2.902510151071     1.104844786501     0.768208101087
    C           -1.463052721432     0.710300812739     1.062566495585
    H           -3.499189089636     0.218843124493     0.558644627826
    H           -3.332499186199     1.579106597631     1.639994342890
    C           -0.774289249099    -0.048443607388    -0.069489072620
    H           -0.899330799549     1.607819465458     1.298621038590
    H           -1.463432716089     0.093168988416     1.957694809755
    C            0.650513132827    -0.476090447998     0.274444408226
    H           -0.743204252059     0.570856027468    -0.962658486465
    H           -1.362001439168    -0.928227632529    -0.323103133431
    C            1.341036309823    -1.224880061277    -0.863688239716
    H            1.224946181489     0.404470159402     0.543462662735
    H            0.629316240398    -1.109555973152     1.158241361347
    C            2.740716055308    -1.746294054925    -0.533579810527
    H            1.398019298712    -0.578233666721    -1.736507553266
    H            0.719328973334    -2.068187600633    -1.152231669710
    C            3.785739681995    -0.659853676634    -0.291614919740
    H            3.075048927243    -2.373245913603    -1.354415888698
    H            2.685414984422    -2.393557549695     0.337750122594
    H            3.857891608370     0.007697928244    -1.144347587070
    H            4.764644923531    -1.097392585914    -0.132506545340
    H            3.553167903647    -0.059352001038     0.579444167528

  Mulliken Charges: (a.u.)
   Center  Symbol    Alpha    Beta     Spin     Total
       1     H     0.39222  0.39222  0.00000  0.21555
       2     O     4.20564  4.20564  0.00000 -0.41128
       3     C     2.97711  2.97711  0.00000  0.04578
       4     C     3.09181  3.09181  0.00000 -0.18362
       5     H     0.47080  0.47080  0.00000  0.05841
       6     H     0.44925  0.44925  0.00000  0.10150
       7     C     3.09979  3.09979  0.00000 -0.19957
       8     H     0.45028  0.45028  0.00000  0.09945
       9     H     0.45583  0.45583  0.00000  0.08834
      10     C     3.09200  3.09200  0.00000 -0.18400
      11     H     0.45903  0.45903  0.00000  0.08194
      12     H     0.45227  0.45227  0.00000  0.09545
      13     C     3.09483  3.09483  0.00000 -0.18966
      14     H     0.45055  0.45055  0.00000  0.09891
      15     H     0.45392  0.45392  0.00000  0.09216
      16     C     3.09052  3.09052  0.00000 -0.18104
      17     H     0.45425  0.45425  0.00000  0.09150
      18     H     0.44993  0.44993  0.00000  0.10013
      19     C     3.15243  3.15243  0.00000 -0.30486
      20     H     0.44835  0.44835  0.00000  0.10330
      21     H     0.45465  0.45465  0.00000  0.09069
      22     H     0.45475  0.45475  0.00000  0.09051
      23     H     0.44624  0.44624  0.00000  0.10752
      24     H     0.45355  0.45355  0.00000  0.09289

   Total alpha = 33.00000, Total beta = 33.00000, Total charge = -0.00000

*** Psi4 exiting successfully. Buy a developer a beer!
