  ==> Input File <==

--------------------------------------------------------------------------
set {
	reference rhf
	basis cc-pvtz
}

set_num_threads( 4 )
memory 2 gb

molecule MOL {
0 1

H	 1.956325	 -1.424344	 -2.035669
O	 1.476804	 -1.465711	 -1.221983
C	 0.496636	 -0.567904	 -1.264801
C	 -0.318151	 -0.570512	 0.000144
O	 0.321758	 0.128625	 -2.204074
C	 -1.454884	 0.441630	 -0.000560
H	 -0.690045	 -1.580578	 0.139257
H	 0.367241	 -0.392640	 0.822640
C	 -2.822577	 -0.232186	 0.000063
H	 -1.359760	 1.084704	 -0.867077
H	 -1.359641	 1.085996	 0.864983
H	 -2.954352	 -0.858985	 -0.875745
H	 -3.615886	 0.505352	 0.000019
H	 -2.953878	 -0.858359	 0.876394

	symmetry c1
}
set optking {
	frozen_dihedral = ("
		7 4 6 10
	")
}

ee = optimize('scf')
oeprop('DIPOLE', 'QUADRUPOLE', 'MULLIKEN_CHARGES')
f=open( 'psi4out.xyz', 'w' )
f.write( "14  " )
f.write( str(ee) + "\n" )
f.write( MOL.save_string_xyz() )
f.close()
--------------------------------------------------------------------------

    Molecular point group: c1
  Charge       = 0
  Multiplicity = 1
  Basis Set: CC-PVTZ
  Basis Set:
  @DF-RHF Final Energy:  -305.99614447110332
    Total Energy =                       -305.9961444711033209
    Molecular point group: c1
  Basis Set: CC-PVTZ
  Basis Set:
  Basis Set: CC-PVTZ
  Basis Set:
  @DF-RHF Final Energy:  -305.99648142315925
    Total Energy =                       -305.9964814231594232
  Basis Set: CC-PVTZ
  Basis Set:
  Basis Set: CC-PVTZ
  Basis Set:
  @DF-RHF Final Energy:  -305.99643282291902
    Total Energy =                       -305.9964328229188482
  Basis Set: CC-PVTZ
  Basis Set:
  Basis Set: CC-PVTZ
  Basis Set:
  @DF-RHF Final Energy:  -305.99656637031313
    Total Energy =                       -305.9965663703127916
  Basis Set: CC-PVTZ
  Basis Set:
  Basis Set: CC-PVTZ
  Basis Set:
  @DF-RHF Final Energy:  -305.99657617143043
    Total Energy =                       -305.9965761714305472
  Basis Set: CC-PVTZ
  Basis Set:
  Basis Set: CC-PVTZ
  Basis Set:
  @DF-RHF Final Energy:  -305.99657866825112
    Total Energy =                       -305.9965786682512316
  Basis Set: CC-PVTZ
  Basis Set:
  Basis Set: CC-PVTZ
  Basis Set:
  @DF-RHF Final Energy:  -305.99658029461193
    Total Energy =                       -305.9965802946115900
  Basis Set: CC-PVTZ
  Basis Set:
  Charge       = 0
  Multiplicity = 1
  Basis Set: CC-PVTZ
  Basis Set:

    Orbital Energies (a.u.)
    -----------------------

    Doubly Occupied:

       1A    -20.604776     2A    -20.541876     3A    -11.374869
       4A    -11.239890     5A    -11.222237     6A    -11.213187
       7A     -1.478776     8A     -1.370187     9A     -1.081054
      10A     -0.980021    11A     -0.860063    12A     -0.791366
      13A     -0.705743    14A     -0.695949    15A     -0.661835
      16A     -0.615117    17A     -0.599189    18A     -0.567594
      19A     -0.559400    20A     -0.494593    21A     -0.490591
      22A     -0.487650    23A     -0.479304    24A     -0.449561

  @DF-RHF Final Energy:  -305.99658060659766

   => Energetics <=

    Nuclear Repulsion Energy =            241.8469805667357946
    One-Electron Energy =                -896.5574664649213901
    Two-Electron Energy =                 348.7139052915879347
    DFT Exchange-Correlation Energy =       0.0000000000000000
    Empirical Dispersion Energy =           0.0000000000000000
    PCM Polarization Energy =               0.0000000000000000
    EFP Energy =                            0.0000000000000000
    Total Energy =                       -305.9965806065977176
    Molecular point group: c1
  Basis Set: CC-PVTZ
  Basis Set:

  -Total Gradient:
     Atom            X                  Y                   Z
    ------   -----------------  -----------------  -----------------
       1        0.000000997921    -0.000001120633    -0.000000992690
       2        0.000025528544    -0.000016431058     0.000003023633
       3       -0.000029409519     0.000030092867    -0.000058677648
       4       -0.000030239593    -0.000061336528     0.002187980692
       5        0.000013121775    -0.000019083168     0.000038190867
       6        0.001290048199     0.001410849279     0.000735182183
       7       -0.000176804266    -0.000170426083    -0.001892848607
       8        0.000006240642     0.000001947903    -0.000006586134
       9       -0.000020254876     0.000008887370     0.000006844441
      10       -0.001066933769    -0.001185467933    -0.001001721081
      11       -0.000015231676     0.000002720996    -0.000007350818
      12        0.000003312406     0.000006652626    -0.000003086618
      13       -0.000007268005    -0.000003628391     0.000003076487
      14        0.000006892216    -0.000003657241    -0.000003034710

  **** Optimization is complete! (in 8 steps) ****
    Final optimized geometry and variables:
    Molecular point group: c1

    Geometry (in Angstrom), charge = 0, multiplicity = 1:

    H            2.325543681455    -1.021561071605    -1.216420333304
    O            1.861452481364    -1.036156120252    -0.392969165550
    C            0.848917480770    -0.176816593348    -0.465572423239
    C            0.051943114836    -0.159275597743     0.814519236811
    O            0.637866042808     0.462090021039    -1.437744454885
    C           -1.104271258366     0.849436744364     0.830580672892
    H           -0.305453271212    -1.175325707488     0.945117932949
    H            0.757716093003     0.012334931956     1.617813863611
    C           -2.477182094132     0.182535085908     0.805350457142
    H           -1.016427606721     1.497947046734    -0.029078774813
    H           -1.024246101362     1.472134857826     1.713308909232
    H           -2.597434083249    -0.423171207385    -0.086472813690
    H           -3.267473466345     0.923769369046     0.809783031056
    H           -2.620865207886    -0.461002283277     1.667100224841

  Mulliken Charges: (a.u.)
   Center  Symbol    Alpha    Beta     Spin     Total
       1     H     0.38239  0.38239  0.00000  0.23522
       2     O     4.16010  4.16010  0.00000 -0.32020
       3     C     2.80150  2.80150  0.00000  0.39701
       4     C     3.11449  3.11449  0.00000 -0.22898
       5     O     4.19144  4.19144  0.00000 -0.38289
       6     C     3.08935  3.08935  0.00000 -0.17871
       7     H     0.43813  0.43813  0.00000  0.12373
       8     H     0.43080  0.43080  0.00000  0.13839
       9     C     3.14861  3.14861  0.00000 -0.29723
      10     H     0.43736  0.43736  0.00000  0.12528
      11     H     0.44928  0.44928  0.00000  0.10144
      12     H     0.45220  0.45220  0.00000  0.09560
      13     H     0.44795  0.44795  0.00000  0.10410
      14     H     0.45639  0.45639  0.00000  0.08723

   Total alpha = 24.00000, Total beta = 24.00000, Total charge = -0.00000
