  ==> Input File <==

--------------------------------------------------------------------------
set {
	reference rhf
	basis 6-31G*
}

set_num_threads( 1 )
memory 2 gb

molecule MOL {
0 1

O	 -3.696763	 -0.468100	 -0.000703
C	 -2.668563	 0.129746	 -0.000350
C	 -2.571692	 1.633702	 -0.000670
O	 -1.481751	 -0.454642	 0.000584
H	 -3.086570	 2.015695	 0.872740
H	 -1.545837	 1.971425	 0.000761
H	 -3.083875	 2.015128	 -0.875920
C	 -0.334255	 0.388708	 0.000906
C	 0.891947	 -0.504646	 0.000751
H	 -0.365390	 1.025305	 -0.873475
H	 -0.365484	 1.024911	 0.875569
C	 2.191998	 0.301789	 0.000897
H	 0.855148	 -1.151283	 -0.871571
H	 0.855132	 -1.151660	 0.872805
C	 3.441114	 -0.581407	 0.000108
H	 2.215074	 0.954890	 -0.869742
H	 2.215465	 0.953923	 0.872248
C	 4.739576	 0.224112	 -0.001102
H	 3.419457	 -1.233487	 -0.870178
H	 3.420834	 -1.233096	 0.870717
H	 4.804918	 0.861552	 -0.878265
H	 5.606527	 -0.429058	 -0.001824
H	 4.806469	 0.861674	 0.875853

	symmetry c1
}
set optking {
	frozen_dihedral = ("
		13 9 8 10,
		2 4 8 10,
		16 12 9 13,
		19 15 12 16
	")
}

ee = energy('scf')
oeprop('DIPOLE', 'QUADRUPOLE', 'MULLIKEN_CHARGES')
f=open( 'psi4out.xyz', 'w' )
f.write( "23  " )
f.write( str(ee) + "\n" )
f.write( MOL.save_string_xyz() )
f.close()
--------------------------------------------------------------------------

    Molecular point group: c1

    Geometry (in Angstrom), charge = 0, multiplicity = 1:

       Center              X                  Y                   Z               Mass
    ------------   -----------------  -----------------  -----------------  -----------------
           O         -3.737947191094    -0.551740214461    -0.000735993228    15.994914619560
           C         -2.709747191094     0.046105785539    -0.000382993228    12.000000000000
           C         -2.612876191094     1.550061785539    -0.000702993228    12.000000000000
           O         -1.522935191094    -0.538282214461     0.000551006772    15.994914619560
           H         -3.127754191094     1.932054785539     0.872707006772     1.007825032070
           H         -1.587021191094     1.887784785539     0.000728006772     1.007825032070
           H         -3.125059191094     1.931487785539    -0.875952993228     1.007825032070
           C         -0.375439191094     0.305067785539     0.000873006772    12.000000000000
           C          0.850762808906    -0.588286214461     0.000718006772    12.000000000000
           H         -0.406574191094     0.941664785539    -0.873507993228     1.007825032070
           H         -0.406668191094     0.941270785539     0.875536006772     1.007825032070
           C          2.150813808906     0.218148785539     0.000864006772    12.000000000000
           H          0.813963808906    -1.234923214461    -0.871603993228     1.007825032070
           H          0.813947808906    -1.235300214461     0.872772006772     1.007825032070
           C          3.399929808906    -0.665047214461     0.000075006772    12.000000000000
           H          2.173889808906     0.871249785539    -0.869774993228     1.007825032070
           H          2.174280808906     0.870282785539     0.872215006772     1.007825032070
           C          4.698391808906     0.140471785539    -0.001134993228    12.000000000000
           H          3.378272808906    -1.317127214461    -0.870210993228     1.007825032070
           H          3.379649808906    -1.316736214461     0.870684006772     1.007825032070
           H          4.763733808906     0.777911785539    -0.878297993228     1.007825032070
           H          5.565342808906    -0.512698214461    -0.001856993228     1.007825032070
           H          4.765284808906     0.778033785539     0.875820006772     1.007825032070

  Charge       = 0
  Multiplicity = 1
  Basis Set: 6-31G*
  Basis Set:

    Orbital Energies (a.u.)
    -----------------------

    Doubly Occupied:

       1A    -20.606255     2A    -20.538090     3A    -11.375467
       4A    -11.300169     5A    -11.232728     6A    -11.232087
       7A    -11.231484     8A    -11.227115     9A    -11.217724
      10A     -1.467222    11A     -1.366172    12A     -1.100698
      13A     -1.038081    14A     -1.021146    15A     -0.948181
      16A     -0.852905    17A     -0.811707    18A     -0.781868
      19A     -0.705075    20A     -0.700830    21A     -0.664965
      22A     -0.652601    23A     -0.609702    24A     -0.604718
      25A     -0.586643    26A     -0.570087    27A     -0.558066
      28A     -0.538983    29A     -0.535821    30A     -0.510935
      31A     -0.502572    32A     -0.483579    33A     -0.477796
      34A     -0.475872    35A     -0.445869    36A     -0.427020

  @DF-RHF Final Energy:  -422.94595418451314

   => Energetics <=

    Nuclear Repulsion Energy =            453.1832395303401313
    One-Electron Energy =               -1473.4577200506066674
    Two-Electron Energy =                 597.3285263357515760
    DFT Exchange-Correlation Energy =       0.0000000000000000
    Empirical Dispersion Energy =           0.0000000000000000
    PCM Polarization Energy =               0.0000000000000000
    EFP Energy =                            0.0000000000000000
    Total Energy =                       -422.9459541845149033

  Mulliken Charges: (a.u.)
   Center  Symbol    Alpha    Beta     Spin     Total
       1     O     4.27728  4.27728  0.00000 -0.55456
       2     C     2.59726  2.59726  0.00000  0.80548
       3     C     3.31766  3.31766  0.00000 -0.63532
       4     O     4.30379  4.30379  0.00000 -0.60758
       5     H     0.39346  0.39346  0.00000  0.21309
       6     H     0.40009  0.40009  0.00000  0.19981
       7     H     0.39347  0.39347  0.00000  0.21306
       8     C     3.02276  3.02276  0.00000 -0.04552
       9     C     3.16007  3.16007  0.00000 -0.32014
      10     H     0.41011  0.41011  0.00000  0.17977
      11     H     0.41012  0.41012  0.00000  0.17976
      12     C     3.16126  3.16126  0.00000 -0.32252
      13     H     0.40900  0.40900  0.00000  0.18200
      14     H     0.40900  0.40900  0.00000  0.18200
      15     C     3.15196  3.15196  0.00000 -0.30392
      16     H     0.42226  0.42226  0.00000  0.15549
      17     H     0.42224  0.42224  0.00000  0.15551
      18     C     3.24013  3.24013  0.00000 -0.48026
      19     H     0.41974  0.41974  0.00000  0.16051
      20     H     0.41974  0.41974  0.00000  0.16052
      21     H     0.42102  0.42102  0.00000  0.15796
      22     H     0.41656  0.41656  0.00000  0.16688
      23     H     0.42102  0.42102  0.00000  0.15796

   Total alpha = 36.00000, Total beta = 36.00000, Total charge = -0.00000
