                              Psi4 1.0.54 Driver

  ==> Input File <==

--------------------------------------------------------------------------
set {
	reference rhf
	basis cc-pvtz
}

set_num_threads( 4 )
memory 2 gb

molecule MOL {
0 1

H	 0.000319	 0.067619	 2.122832
C	 0.000184	 -0.484981	 1.207864
C	 0.000181	 -1.865081	 1.200238
C	 0.000000	 0.179985	 0.000046
H	 0.000325	 -2.400844	 2.128932
C	 -0.000003	 -2.552036	 -0.000010
N	 0.000000	 1.644631	 0.000076
C	 -0.000183	 -0.484932	 -1.207800
H	 -0.000000	 -3.625035	 -0.000032
C	 -0.000184	 -1.865032	 -1.200230
O	 1.050559	 2.194174	 -0.000073
O	 -1.050559	 2.194174	 -0.000074
H	 -0.000326	 0.067706	 -2.122744
H	 -0.000323	 -2.400757	 -2.128946

	symmetry c1
}
set optking {
	frozen_dihedral = ("
		2 4 7 11
	")
}

ee,wfn = optimize('scf', return_wfn=True)
oeprop( wfn, 'DIPOLE', 'QUADRUPOLE', 'MULLIKEN_CHARGES')
f=open( 'psi4out.xyz', 'w' )
f.write( "14  " )
f.write( str(ee) + "\n" )
f.write( MOL.save_string_xyz() )
f.close()
--------------------------------------------------------------------------

    Molecular point group: c1
  Charge       = 0
  Multiplicity = 1
  Basis Set: CC-PVTZ
  Basis Set:
  @DF-RHF Final Energy:  -434.31969762730188
    Total Energy =                       -434.3196976273020482
    Molecular point group: c1
  Basis Set: CC-PVTZ
  Basis Set:
  Basis Set: CC-PVTZ
  Basis Set:
  @DF-RHF Final Energy:  -434.31986784839245
    Total Energy =                       -434.3198678483922777
  Basis Set: CC-PVTZ
  Basis Set:
  Basis Set: CC-PVTZ
  Basis Set:
  @DF-RHF Final Energy:  -434.31945999025169
    Total Energy =                       -434.3194599902517439
  Basis Set: CC-PVTZ
  Basis Set:
  Basis Set: CC-PVTZ
  Basis Set:
  @DF-RHF Final Energy:  -434.31986280640604
    Total Energy =                       -434.3198628064060358
  Basis Set: CC-PVTZ
  Basis Set:
  Basis Set: CC-PVTZ
  Basis Set:
  @DF-RHF Final Energy:  -434.31987680772119
    Total Energy =                       -434.3198768077211298
  Basis Set: CC-PVTZ
  Basis Set:
  Basis Set: CC-PVTZ
  Basis Set:
  @DF-RHF Final Energy:  -434.31991985483921
    Total Energy =                       -434.3199198548388722
  Basis Set: CC-PVTZ
  Basis Set:
  Charge       = 0
  Multiplicity = 1
  Basis Set: CC-PVTZ
  Basis Set:

    Orbital Energies (a.u.)
    -----------------------

    Doubly Occupied:

       1A    -20.598824     2A    -20.598758     3A    -15.848446
       4A    -11.308444     5A    -11.267261     6A    -11.267222
       7A    -11.260914     8A    -11.260637     9A    -11.257708
      10A     -1.646108    11A     -1.429297    12A     -1.206538
      13A     -1.096645    14A     -1.056898    15A     -0.959221
      16A     -0.875172    17A     -0.831655    18A     -0.786441
      19A     -0.740750    20A     -0.738971    21A     -0.718382
      22A     -0.651707    23A     -0.650432    24A     -0.625845
      25A     -0.561890    26A     -0.553457    27A     -0.533673
      28A     -0.501189    29A     -0.485292    30A     -0.459768
      31A     -0.371398    32A     -0.370593

  @DF-RHF Final Energy:  -434.31992005132219

   => Energetics <=

    Nuclear Repulsion Energy =            417.2521611521863747
    One-Electron Energy =               -1418.1050868719335085
    Two-Electron Energy =                 566.5330056684251758
    DFT Exchange-Correlation Energy =       0.0000000000000000
    Empirical Dispersion Energy =           0.0000000000000000
    PCM Polarization Energy =               0.0000000000000000
    EFP Energy =                            0.0000000000000000
    Total Energy =                       -434.3199200513220148
    Molecular point group: c1
  Basis Set: CC-PVTZ
  Basis Set:

  -Total Gradient:
     Atom            X                  Y                   Z
    ------   -----------------  -----------------  -----------------
       1       -0.000000621419     0.000003144810     0.000004610956
       2        0.000003467684    -0.000005171244    -0.000009371285
       3       -0.000007685133     0.000001669596    -0.000000651511
       4        0.000002866426     0.000039623770    -0.000000435863
       5       -0.000000193504    -0.000001209156     0.000000472562
       6        0.000010162040    -0.000004736807     0.000001472200
       7        0.000093793497    -0.000045698962     0.000007282725
       8        0.000006417375    -0.000007776657     0.000007950304
       9       -0.000000106786     0.000001758324     0.000000145464
      10       -0.000012153504     0.000003896511    -0.000001194518
      11       -0.000041439541    -0.000017097939    -0.000003014681
      12       -0.000054951787     0.000029342491    -0.000002360085
      13        0.000000286870     0.000003543937    -0.000004568292
      14        0.000000157785    -0.000001288673    -0.000000337975

  **** Optimization is complete! (in 7 steps) ****
    Final optimized geometry and variables:
    Molecular point group: c1

    Geometry (in Angstrom), charge = 0, multiplicity = 1:

    H            0.000336505839     0.073064846067     2.126603145017
    C            0.000225446016    -0.477906084943     1.207027872185
    C            0.000165834692    -1.859426914941     1.198796105918
    C            0.000080458519     0.177666478442     0.000010700105
    H            0.000272146684    -2.394655801021     2.128017570165
    C            0.000001727877    -2.547635973609    -0.000016255453
    N            0.000017105761     1.644095265282     0.000019253417
    C           -0.000115516158    -0.477884333022    -1.207023437844
    H           -0.000036447560    -3.620210957916    -0.000026320751
    C           -0.000202029265    -1.859401356931    -1.198819242192
    O            1.054168693040     2.183283019732    -0.000079709538
    O           -1.054297401799     2.183144661454     0.000083642579
    H           -0.000252535884     0.073108993425    -2.126585508861
    H           -0.000371173860    -2.394613843797    -2.128049992228

  Mulliken Charges: (a.u.)
   Center  Symbol    Alpha    Beta     Spin     Total
       1     H     0.41507  0.41507  0.00000  0.16986
       2     C     3.08383  3.08383  0.00000 -0.16767
       3     C     3.06378  3.06378  0.00000 -0.12756
       4     C     2.92378  2.92378  0.00000  0.15243
       5     H     0.41736  0.41736  0.00000  0.16529
       6     C     3.07911  3.07911  0.00000 -0.15822
       7     N     3.29352  3.29352  0.00000  0.41295
       8     C     3.08383  3.08383  0.00000 -0.16767
       9     H     0.41805  0.41805  0.00000  0.16391
      10     C     3.06378  3.06378  0.00000 -0.12756
      11     O     4.16270  4.16270  0.00000 -0.32541
      12     O     4.16276  4.16276  0.00000 -0.32552
      13     H     0.41507  0.41507  0.00000  0.16986
      14     H     0.41736  0.41736  0.00000  0.16529

   Total alpha = 32.00000, Total beta = 32.00000, Total charge =  0.00000

*** Psi4 exiting successfully. Buy a developer a beer!
