  ==> Input File <==

--------------------------------------------------------------------------
set {
	reference rhf
	basis 6-31G*
}

set_num_threads( 4 )
memory 2 gb

molecule MOL {
0 1

O	 0.749854	 1.307668	 -0.000040
C	 0.576249	 0.131685	 -0.000108
C	 -0.766779	 -0.556801	 -0.000461
O	 1.568443	 -0.749345	 -0.000005
C	 -1.945214	 0.412366	 0.000161
H	 -0.796911	 -1.211249	 -0.867467
H	 -0.796854	 -1.212390	 0.865687
C	 -3.287791	 -0.317055	 0.000105
H	 -1.876087	 1.060580	 -0.866812
H	 -1.875822	 1.059691	 0.867761
H	 -3.394745	 -0.949193	 -0.877058
H	 -4.111778	 0.388953	 0.000015
H	 -3.394954	 -0.949187	 0.877259
C	 2.049178	 -1.176018	 -1.261771
H	 1.261878	 -1.654533	 -1.826326
H	 2.840489	 -1.879117	 -1.053582
H	 2.431810	 -0.337707	 -1.825985

	symmetry c1
}
set optking {
	frozen_dihedral = ("
		14 4 2 1
	")
}

ee = optimize('scf')
oeprop('DIPOLE', 'QUADRUPOLE', 'MULLIKEN_CHARGES')
f=open( 'psi4out.xyz', 'w' )
f.write( "17  " )
f.write( str(ee) + "\n" )
f.write( MOL.save_string_xyz() )
f.close()
--------------------------------------------------------------------------

    Molecular point group: c1
  Charge       = 0
  Multiplicity = 1
  Basis Set: 6-31G*
  Basis Set:
  @DF-RHF Final Energy:  -344.88516594019319
    Total Energy =                       -344.8851659401931897
    Molecular point group: c1
  Basis Set: 6-31G*
  Basis Set:
  Basis Set: 6-31G*
  Basis Set:
  @DF-RHF Final Energy:  -344.88356384247010
    Total Energy =                       -344.8835638424702097
  Basis Set: 6-31G*
  Basis Set:
  Basis Set: 6-31G*
  Basis Set:
  @DF-RHF Final Energy:  -344.88618475202611
    Total Energy =                       -344.8861847520262245
  Basis Set: 6-31G*
  Basis Set:
  Basis Set: 6-31G*
  Basis Set:
  @DF-RHF Final Energy:  -344.88672310227656
    Total Energy =                       -344.8867231022763917
  Basis Set: 6-31G*
  Basis Set:
  Basis Set: 6-31G*
  Basis Set:
  @DF-RHF Final Energy:  -344.88673938493167
    Total Energy =                       -344.8867393849318432
  Basis Set: 6-31G*
  Basis Set:
  Basis Set: 6-31G*
  Basis Set:
  @DF-RHF Final Energy:  -344.88674168525858
    Total Energy =                       -344.8867416852586985
  Basis Set: 6-31G*
  Basis Set:
  Charge       = 0
  Multiplicity = 1
  Basis Set: 6-31G*
  Basis Set:

    Orbital Energies (a.u.)
    -----------------------

    Doubly Occupied:

       1A    -20.585675     2A    -20.558089     3A    -11.375618
       4A    -11.292207     5A    -11.240490     6A    -11.225062
       7A    -11.217259     8A     -1.459303     9A     -1.367924
      10A     -1.081500    11A     -0.991517    12A     -0.952537
      13A     -0.834501    14A     -0.765690    15A     -0.699278
      16A     -0.679053    17A     -0.673193    18A     -0.634577
      19A     -0.618267    20A     -0.578812    21A     -0.566096
      22A     -0.540272    23A     -0.518547    24A     -0.494762
      25A     -0.492208    26A     -0.481839    27A     -0.454042
      28A     -0.435674

  @DF-RHF Final Energy:  -344.88674184119060

   => Energetics <=

    Nuclear Repulsion Energy =            312.3907083131230706
    One-Electron Energy =               -1088.9269107675127088
    Two-Electron Energy =                 431.6494606131992668
    DFT Exchange-Correlation Energy =       0.0000000000000000
    Empirical Dispersion Energy =           0.0000000000000000
    PCM Polarization Energy =               0.0000000000000000
    EFP Energy =                            0.0000000000000000
    Total Energy =                       -344.8867418411904282
    Molecular point group: c1
  Basis Set: 6-31G*
  Basis Set:

  -Total Gradient:
     Atom            X                  Y                   Z
    ------   -----------------  -----------------  -----------------
       1       -0.000105572669    -0.000163593407     0.003223002786
       2       -0.000686719135    -0.000673618101    -0.004714982192
       3       -0.000006469003     0.000002072690    -0.000017940322
       4        0.002520890014     0.002816648089     0.001643577191
       5       -0.000004152998    -0.000008716474    -0.000004998675
       6       -0.000001818787    -0.000001804839    -0.000009453941
       7       -0.000003669036    -0.000003888606    -0.000007804199
       8        0.000008050704    -0.000003577389     0.000000173993
       9        0.000002401126    -0.000000933122    -0.000001221956
      10       -0.000001152807     0.000004403726     0.000005163472
      11       -0.000001078719     0.000000191632    -0.000000954173
      12        0.000005186175     0.000002376278     0.000000406876
      13        0.000001565477    -0.000000371958    -0.000000763022
      14       -0.001729034497    -0.001964068610    -0.000112680307
      15       -0.000004731858    -0.000001897376     0.000005097017
      16        0.000001776606    -0.000004875035     0.000002472375
      17        0.000004529403     0.000001652500    -0.000009094924

  **** Optimization is complete! (in 7 steps) ****
    Final optimized geometry and variables:
    Molecular point group: c1

    Geometry (in Angstrom), charge = 0, multiplicity = 1:

    O            0.878598243651     1.415778265469     0.231568533942
    C            0.690201182951     0.250843610168     0.176242658470
    C           -0.668037450621    -0.407700440424     0.193117539727
    O            1.714995736728    -0.634831417535     0.177220115105
    C           -1.833348270763     0.576812031900     0.181718650848
    H           -0.724534712589    -1.089156980122    -0.652774242944
    H           -0.696251645682    -1.040570353590     1.076972947135
    C           -3.186504825993    -0.131891132654     0.215091376187
    H           -1.765535119699     1.202557316046    -0.702302872912
    H           -1.743176212865     1.244056914969     1.031766639286
    H           -3.314255985862    -0.783449608165    -0.645031657763
    H           -3.999689799152     0.586357119229     0.207761893058
    H           -3.291923084109    -0.740631173466     1.108717913388
    C            2.243128249285    -0.998999717740    -1.079726579863
    H            1.495547257291    -1.492670483187    -1.692074899071
    H            3.051753464837    -1.686372966488    -0.886285197219
    H            2.623934541195    -0.129324006292    -1.601061236672

  Mulliken Charges: (a.u.)
   Center  Symbol    Alpha    Beta     Spin     Total
       1     O     4.25153  4.25153  0.00000 -0.50307
       2     C     2.61465  2.61465  0.00000  0.77071
       3     C     3.21108  3.21108  0.00000 -0.42217
       4     O     4.31571  4.31571  0.00000 -0.63143
       5     C     3.15239  3.15239  0.00000 -0.30477
       6     H     0.40836  0.40836  0.00000  0.18328
       7     H     0.39787  0.39787  0.00000  0.20427
       8     C     3.24271  3.24271  0.00000 -0.48541
       9     H     0.41276  0.41276  0.00000  0.17448
      10     H     0.40826  0.40826  0.00000  0.18349
      11     H     0.42215  0.42215  0.00000  0.15570
      12     H     0.41448  0.41448  0.00000  0.17105
      13     H     0.42051  0.42051  0.00000  0.15899
      14     C     3.09296  3.09296  0.00000 -0.18592
      15     H     0.42295  0.42295  0.00000  0.15411
      16     H     0.40240  0.40240  0.00000  0.19521
      17     H     0.40926  0.40926  0.00000  0.18149

   Total alpha = 28.00000, Total beta = 28.00000, Total charge =  0.00000
