  ==> Input File <==

--------------------------------------------------------------------------
set {
	reference rhf
	basis 6-31G*
}

set_num_threads( 4 )
memory 2 gb

molecule MOL {
0 1

O	 -2.340347	 -0.551823	 -0.971448
C	 -1.921153	 0.064240	 -0.045697
C	 -2.765918	 0.840431	 0.928082
O	 -0.632575	 0.154573	 0.251549
H	 -2.472016	 1.883722	 0.917383
H	 -3.807494	 0.746757	 0.659418
H	 -2.605992	 0.464671	 1.932066
C	 0.160891	 -1.019931	 0.106212
C	 1.589627	 -0.672828	 0.480843
H	 0.089836	 -1.367806	 -0.916050
H	 -0.238459	 -1.792301	 0.749618
C	 2.246377	 0.346236	 -0.452210
H	 2.163194	 -1.597435	 0.473358
H	 1.604769	 -0.303424	 1.502885
C	 3.691736	 0.652107	 -0.061850
H	 2.219579	 -0.032311	 -1.472055
H	 1.666466	 1.263317	 -0.447249
H	 4.134505	 1.377213	 -0.737283
H	 4.305508	 -0.243868	 -0.089969
H	 3.748266	 1.059562	 0.943567

	symmetry c1
}
set optking {
	frozen_dihedral = ("
		1 2 4 8
	")
}

ee = optimize('scf')
oeprop('DIPOLE', 'QUADRUPOLE', 'MULLIKEN_CHARGES')
f=open( 'psi4out.xyz', 'w' )
f.write( "20  " )
f.write( str(ee) + "\n" )
f.write( MOL.save_string_xyz() )
f.close()
--------------------------------------------------------------------------

    Molecular point group: c1
  Charge       = 0
  Multiplicity = 1
  Basis Set: 6-31G*
  Basis Set:
  @DF-RHF Final Energy:  -383.93743724115052
    Total Energy =                       -383.9374372411505192
    Molecular point group: c1
  Basis Set: 6-31G*
  Basis Set:
  Basis Set: 6-31G*
  Basis Set:
  @DF-RHF Final Energy:  -383.93433772184773
    Total Energy =                       -383.9343377218477826
  Basis Set: 6-31G*
  Basis Set:
  Basis Set: 6-31G*
  Basis Set:
  @DF-RHF Final Energy:  -383.93795817407420
    Total Energy =                       -383.9379581740744243
  Basis Set: 6-31G*
  Basis Set:
  Basis Set: 6-31G*
  Basis Set:
  @DF-RHF Final Energy:  -383.93801557333092
    Total Energy =                       -383.9380155733306310
  Basis Set: 6-31G*
  Basis Set:
  Basis Set: 6-31G*
  Basis Set:
  @DF-RHF Final Energy:  -383.93801961239558
    Total Energy =                       -383.9380196123956921
  Basis Set: 6-31G*
  Basis Set:
  Basis Set: 6-31G*
  Basis Set:
  @DF-RHF Final Energy:  -383.93802312510394
    Total Energy =                       -383.9380231251041096
  Basis Set: 6-31G*
  Basis Set:
  Basis Set: 6-31G*
  Basis Set:
  @DF-RHF Final Energy:  -383.93802433552287
    Total Energy =                       -383.9380243355227549
  Basis Set: 6-31G*
  Basis Set:
  Charge       = 0
  Multiplicity = 1
  Basis Set: 6-31G*
  Basis Set:

    Orbital Energies (a.u.)
    -----------------------

    Doubly Occupied:

       1A    -20.594124     2A    -20.548238     3A    -11.375641
       4A    -11.285675     5A    -11.233840     6A    -11.226154
       7A    -11.219450     8A    -11.212706     9A     -1.462792
      10A     -1.363554    11A     -1.085182    12A     -1.026084
      13A     -0.982775    14A     -0.880029    15A     -0.810175
      16A     -0.774715    17A     -0.692991    18A     -0.679672
      19A     -0.663555    20A     -0.630448    21A     -0.605080
      22A     -0.592541    23A     -0.574409    24A     -0.549545
      25A     -0.542159    26A     -0.538421    27A     -0.504785
      28A     -0.484929    29A     -0.474497    30A     -0.473064
      31A     -0.447908    32A     -0.436066

  @DF-RHF Final Energy:  -383.93802453406505

   => Energetics <=

    Nuclear Repulsion Energy =            384.3613382624812971
    One-Electron Energy =               -1284.6563175310279803
    Two-Electron Energy =                 516.3569547344814055
    DFT Exchange-Correlation Energy =       0.0000000000000000
    Empirical Dispersion Energy =           0.0000000000000000
    PCM Polarization Energy =               0.0000000000000000
    EFP Energy =                            0.0000000000000000
    Total Energy =                       -383.9380245340653346
    Molecular point group: c1
  Basis Set: 6-31G*
  Basis Set:

  -Total Gradient:
     Atom            X                  Y                   Z
    ------   -----------------  -----------------  -----------------
       1        0.000402682526     0.008033309364    -0.005456289306
       2       -0.001501776191    -0.013050560056     0.011677366161
       3       -0.000029028645     0.000076892703    -0.000070809267
       4        0.002475560648     0.006835475539    -0.013280980768
       5        0.000013383085     0.000011679490    -0.000011776867
       6        0.000007528010    -0.000022130806    -0.000006084923
       7        0.000004907061     0.000009285439     0.000004625575
       8       -0.001299018323    -0.001927010048     0.007163171857
       9       -0.000029166145     0.000026266368    -0.000020299738
      10       -0.000002677020     0.000033114060    -0.000004366162
      11       -0.000019928381    -0.000027670159     0.000022475132
      12        0.000008586784    -0.000023500870    -0.000003941495
      13       -0.000029884957    -0.000001445763    -0.000015580215
      14       -0.000003961050    -0.000008032010     0.000006616537
      15        0.000004596911     0.000020081458    -0.000000651988
      16        0.000005848739     0.000006916420     0.000002121111
      17       -0.000014076201     0.000003708278    -0.000008501947
      18        0.000006494334     0.000004877811     0.000004825952
      19       -0.000001987303     0.000000620861    -0.000002544086
      20        0.000001916121    -0.000001878079     0.000000624437

  **** Optimization is complete! (in 8 steps) ****
    Final optimized geometry and variables:
    Molecular point group: c1

    Geometry (in Angstrom), charge = 0, multiplicity = 1:

    O           -2.358961065434    -0.563939268999    -0.962087074119
    C           -1.927250259094     0.053098230834    -0.045890537422
    C           -2.753684168430     0.899852602632     0.882995671649
    O           -0.622990154528     0.156769998010     0.222249378805
    H           -2.379169740990     1.916978262037     0.877115135202
    H           -3.788468593390     0.881419502137     0.574863397368
    H           -2.661407996353     0.524866993999     1.896543753827
    C            0.182263350017    -1.007432346539     0.054827205800
    C            1.609047235118    -0.655752212773     0.431243977483
    H            0.114315232428    -1.346461396122    -0.969717882207
    H           -0.206097502190    -1.788498422606     0.698807755423
    C            2.251544073606     0.381766437496    -0.491091793760
    H            2.190185610256    -1.575497856178     0.409768898072
    H            1.623167589431    -0.298990400369     1.457656695680
    C            3.691797372239     0.704821462329    -0.095518885085
    H            2.230900813591     0.012672727485    -1.514214273773
    H            1.657410910688     1.289454045895    -0.478230763488
    H            4.124956385169     1.441689068846    -0.764362056377
    H            4.318812648245    -0.181831480281    -0.129838363913
    H            3.741032099860     1.105086087262     0.913207941921

  Mulliken Charges: (a.u.)
   Center  Symbol    Alpha    Beta     Spin     Total
       1     O     4.27276  4.27276  0.00000 -0.54552
       2     C     2.61814  2.61814  0.00000  0.76372
       3     C     3.28331  3.28331  0.00000 -0.56662
       4     O     4.31440  4.31440  0.00000 -0.62880
       5     H     0.39891  0.39891  0.00000  0.20218
       6     H     0.39752  0.39752  0.00000  0.20495
       7     H     0.40375  0.40375  0.00000  0.19251
       8     C     3.00405  3.00405  0.00000 -0.00809
       9     C     3.16406  3.16406  0.00000 -0.32812
      10     H     0.40504  0.40504  0.00000  0.18991
      11     H     0.41694  0.41694  0.00000  0.16612
      12     C     3.15516  3.15516  0.00000 -0.31031
      13     H     0.41869  0.41869  0.00000  0.16261
      14     H     0.41516  0.41516  0.00000  0.16968
      15     C     3.24056  3.24056  0.00000 -0.48112
      16     H     0.42133  0.42133  0.00000  0.15733
      17     H     0.41009  0.41009  0.00000  0.17983
      18     H     0.41715  0.41715  0.00000  0.16569
      19     H     0.42204  0.42204  0.00000  0.15591
      20     H     0.42093  0.42093  0.00000  0.15814

   Total alpha = 32.00000, Total beta = 32.00000, Total charge = -0.00000
