  ==> Input File <==

--------------------------------------------------------------------------
set {
	reference rhf
	basis 6-31G*
}

set_num_threads( 1 )
memory 2 gb

molecule MOL {
0 1

H	 -2.131526	 -1.202760	 -0.054616
O	 -2.347518	 -0.290803	 0.079804
C	 -1.184022	 0.487508	 -0.006784
C	 0.062599	 -0.378592	 0.031606
H	 -1.176523	 1.099369	 -0.904519
H	 -1.187323	 1.153111	 0.844927
O	 1.171513	 0.459272	 -0.058250
H	 0.050699	 -1.089204	 -0.797170
H	 0.078739	 -0.954914	 0.954740
C	 2.397842	 -0.198080	 -0.002151
H	 2.508049	 -0.905315	 -0.822092
H	 3.173794	 0.550865	 -0.078850
H	 2.517602	 -0.735921	 0.936026

	symmetry c1
}
set optking {
	frozen_dihedral = ("
		8 4 3 5,
		10 7 4 8,
		4 7 10 13
	")
}

ee = energy('scf')
oeprop('DIPOLE', 'QUADRUPOLE', 'MULLIKEN_CHARGES')
f=open( 'psi4out.xyz', 'w' )
f.write( "13  " )
f.write( str(ee) + "\n" )
f.write( MOL.save_string_xyz() )
f.close()
--------------------------------------------------------------------------

    Molecular point group: c1

    Geometry (in Angstrom), charge = 0, multiplicity = 1:

       Center              X                  Y                   Z               Mass
    ------------   -----------------  -----------------  -----------------  -----------------
           H         -2.136396807965    -1.196495859375    -0.063765822521     1.007825032070
           O         -2.352388807965    -0.284538859375     0.070654177479    15.994914619560
           C         -1.188892807965     0.493772140625    -0.015933822521    12.000000000000
           C          0.057728192035    -0.372327859375     0.022456177479    12.000000000000
           H         -1.181393807965     1.105633140625    -0.913668822521     1.007825032070
           H         -1.192193807965     1.159375140625     0.835777177479     1.007825032070
           O          1.166642192035     0.465536140625    -0.067399822521    15.994914619560
           H          0.045828192035    -1.082939859375    -0.806319822521     1.007825032070
           H          0.073868192035    -0.948649859375     0.945590177479     1.007825032070
           C          2.392971192035    -0.191815859375    -0.011300822521    12.000000000000
           H          2.503178192035    -0.899050859375    -0.831241822521     1.007825032070
           H          3.168923192035     0.557129140625    -0.087999822521     1.007825032070
           H          2.512731192035    -0.729656859375     0.926876177479     1.007825032070

  Charge       = 0
  Multiplicity = 1
  Basis Set: 6-31G*
  Basis Set:

    Orbital Energies (a.u.)
    -----------------------

    Doubly Occupied:

       1A    -20.568753     2A    -20.557739     3A    -11.281219
       4A    -11.274597     5A    -11.268237     6A     -1.394730
       7A     -1.364823     8A     -1.022305     9A     -0.915874
      10A     -0.853319    11A     -0.695740    12A     -0.685974
      13A     -0.671539    14A     -0.625270    15A     -0.608816
      16A     -0.579996    17A     -0.546944    18A     -0.498316
      19A     -0.473301    20A     -0.439439    21A     -0.428495

  @DF-RHF Final Energy:  -267.94623251791575

   => Energetics <=

    Nuclear Repulsion Energy =            190.6007987196425972
    One-Electron Energy =                -743.5830701098196869
    Two-Electron Energy =                 285.0360388722617699
    DFT Exchange-Correlation Energy =       0.0000000000000000
    Empirical Dispersion Energy =           0.0000000000000000
    PCM Polarization Energy =               0.0000000000000000
    EFP Energy =                            0.0000000000000000
    Total Energy =                       -267.9462325179152913

  Mulliken Charges: (a.u.)
   Center  Symbol    Alpha    Beta     Spin     Total
       1     H     0.28030  0.28030  0.00000  0.43940
       2     O     4.37682  4.37682  0.00000 -0.75364
       3     C     2.98199  2.98199  0.00000  0.03603
       4     C     3.01665  3.01665  0.00000 -0.03329
       5     H     0.41844  0.41844  0.00000  0.16312
       6     H     0.41457  0.41457  0.00000  0.17087
       7     O     4.30518  4.30518  0.00000 -0.61036
       8     H     0.43280  0.43280  0.00000  0.13439
       9     H     0.42672  0.42672  0.00000  0.14657
      10     C     3.08164  3.08164  0.00000 -0.16329
      11     H     0.42826  0.42826  0.00000  0.14348
      12     H     0.40897  0.40897  0.00000  0.18206
      13     H     0.42766  0.42766  0.00000  0.14468

   Total alpha = 21.00000, Total beta = 21.00000, Total charge =  0.00000
