                              Psi4 1.0.54 Driver

  ==> Input File <==

--------------------------------------------------------------------------
set {
	reference rhf
	basis cc-pvtz
}

set_num_threads( 4 )
memory 2 gb

molecule MOL {
0 1

H	 -1.752232	 -2.214755	 -0.011938
C	 -1.343852	 -1.221619	 -0.018179
N	 -0.058800	 -1.097635	 -0.261688
C	 -2.148159	 -0.124236	 0.219734
C	 0.449026	 0.119242	 -0.273393
H	 -3.196988	 -0.237571	 0.417076
N	 -1.655094	 1.094230	 0.209506
C	 -0.370318	 1.215445	 -0.035100
C	 1.924033	 0.265863	 -0.538106
H	 0.033214	 2.210441	 -0.046812
C	 2.245665	 0.392084	 -2.028096
H	 2.274160	 1.149642	 -0.018385
H	 2.450550	 -0.583394	 -0.118872
H	 3.310145	 0.529809	 -2.175907
H	 1.729682	 1.240234	 -2.458657
H	 1.943638	 -0.497546	 -2.569283

	symmetry c1
}
set optking {
	frozen_dihedral = ("
		12 9 5 3
	")
}

ee,wfn = optimize('scf', return_wfn=True)
oeprop( wfn, 'DIPOLE', 'QUADRUPOLE', 'MULLIKEN_CHARGES')
f=open( 'psi4out.xyz', 'w' )
f.write( "16  " )
f.write( str(ee) + "\n" )
f.write( MOL.save_string_xyz() )
f.close()
--------------------------------------------------------------------------

    Molecular point group: c1
  Charge       = 0
  Multiplicity = 1
  Basis Set: CC-PVTZ
  Basis Set:
  @DF-RHF Final Energy:  -340.87187850371924
    Total Energy =                       -340.8718785037193584
    Molecular point group: c1
  Basis Set: CC-PVTZ
  Basis Set:
  Basis Set: CC-PVTZ
  Basis Set:
  @DF-RHF Final Energy:  -340.87204614430340
    Total Energy =                       -340.8720461443034537
  Basis Set: CC-PVTZ
  Basis Set:
  Basis Set: CC-PVTZ
  Basis Set:
  @DF-RHF Final Energy:  -340.87212144614506
    Total Energy =                       -340.8721214461447744
  Basis Set: CC-PVTZ
  Basis Set:
  Basis Set: CC-PVTZ
  Basis Set:
  @DF-RHF Final Energy:  -340.87212862578531
    Total Energy =                       -340.8721286257855922
  Basis Set: CC-PVTZ
  Basis Set:
  Basis Set: CC-PVTZ
  Basis Set:
  @DF-RHF Final Energy:  -340.87213059888694
    Total Energy =                       -340.8721305988869972
  Basis Set: CC-PVTZ
  Basis Set:
  Charge       = 0
  Multiplicity = 1
  Basis Set: CC-PVTZ
  Basis Set:

    Orbital Energies (a.u.)
    -----------------------

    Doubly Occupied:

       1A    -15.580664     2A    -15.576090     3A    -11.278400
       4A    -11.271993     5A    -11.268817     6A    -11.267613
       7A    -11.231349     8A    -11.219156     9A     -1.316004
      10A     -1.224052    11A     -1.086585    12A     -1.015841
      13A     -0.905786    14A     -0.896573    15A     -0.830483
      16A     -0.718686    17A     -0.713366    18A     -0.659629
      19A     -0.611662    20A     -0.605876    21A     -0.585991
      22A     -0.563840    23A     -0.524616    24A     -0.508535
      25A     -0.502882    26A     -0.487674    27A     -0.433442
      28A     -0.397841    29A     -0.346758

  @DF-RHF Final Energy:  -340.87213128345780

   => Energetics <=

    Nuclear Repulsion Energy =            350.5016195659489426
    One-Electron Energy =               -1155.4870989271978488
    Two-Electron Energy =                 464.1133480777914428
    DFT Exchange-Correlation Energy =       0.0000000000000000
    Empirical Dispersion Energy =           0.0000000000000000
    PCM Polarization Energy =               0.0000000000000000
    EFP Energy =                            0.0000000000000000
    Total Energy =                       -340.8721312834575201
    Molecular point group: c1
  Basis Set: CC-PVTZ
  Basis Set:

  -Total Gradient:
     Atom            X                  Y                   Z
    ------   -----------------  -----------------  -----------------
       1       -0.000023542377    -0.000008450510     0.000014275567
       2        0.000055972814    -0.000073813952    -0.000026505028
       3        0.000068731860    -0.000118685121     0.000692169349
       4       -0.000042471920     0.000079346578    -0.000020252687
       5       -0.000137055131     0.000186608168    -0.000801112904
       6       -0.000008264602    -0.000011861444     0.000020724702
       7       -0.000064141965    -0.000064271095     0.000000106602
       8        0.000080596369    -0.000009251729     0.000026374395
       9       -0.000152970053     0.000508899314    -0.000536274682
      10        0.000008005225     0.000002624251    -0.000022684156
      11        0.000001655790    -0.000004512625     0.000049555309
      12        0.000162401078    -0.000450744633     0.000668479791
      13        0.000032224703    -0.000012589979    -0.000011969204
      14        0.000083931598     0.000030843332    -0.000017865519
      15       -0.000040121695     0.000036310108     0.000010698696
      16       -0.000024951695    -0.000090450664    -0.000045720231

  **** Optimization is complete! (in 6 steps) ****
    Final optimized geometry and variables:
    Molecular point group: c1

    Geometry (in Angstrom), charge = 0, multiplicity = 1:

    H           -1.636593725131    -2.326955606279     0.349830230443
    C           -1.246491927285    -1.326678335963     0.343635448883
    N            0.042452019438    -1.181779846085     0.119465644183
    C           -2.070985800676    -0.244516829245     0.567503563756
    C            0.528562895604     0.041799885098     0.112693426135
    H           -3.120270987419    -0.374307089626     0.750979872559
    N           -1.596743679322     0.983894507024     0.568290041826
    C           -0.312534262468     1.125453279459     0.344816217396
    C            1.997018131949     0.221995585737    -0.167029202335
    H            0.078166122331     2.125985724394     0.350045698235
    C            2.301754498370     0.331169181345    -1.662542608396
    H            2.357349169872     1.104891905256     0.348684093949
    H            2.521055369429    -0.628947476799     0.247578949264
    H            3.367180590479     0.441464819263    -1.826310053053
    H            1.803940100322     1.187579408832    -2.103223594109
    H            1.968719885627    -0.556993386765    -2.185370560031

  Mulliken Charges: (a.u.)
   Center  Symbol    Alpha    Beta     Spin     Total
       1     H     0.41360  0.41360  0.00000  0.17281
       2     C     3.04398  3.04398  0.00000 -0.08797
       3     N     3.59778  3.59778  0.00000 -0.19556
       4     C     3.04764  3.04764  0.00000 -0.09527
       5     C     2.93646  2.93646  0.00000  0.12708
       6     H     0.41359  0.41359  0.00000  0.17282
       7     N     3.58687  3.58687  0.00000 -0.17375
       8     C     3.07843  3.07843  0.00000 -0.15686
       9     C     3.08323  3.08323  0.00000 -0.16645
      10     H     0.41510  0.41510  0.00000  0.16981
      11     C     3.14397  3.14397  0.00000 -0.28795
      12     H     0.44796  0.44796  0.00000  0.10407
      13     H     0.44252  0.44252  0.00000  0.11496
      14     H     0.44862  0.44862  0.00000  0.10276
      15     H     0.45322  0.45322  0.00000  0.09356
      16     H     0.44702  0.44702  0.00000  0.10595

   Total alpha = 29.00000, Total beta = 29.00000, Total charge = -0.00000

*** Psi4 exiting successfully. Buy a developer a beer!
