                              Psi4 1.0.54 Driver

  ==> Input File <==

--------------------------------------------------------------------------
set {
	reference rhf
	basis cc-pvtz
}

set_num_threads( 4 )
memory 2 gb

molecule MOL {
0 1

H	 3.496133	 -0.436994	 4.869399
C	 3.068392	 -1.172430	 4.197805
C	 1.782865	 -0.655605	 3.560909
H	 3.811449	 -1.401715	 3.441821
H	 2.887978	 -2.077110	 4.769473
C	 1.145149	 -1.670931	 2.615180
H	 1.994721	 0.259251	 3.019526
H	 1.072284	 -0.399710	 4.343478
C	 -0.147014	 -1.183394	 1.967484
H	 1.851271	 -1.935308	 1.837797
H	 0.927338	 -2.580686	 3.167164
C	 0.039729	 -0.109521	 0.908992
H	 -0.646466	 -2.012106	 1.471955
H	 -0.846368	 -0.824597	 2.716942
C	 -1.180025	 0.697761	 0.509157
O	 1.093847	 0.082619	 0.394022
C	 -2.285431	 -0.137488	 -0.145671
H	 -0.841570	 1.467322	 -0.171331
H	 -1.574699	 1.185364	 1.396666
C	 -3.646545	 0.082747	 0.508954
H	 -2.348635	 0.118247	 -1.199806
H	 -2.034895	 -1.192387	 -0.096473
C	 -4.757412	 -0.737227	 -0.138149
H	 -3.900211	 1.137405	 0.459735
H	 -3.580878	 -0.166775	 1.564416
H	 -4.867876	 -0.486707	 -1.187777
H	 -4.549650	 -1.800049	 -0.072540
H	 -5.709585	 -0.556397	 0.346597

	symmetry c1
}
set optking {
	frozen_dihedral = ("
		12 15 17 21
	")
}

ee,wfn = optimize('scf', return_wfn=True)
oeprop( wfn, 'DIPOLE', 'QUADRUPOLE', 'MULLIKEN_CHARGES')
f=open( 'psi4out.xyz', 'w' )
f.write( "28  " )
f.write( str(ee) + "\n" )
f.write( MOL.save_string_xyz() )
f.close()
--------------------------------------------------------------------------

    Molecular point group: c1
  Charge       = 0
  Multiplicity = 1
  Basis Set: CC-PVTZ
  Basis Set:
  @DF-RHF Final Energy:  -426.31413342297583
    Total Energy =                       -426.3141334229760560
    Molecular point group: c1
  Basis Set: CC-PVTZ
  Basis Set:
  Basis Set: CC-PVTZ
  Basis Set:
  @DF-RHF Final Energy:  -426.31344006532663
    Total Energy =                       -426.3134400653265175
  Basis Set: CC-PVTZ
  Basis Set:
  Basis Set: CC-PVTZ
  Basis Set:
  @DF-RHF Final Energy:  -426.31310799585560
    Total Energy =                       -426.3131079958552618
  Basis Set: CC-PVTZ
  Basis Set:
  Basis Set: CC-PVTZ
  Basis Set:
  @DF-RHF Final Energy:  -426.31461796684869
    Total Energy =                       -426.3146179668483455
  Basis Set: CC-PVTZ
  Basis Set:
  @DF-RHF Final Energy:  -426.31471185284931
    Total Energy =                       -426.3147118528495412
  @DF-RHF Final Energy:  -426.31414992044733
    Total Energy =                       -426.3141499204474485
  @DF-RHF Final Energy:  -426.31496078289990
    Total Energy =                       -426.3149607828987655
  @DF-RHF Final Energy:  -426.31275171266998
    Total Energy =                       -426.3127517126703196
  @DF-RHF Final Energy:  -426.31439575113177
    Total Energy =                       -426.3143957511317694
  @DF-RHF Final Energy:  -426.31497953844962
    Total Energy =                       -426.3149795384493927
  @DF-RHF Final Energy:  -426.31394475761726
    Total Energy =                       -426.3139447576170369
  @DF-RHF Final Energy:  -426.31507758807152
    Total Energy =                       -426.3150775880715173
  @DF-RHF Final Energy:  -426.31510227404158
    Total Energy =                       -426.3151022740420331
  Basis Set: CC-PVTZ
  Basis Set:
  @DF-RHF Final Energy:  -426.31519975335834
    Total Energy =                       -426.3151997533582289
  Basis Set: CC-PVTZ
  Basis Set:
  Basis Set: CC-PVTZ
  Basis Set:
  @DF-RHF Final Energy:  -426.31520388814829
    Total Energy =                       -426.3152038881482895
  Basis Set: CC-PVTZ
  Basis Set:
  Basis Set: CC-PVTZ
  Basis Set:
  @DF-RHF Final Energy:  -426.31520500141130
    Total Energy =                       -426.3152050014110728
  Basis Set: CC-PVTZ
  Basis Set:
  Charge       = 0
  Multiplicity = 1
  Basis Set: CC-PVTZ
  Basis Set:

    Orbital Energies (a.u.)
    -----------------------

    Doubly Occupied:

       1A    -20.536090     2A    -11.316612     3A    -11.229714
       4A    -11.229407     5A    -11.226352     6A    -11.224804
       7A    -11.214723     8A    -11.214368     9A    -11.208545
      10A    -11.202715    11A     -1.396301    12A     -1.094310
      13A     -1.078091    14A     -1.023739    15A     -0.991131
      16A     -0.909711    17A     -0.872595    18A     -0.810747
      19A     -0.797244    20A     -0.727097    21A     -0.667951
      22A     -0.657776    23A     -0.624325    24A     -0.616179
      25A     -0.611688    26A     -0.591172    27A     -0.578315
      28A     -0.571826    29A     -0.546281    30A     -0.534621
      31A     -0.521159    32A     -0.511419    33A     -0.504069
      34A     -0.482053    35A     -0.478682    36A     -0.476806
      37A     -0.467025    38A     -0.463471    39A     -0.456688
      40A     -0.393713

  @DF-RHF Final Energy:  -426.31520514662429

   => Energetics <=

    Nuclear Repulsion Energy =            534.5232539275752970
    One-Electron Energy =               -1637.5578912367236626
    Two-Electron Energy =                 676.7194321625235034
    DFT Exchange-Correlation Energy =       0.0000000000000000
    Empirical Dispersion Energy =           0.0000000000000000
    PCM Polarization Energy =               0.0000000000000000
    EFP Energy =                            0.0000000000000000
    Total Energy =                       -426.3152051466248622
    Molecular point group: c1
  Basis Set: CC-PVTZ
  Basis Set:

  -Total Gradient:
     Atom            X                  Y                   Z
    ------   -----------------  -----------------  -----------------
       1       -0.000001985021     0.000005939799     0.000004277241
       2       -0.000005891628    -0.000002713756     0.000006897298
       3        0.000008883931     0.000001773817    -0.000022390352
       4       -0.000000890465     0.000003430219    -0.000006311142
       5       -0.000002823621    -0.000007419097     0.000007749478
       6        0.000004722557    -0.000007527889     0.000026434879
       7        0.000009317727     0.000002921847    -0.000008731887
       8       -0.000004011461    -0.000001231055     0.000000121919
       9       -0.000015581977    -0.000021407766    -0.000013625915
      10        0.000001653855     0.000005269204    -0.000006293704
      11       -0.000002714555    -0.000009816677     0.000005684639
      12       -0.000622922354    -0.000004326681     0.001118776148
      13        0.000001019605     0.000003073003     0.000007454782
      14        0.000002354970     0.000020216535     0.000006089564
      15        0.000569783386     0.000288794629    -0.001511768637
      16        0.000011864856     0.000008697179    -0.000016820800
      17        0.001167555224    -0.001613443180     0.000323292233
      18        0.000006875742     0.000012128887    -0.000003217220
      19        0.000001884949    -0.000001246969     0.000007380630
      20       -0.000000991944    -0.000000757379     0.000001449917
      21       -0.001112348149     0.001323117047     0.000068777429
      22        0.000000228119    -0.000008551770     0.000000146520
      23       -0.000010217870     0.000004176844     0.000002504359
      24       -0.000003238972     0.000006277510    -0.000000196006
      25       -0.000005507176    -0.000003880798     0.000003988162
      26        0.000003548988     0.000001798902    -0.000006030663
      27        0.000001276229    -0.000005553006     0.000002819126
      28       -0.000001844939     0.000000260602     0.000001542000

  **** Optimization is complete! (in 17 steps) ****
    Final optimized geometry and variables:
    Molecular point group: c1

    Geometry (in Angstrom), charge = 0, multiplicity = 1:

    H            4.576869333727    -0.541612340354     2.823078917640
    C            3.700757136184    -1.112363119186     2.537516844397
    C            2.612287078435    -0.205128038131     1.974268250749
    H            4.010933860256    -1.848675378134     1.804012512293
    H            3.353231535013    -1.646590226660     3.416113110203
    C            1.353905875245    -0.974436077935     1.577438391589
    H            2.996468611973     0.326566039043     1.112797337598
    H            2.350993808173     0.545014056740     2.717171505114
    C            0.243137892224    -0.097106895890     1.008951977009
    H            1.610240938213    -1.736888253176     0.851059641255
    H            0.967003729326    -1.490459721912     2.451517230668
    C            0.459985500301     0.385506400787    -0.412950717189
    H           -0.705600728933    -0.627970647267     1.020054943898
    H            0.086774930074     0.780256867432     1.631981864481
    C           -0.654403520669     1.212287735478    -1.022931360447
    O            1.430742273290     0.106628884995    -1.039653781697
    C           -1.755954761005     0.316278002680    -1.643326166087
    H           -0.214012520334     1.849248625817    -1.776217017313
    H           -1.088197569743     1.848149353678    -0.259539152905
    C           -3.163954150152     0.673370735014    -1.171862662975
    H           -1.715819071108     0.408563404691    -2.721893176247
    H           -1.562551100960    -0.728921426756    -1.423750775976
    C           -4.243434904539    -0.189135893870    -1.815762124464
    H           -3.357990328143     1.719758064063    -1.390611651162
    H           -3.218065670857     0.573863238130    -0.091035595647
    H           -4.237660969563    -0.081839287409    -2.895148032667
    H           -4.093154297941    -1.239295870566    -1.588539794768
    H           -5.229178061211     0.088145495266    -1.461009551761

  Mulliken Charges: (a.u.)
   Center  Symbol    Alpha    Beta     Spin     Total
       1     H     0.44871  0.44871  0.00000  0.10257
       2     C     3.15172  3.15172  0.00000 -0.30344
       3     C     3.08344  3.08344  0.00000 -0.16688
       4     H     0.45225  0.45225  0.00000  0.09549
       5     H     0.45751  0.45751  0.00000  0.08498
       6     C     3.08746  3.08746  0.00000 -0.17493
       7     H     0.44312  0.44312  0.00000  0.11377
       8     H     0.45903  0.45903  0.00000  0.08193
       9     C     3.13023  3.13023  0.00000 -0.26046
      10     H     0.44675  0.44675  0.00000  0.10650
      11     H     0.44824  0.44824  0.00000  0.10352
      12     C     2.86535  2.86535  0.00000  0.26930
      13     H     0.43324  0.43324  0.00000  0.13353
      14     H     0.44187  0.44187  0.00000  0.11625
      15     C     3.09820  3.09820  0.00000 -0.19640
      16     O     4.18068  4.18068  0.00000 -0.36136
      17     C     3.10324  3.10324  0.00000 -0.20648
      18     H     0.43557  0.43557  0.00000  0.12885
      19     H     0.44846  0.44846  0.00000  0.10308
      20     C     3.08567  3.08567  0.00000 -0.17135
      21     H     0.43984  0.43984  0.00000  0.12032
      22     H     0.44845  0.44845  0.00000  0.10310
      23     C     3.14994  3.14994  0.00000 -0.29988
      24     H     0.45151  0.45151  0.00000  0.09698
      25     H     0.45459  0.45459  0.00000  0.09082
      26     H     0.45328  0.45328  0.00000  0.09343
      27     H     0.45430  0.45430  0.00000  0.09139
      28     H     0.44733  0.44733  0.00000  0.10535

   Total alpha = 40.00000, Total beta = 40.00000, Total charge =  0.00000

*** Psi4 exiting successfully. Buy a developer a beer!
