  ==> Input File <==

--------------------------------------------------------------------------
set {
	reference rhf
	basis 6-31G*
}

set_num_threads( 4 )
memory 2 gb

molecule MOL {
0 1

H	 2.866480	 -0.465706	 0.876907
C	 2.405773	 -0.024801	 0.000000
N	 0.988830	 -0.304158	 0.000000
H	 2.866480	 -0.465706	 -0.876907
H	 2.629928	 1.045948	 0.000000
C	 0.221217	 0.728697	 -0.670782
C	 0.471545	 -0.541010	 1.335023
H	 0.330591	 1.698212	 -0.174217
H	 0.584260	 0.836277	 -1.688069
C	 -1.248596	 0.342566	 -0.694106
H	 1.017890	 -1.363167	 1.786477
H	 0.599162	 0.335982	 1.977750
C	 -1.004905	 -0.893470	 1.258507
H	 -1.847937	 1.141291	 -1.111053
H	 -1.382291	 -0.547728	 -1.306047
O	 -1.725899	 0.110696	 0.601413
H	 -1.428475	 -0.986288	 2.249966
H	 -1.127136	 -1.841918	 0.738434

	symmetry c1
}
set optking {
	frozen_dihedral = ("
		6 3 2 5
	")
}

ee = optimize('scf')
oeprop('DIPOLE', 'QUADRUPOLE', 'MULLIKEN_CHARGES')
f=open( 'psi4out.xyz', 'w' )
f.write( "18  " )
f.write( str(ee) + "\n" )
f.write( MOL.save_string_xyz() )
f.close()
--------------------------------------------------------------------------

    Molecular point group: c1
  Charge       = 0
  Multiplicity = 1
  Basis Set: 6-31G*
  Basis Set:
  @DF-RHF Final Energy:  -325.02471966346286
    Total Energy =                       -325.0247196634629177
    Molecular point group: c1
  Basis Set: 6-31G*
  Basis Set:
  Basis Set: 6-31G*
  Basis Set:
  @DF-RHF Final Energy:  -325.02495727389703
    Total Energy =                       -325.0249572738973143
  Basis Set: 6-31G*
  Basis Set:
  Basis Set: 6-31G*
  Basis Set:
  @DF-RHF Final Energy:  -325.02500625900359
    Total Energy =                       -325.0250062590037032
  Basis Set: 6-31G*
  Basis Set:
  Charge       = 0
  Multiplicity = 1
  Basis Set: 6-31G*
  Basis Set:

    Orbital Energies (a.u.)
    -----------------------

    Doubly Occupied:

       1A    -20.553593     2A    -15.548737     3A    -11.265847
       4A    -11.265719     5A    -11.244001     6A    -11.243986
       7A    -11.240881     8A     -1.383077     9A     -1.229884
      10A     -1.037885    11A     -0.980611    12A     -0.882053
      13A     -0.869592    14A     -0.775099    15A     -0.683104
      16A     -0.644151    17A     -0.642809    18A     -0.632476
      19A     -0.627308    20A     -0.570975    21A     -0.558540
      22A     -0.541938    23A     -0.527973    24A     -0.500973
      25A     -0.483152    26A     -0.451775    27A     -0.407096
      28A     -0.352465

  @DF-RHF Final Energy:  -325.02500777528496

   => Energetics <=

    Nuclear Repulsion Energy =            341.2388748899016946
    One-Electron Energy =               -1118.2363683425762702
    Two-Electron Energy =                 451.9724856773890451
    DFT Exchange-Correlation Energy =       0.0000000000000000
    Empirical Dispersion Energy =           0.0000000000000000
    PCM Polarization Energy =               0.0000000000000000
    EFP Energy =                            0.0000000000000000
    Total Energy =                       -325.0250077752855304
    Molecular point group: c1
  Basis Set: 6-31G*
  Basis Set:

  -Total Gradient:
     Atom            X                  Y                   Z
    ------   -----------------  -----------------  -----------------
       1        0.000006662080    -0.000001866207     0.000008063896
       2       -0.000117866269     0.000728445537     0.007982063447
       3        0.000554437602    -0.002563297198    -0.006065711554
       4       -0.000000652786    -0.000002662772    -0.000023317613
       5       -0.000017773647    -0.000003544808    -0.005221511963
       6       -0.000333205278     0.001825660933     0.003436136586
       7        0.000015259477    -0.000028863282    -0.000145913161
       8        0.000015438743     0.000022341653    -0.000002046257
       9       -0.000009191915     0.000001160424     0.000009431223
      10       -0.000028303774     0.000010671145    -0.000047014832
      11       -0.000000784958     0.000014765744    -0.000007181724
      12       -0.000010949040    -0.000007552815     0.000002667755
      13       -0.000029044933    -0.000009043112     0.000080618398
      14       -0.000023699121     0.000001681463     0.000005101670
      15       -0.000008984370    -0.000003348283     0.000007074361
      16        0.000023625465    -0.000009378786    -0.000027134275
      17       -0.000043835856    -0.000007340032     0.000015911667
      18        0.000008868584     0.000032170395    -0.000007237626

  **** Optimization is complete! (in 4 steps) ****
    Final optimized geometry and variables:
    Molecular point group: c1

    Geometry (in Angstrom), charge = 0, multiplicity = 1:

    H            2.889107257906    -0.406447936107     0.580285823287
    C            2.400685682238     0.049610029064    -0.271347993162
    N            0.976343623727    -0.234025079977    -0.260173909501
    H            2.851172582500    -0.359596651987    -1.171249285113
    H            2.614961128980     1.119085579265    -0.272871131724
    C            0.208951975653     0.802769253414    -0.926931299905
    C            0.449449630313    -0.453992223885     1.077089079325
    H            0.317224332286     1.766647148880    -0.420442463675
    H            0.577314352951     0.920860460735    -1.941681471111
    C           -1.260574631310     0.418029796595    -0.964015396512
    H            0.990228750635    -1.271956483678     1.541434879727
    H            0.567629569824     0.428940700704     1.712963714364
    C           -1.025174168083    -0.812646302400     0.992694495417
    H           -1.855645905911     1.218184991211    -1.384613366394
    H           -1.389901406025    -0.471027446267    -1.578448334369
    O           -1.748073859941     0.184632311985     0.327302599852
    H           -1.454449211630    -0.904921284474     1.981897627289
    H           -1.138109939407    -1.763286747161     0.474655655422

  Mulliken Charges: (a.u.)
   Center  Symbol    Alpha    Beta     Spin     Total
       1     H     0.41770  0.41770  0.00000  0.16459
       2     C     3.14082  3.14082  0.00000 -0.28164
       3     N     3.78783  3.78783  0.00000 -0.57565
       4     H     0.41476  0.41476  0.00000  0.17049
       5     H     0.42822  0.42822  0.00000  0.14356
       6     C     3.07076  3.07076  0.00000 -0.14152
       7     C     3.07019  3.07019  0.00000 -0.14038
       8     H     0.42747  0.42747  0.00000  0.14506
       9     H     0.41630  0.41630  0.00000  0.16740
      10     C     2.99705  2.99705  0.00000  0.00590
      11     H     0.41655  0.41655  0.00000  0.16690
      12     H     0.42825  0.42825  0.00000  0.14351
      13     C     2.99746  2.99746  0.00000  0.00507
      14     H     0.41343  0.41343  0.00000  0.17315
      15     H     0.42377  0.42377  0.00000  0.15245
      16     O     4.31211  4.31211  0.00000 -0.62423
      17     H     0.41345  0.41345  0.00000  0.17309
      18     H     0.42388  0.42388  0.00000  0.15224

   Total alpha = 28.00000, Total beta = 28.00000, Total charge = -0.00000
