  ==> Input File <==

--------------------------------------------------------------------------
set {
	reference rhf
	basis 6-31G*
}

set_num_threads( 1 )
memory 2 gb

molecule MOL {
0 1

O	 1.214711	 1.306902	 -0.000018
C	 1.122059	 0.121804	 -0.000188
C	 -0.170150	 -0.657997	 -0.000612
O	 2.172624	 -0.688929	 0.000216
C	 -1.412532	 0.227344	 -0.000452
H	 -0.153702	 -1.313099	 -0.867402
H	 -0.153924	 -1.313811	 0.865644
C	 -1.066368	 1.714934	 -0.081777
H	 -1.991231	 0.032644	 0.897158
H	 -2.049251	 -0.048515	 -0.835313
C	 -2.305445	 2.609187	 -0.083439
H	 -0.427674	 1.985833	 0.756531
H	 -0.484383	 1.904009	 -0.981563
H	 -2.891019	 2.468409	 0.820408
H	 -2.032381	 3.658162	 -0.141432
H	 -2.947808	 2.386429	 -0.930428
C	 3.452279	 -0.082609	 0.000533
H	 3.583069	 0.529321	 -0.880332
H	 4.163299	 -0.894027	 0.001117
H	 3.582335	 0.529955	 0.881077

	symmetry c1
}
set optking {
	frozen_dihedral = ("
		9 5 8 12,
		1 2 3 6,
		1 2 4 17
	")
}

ee = energy('scf')
oeprop('DIPOLE', 'QUADRUPOLE', 'MULLIKEN_CHARGES')
f=open( 'psi4out.xyz', 'w' )
f.write( "20  " )
f.write( str(ee) + "\n" )
f.write( MOL.save_string_xyz() )
f.close()
--------------------------------------------------------------------------

    Molecular point group: c1

    Geometry (in Angstrom), charge = 0, multiplicity = 1:

       Center              X                  Y                   Z               Mass
    ------------   -----------------  -----------------  -----------------  -----------------
           O          0.802926555124     0.729048777515     0.020706969506    15.994914619560
           C          0.710274555124    -0.456049222485     0.020536969506    12.000000000000
           C         -0.581934444876    -1.235850222485     0.020112969506    12.000000000000
           O          1.760839555124    -1.266782222485     0.020940969506    15.994914619560
           C         -1.824316444876    -0.350509222485     0.020272969506    12.000000000000
           H         -0.565486444876    -1.890952222485    -0.846677030494     1.007825032070
           H         -0.565708444876    -1.891664222485     0.886368969506     1.007825032070
           C         -1.478152444876     1.137080777515    -0.061052030494    12.000000000000
           H         -2.403015444876    -0.545209222485     0.917882969506     1.007825032070
           H         -2.461035444876    -0.626368222485    -0.814588030494     1.007825032070
           C         -2.717229444876     2.031333777515    -0.062714030494    12.000000000000
           H         -0.839458444876     1.407979777515     0.777255969506     1.007825032070
           H         -0.896167444876     1.326155777515    -0.960838030494     1.007825032070
           H         -3.302803444876     1.890555777515     0.841132969506     1.007825032070
           H         -2.444165444876     3.080308777515    -0.120707030494     1.007825032070
           H         -3.359592444876     1.808575777515    -0.909703030494     1.007825032070
           C          3.040494555124    -0.660462222485     0.021257969506    12.000000000000
           H          3.171284555124    -0.048532222485    -0.859607030494     1.007825032070
           H          3.751514555124    -1.471880222485     0.021841969506     1.007825032070
           H          3.170550555124    -0.047898222485     0.901801969506     1.007825032070

  Charge       = 0
  Multiplicity = 1
  Basis Set: 6-31G*
  Basis Set:

    Orbital Energies (a.u.)
    -----------------------

    Doubly Occupied:

       1A    -20.605491     2A    -20.540951     3A    -11.375613
       4A    -11.282503     5A    -11.236216     6A    -11.216668
       7A    -11.191894     8A    -11.190804     9A     -1.472836
      10A     -1.369175    11A     -1.083247    12A     -1.016804
      13A     -0.965357    14A     -0.879070    15A     -0.801743
      16A     -0.773347    17A     -0.696191    18A     -0.686908
      19A     -0.665633    20A     -0.639383    21A     -0.600286
      22A     -0.580640    23A     -0.567967    24A     -0.546360
      25A     -0.536477    26A     -0.517601    27A     -0.499908
      28A     -0.493797    29A     -0.467832    30A     -0.456391
      31A     -0.435011    32A     -0.402174

  @DF-RHF Final Energy:  -383.90216196197321

   => Energetics <=

    Nuclear Repulsion Energy =            398.5184966170064627
    One-Electron Energy =               -1313.2526717211546838
    Two-Electron Energy =                 530.8320131421737642
    DFT Exchange-Correlation Energy =       0.0000000000000000
    Empirical Dispersion Energy =           0.0000000000000000
    PCM Polarization Energy =               0.0000000000000000
    EFP Energy =                            0.0000000000000000
    Total Energy =                       -383.9021619619744570

  Mulliken Charges: (a.u.)
   Center  Symbol    Alpha    Beta     Spin     Total
       1     O     4.28363  4.28363  0.00000 -0.56727
       2     C     2.60761  2.60761  0.00000  0.78478
       3     C     3.21202  3.21202  0.00000 -0.42404
       4     O     4.30721  4.30721  0.00000 -0.61442
       5     C     3.15727  3.15727  0.00000 -0.31454
       6     H     0.39653  0.39653  0.00000  0.20695
       7     H     0.39639  0.39639  0.00000  0.20721
       8     C     3.14848  3.14848  0.00000 -0.29697
       9     H     0.41847  0.41847  0.00000  0.16306
      10     H     0.41846  0.41846  0.00000  0.16308
      11     C     3.23601  3.23601  0.00000 -0.47202
      12     H     0.40564  0.40564  0.00000  0.18872
      13     H     0.41483  0.41483  0.00000  0.17034
      14     H     0.42850  0.42850  0.00000  0.14299
      15     H     0.42076  0.42076  0.00000  0.15847
      16     H     0.42920  0.42920  0.00000  0.14159
      17     C     3.09237  3.09237  0.00000 -0.18474
      18     H     0.40923  0.40923  0.00000  0.18154
      19     H     0.40809  0.40809  0.00000  0.18383
      20     H     0.40928  0.40928  0.00000  0.18143

   Total alpha = 32.00000, Total beta = 32.00000, Total charge =  0.00000
