  ==> Input File <==

--------------------------------------------------------------------------
set {
	reference rhf
	basis 6-31G*
}

set_num_threads( 1 )
memory 2 gb

molecule MOL {
0 1

O	 -2.042549	 -1.228399	 -0.269030
C	 -1.653912	 -0.146171	 0.050137
C	 -0.332303	 0.024011	 0.778412
C	 -2.438579	 1.106236	 -0.272369
C	 -0.557903	 0.231896	 2.284321
H	 0.306351	 -0.839763	 0.615939
H	 0.162908	 0.894377	 0.362296
C	 0.748367	 0.438394	 3.052467
H	 -1.085934	 -0.624997	 2.699052
H	 -1.205435	 1.092687	 2.421734
C	 0.526388	 0.654298	 4.548902
H	 1.395778	 -0.422981	 2.903070
H	 1.275834	 1.294107	 2.637617
H	 0.030361	 -0.200530	 4.999767
H	 -0.091387	 1.528747	 4.730938
H	 1.468712	 0.800854	 5.067142
H	 -3.277823	 0.863061	 -0.908988
H	 -1.806773	 1.843019	 -0.759671
H	 -2.802853	 1.554979	 0.648059

	symmetry c1
}
set optking {
	frozen_dihedral = ("
		11 8 5 9,
		9 5 3 2
	")
}

ee = energy('scf')
oeprop('DIPOLE', 'QUADRUPOLE', 'MULLIKEN_CHARGES')
f=open( 'psi4out.xyz', 'w' )
f.write( "19  " )
f.write( str(ee) + "\n" )
f.write( MOL.save_string_xyz() )
f.close()
--------------------------------------------------------------------------

    Molecular point group: c1

    Geometry (in Angstrom), charge = 0, multiplicity = 1:

       Center              X                  Y                   Z               Mass
    ------------   -----------------  -----------------  -----------------  -----------------
           O         -1.214883902451    -1.387260881641    -1.733880708857    15.994914619560
           C         -0.826246902451    -0.305032881641    -1.414713708857    12.000000000000
           C          0.495362097549    -0.134850881641    -0.686438708857    12.000000000000
           C         -1.610913902451     0.947374118359    -1.737219708857    12.000000000000
           C          0.269762097549     0.073034118359     0.819470291143    12.000000000000
           H          1.134016097549    -0.998624881641    -0.848911708857     1.007825032070
           H          0.990573097549     0.735515118359    -1.102554708857     1.007825032070
           C          1.576032097549     0.279532118359     1.587616291143    12.000000000000
           H         -0.258268902451    -0.783858881641     1.234201291143     1.007825032070
           H         -0.377769902451     0.933825118359     0.956883291143     1.007825032070
           C          1.354053097549     0.495436118359     3.084051291143    12.000000000000
           H          2.223443097549    -0.581842881641     1.438219291143     1.007825032070
           H          2.103499097549     1.135245118359     1.172766291143     1.007825032070
           H          0.858026097549    -0.359391881641     3.534916291143     1.007825032070
           H          0.736278097549     1.369885118359     3.266087291143     1.007825032070
           H          2.296377097549     0.641992118359     3.602291291143     1.007825032070
           H         -2.450157902451     0.704199118359    -2.373838708857     1.007825032070
           H         -0.979107902451     1.684157118359    -2.224521708857     1.007825032070
           H         -1.975187902451     1.396117118359    -0.816791708857     1.007825032070

  Charge       = 0
  Multiplicity = 1
  Basis Set: 6-31G*
  Basis Set:

    Orbital Energies (a.u.)
    -----------------------

    Doubly Occupied:

       1A    -20.547087     2A    -11.323885     3A    -11.232364
       4A    -11.229338     5A    -11.228745     6A    -11.226145
       7A    -11.216126     8A     -1.392467     9A     -1.093560
      10A     -1.030268    11A     -0.983190    12A     -0.891282
      13A     -0.808546    14A     -0.733694    15A     -0.663790
      16A     -0.645940    17A     -0.623558    18A     -0.614347
      19A     -0.581930    20A     -0.573692    21A     -0.554178
      22A     -0.537890    23A     -0.509033    24A     -0.504431
      25A     -0.484638    26A     -0.477506    27A     -0.467760
      28A     -0.396080

  @DF-RHF Final Energy:  -309.06395078569454

   => Energetics <=

    Nuclear Repulsion Energy =            301.4535259479937963
    One-Electron Energy =               -1015.8919290087753780
    Two-Electron Energy =                 405.3744522750865826
    DFT Exchange-Correlation Energy =       0.0000000000000000
    Empirical Dispersion Energy =           0.0000000000000000
    PCM Polarization Energy =               0.0000000000000000
    EFP Energy =                            0.0000000000000000
    Total Energy =                       -309.0639507856950559

  Mulliken Charges: (a.u.)
   Center  Symbol    Alpha    Beta     Spin     Total
       1     O     4.26050  4.26050  0.00000 -0.52099
       2     C     2.73850  2.73850  0.00000  0.52300
       3     C     3.19862  3.19862  0.00000 -0.39724
       4     C     3.28964  3.28964  0.00000 -0.57927
       5     C     3.16383  3.16383  0.00000 -0.32766
       6     H     0.39964  0.39964  0.00000  0.20073
       7     H     0.41725  0.41725  0.00000  0.16549
       8     C     3.15137  3.15137  0.00000 -0.30274
       9     H     0.41002  0.41002  0.00000  0.17997
      10     H     0.42060  0.42060  0.00000  0.15879
      11     C     3.24035  3.24035  0.00000 -0.48071
      12     H     0.41871  0.41871  0.00000  0.16258
      13     H     0.42183  0.42183  0.00000  0.15633
      14     H     0.41924  0.41924  0.00000  0.16153
      15     H     0.42118  0.42118  0.00000  0.15764
      16     H     0.41708  0.41708  0.00000  0.16583
      17     H     0.39558  0.39558  0.00000  0.20883
      18     H     0.40973  0.40973  0.00000  0.18055
      19     H     0.40633  0.40633  0.00000  0.18735

   Total alpha = 28.00000, Total beta = 28.00000, Total charge =  0.00000
