  ==> Input File <==

--------------------------------------------------------------------------
set {
	reference rhf
	basis 6-31G*
}

set_num_threads( 1 )
memory 2 gb

molecule MOL {
0 1

O	 3.225979	 0.970355	 -0.599647
C	 2.701189	 0.057885	 -0.047330
C	 1.245376	 -0.013843	 0.345420
O	 3.347903	 -1.046386	 0.304773
C	 0.907331	 -1.252775	 1.171792
H	 1.012985	 0.904197	 0.874937
H	 0.661662	 0.016247	 -0.571134
C	 -0.585184	 -1.394463	 1.489311
H	 1.479658	 -1.235566	 2.094432
H	 1.240088	 -2.131290	 0.629661
C	 -1.154031	 -0.313292	 2.412671
H	 -0.739850	 -2.365191	 1.954595
H	 -1.153432	 -1.411578	 0.560436
C	 -2.616820	 -0.560142	 2.787255
H	 -0.553725	 -0.265691	 3.319966
H	 -1.072486	 0.663278	 1.940830
C	 -3.197400	 0.516818	 3.705522
H	 -2.705060	 -1.530693	 3.272517
H	 -3.215969	 -0.618546	 1.879891
C	 -4.657361	 0.260850	 4.077938
H	 -2.599266	 0.577205	 4.612292
H	 -3.114061	 1.487108	 3.220370
H	 -5.040232	 1.040725	 4.728947
H	 -4.769232	 -0.687199	 4.596478
H	 -5.287797	 0.229120	 3.193733
C	 4.728119	 -1.109107	 -0.004993
H	 4.882018	 -1.033965	 -1.071845
H	 5.068212	 -2.067527	 0.355250
H	 5.265056	 -0.311663	 0.488280

	symmetry c1
}
set optking {
	frozen_dihedral = ("
		21 17 14 11,
		17 14 11 15,
		15 11 8 5,
		6 3 5 9,
		11 8 5 9,
		2 4 26 27,
		1 2 4 26
	")
}

ee = energy('scf')
oeprop('DIPOLE', 'QUADRUPOLE', 'MULLIKEN_CHARGES')
f=open( 'psi4out.xyz', 'w' )
f.write( "29  " )
f.write( str(ee) + "\n" )
f.write( MOL.save_string_xyz() )
f.close()
--------------------------------------------------------------------------

    Molecular point group: c1

    Geometry (in Angstrom), charge = 0, multiplicity = 1:

       Center              X                  Y                   Z               Mass
    ------------   -----------------  -----------------  -----------------  -----------------
           O          2.828342002276     1.322736746859    -2.009218552554    15.994914619560
           C          2.303552002276     0.410266746859    -1.456901552554    12.000000000000
           C          0.847739002276     0.338538746859    -1.064151552554    12.000000000000
           O          2.950266002276    -0.694004253141    -1.104798552554    15.994914619560
           C          0.509694002276    -0.900393253141    -0.237779552554    12.000000000000
           H          0.615348002276     1.256578746859    -0.534634552554     1.007825032070
           H          0.264025002276     0.368628746859    -1.980705552554     1.007825032070
           C         -0.982820997724    -1.042081253141     0.079739447446    12.000000000000
           H          1.082021002276    -0.883184253141     0.684860447446     1.007825032070
           H          0.842451002276    -1.778908253141    -0.779910552554     1.007825032070
           C         -1.551667997724     0.039089746859     1.003099447446    12.000000000000
           H         -1.137486997724    -2.012809253141     0.545023447446     1.007825032070
           H         -1.551068997724    -1.059196253141    -0.849135552554     1.007825032070
           C         -3.014456997724    -0.207760253141     1.377683447446    12.000000000000
           H         -0.951361997724     0.086690746859     1.910394447446     1.007825032070
           H         -1.470122997724     1.015659746859     0.531258447446     1.007825032070
           C         -3.595036997724     0.869199746859     2.295950447446    12.000000000000
           H         -3.102696997724    -1.178311253141     1.862945447446     1.007825032070
           H         -3.613605997724    -0.266164253141     0.470319447446     1.007825032070
           C         -5.054997997724     0.613231746859     2.668366447446    12.000000000000
           H         -2.996902997724     0.929586746859     3.202720447446     1.007825032070
           H         -3.511697997724     1.839489746859     1.810798447446     1.007825032070
           H         -5.437868997724     1.393106746859     3.319375447446     1.007825032070
           H         -5.166868997724    -0.334817253141     3.186906447446     1.007825032070
           H         -5.685433997724     0.581501746859     1.784161447446     1.007825032070
           C          4.330482002276    -0.756725253141    -1.414564552554    12.000000000000
           H          4.484381002276    -0.681583253141    -2.481416552554     1.007825032070
           H          4.670575002276    -1.715145253141    -1.054321552554     1.007825032070
           H          4.867419002276     0.040718746859    -0.921291552554     1.007825032070

  Charge       = 0
  Multiplicity = 1
  Basis Set: 6-31G*
  Basis Set:

    Orbital Energies (a.u.)
    -----------------------

    Doubly Occupied:

       1A    -20.604984     2A    -20.542065     3A    -11.372401
       4A    -11.281029     5A    -11.234709     6A    -11.220501
       7A    -11.218275     8A    -11.216553     9A    -11.216062
      10A    -11.214892    11A    -11.209231    12A     -1.469748
      13A     -1.361594    14A     -1.100103    15A     -1.069021
      16A     -1.019355    17A     -0.971898    18A     -0.931707
      19A     -0.864334    20A     -0.799269    21A     -0.790541
      22A     -0.772586    23A     -0.699284    24A     -0.683362
      25A     -0.670318    26A     -0.651453    27A     -0.627811
      28A     -0.604375    29A     -0.590627    30A     -0.577712
      31A     -0.564880    32A     -0.549227    33A     -0.534590
      34A     -0.530916    35A     -0.523905    36A     -0.511993
      37A     -0.499272    38A     -0.482209    39A     -0.472145
      40A     -0.464352    41A     -0.462506    42A     -0.452642
      43A     -0.442637    44A     -0.425064

  @DF-RHF Final Energy:  -501.03979781674173

   => Energetics <=

    Nuclear Repulsion Energy =            614.6128934084680395
    One-Electron Energy =               -1900.3011484833180020
    Two-Electron Energy =                 784.6484572581127850
    DFT Exchange-Correlation Energy =       0.0000000000000000
    Empirical Dispersion Energy =           0.0000000000000000
    PCM Polarization Energy =               0.0000000000000000
    EFP Energy =                            0.0000000000000000
    Total Energy =                       -501.0397978167372912

  Mulliken Charges: (a.u.)
   Center  Symbol    Alpha    Beta     Spin     Total
       1     O     4.28853  4.28853  0.00000 -0.57705
       2     C     2.60064  2.60064  0.00000  0.79872
       3     C     3.21806  3.21806  0.00000 -0.43611
       4     O     4.30545  4.30545  0.00000 -0.61090
       5     C     3.15199  3.15199  0.00000 -0.30398
       6     H     0.39601  0.39601  0.00000  0.20798
       7     H     0.39895  0.39895  0.00000  0.20210
       8     C     3.15622  3.15622  0.00000 -0.31244
       9     H     0.41599  0.41599  0.00000  0.16803
      10     H     0.40887  0.40887  0.00000  0.18225
      11     C     3.15521  3.15521  0.00000 -0.31043
      12     H     0.41926  0.41926  0.00000  0.16147
      13     H     0.42365  0.42365  0.00000  0.15270
      14     C     3.15029  3.15029  0.00000 -0.30058
      15     H     0.42324  0.42324  0.00000  0.15352
      16     H     0.42267  0.42267  0.00000  0.15465
      17     C     3.15151  3.15151  0.00000 -0.30303
      18     H     0.42373  0.42373  0.00000  0.15255
      19     H     0.42376  0.42376  0.00000  0.15248
      20     C     3.23937  3.23937  0.00000 -0.47874
      21     H     0.42298  0.42298  0.00000  0.15405
      22     H     0.42288  0.42288  0.00000  0.15423
      23     H     0.41907  0.41907  0.00000  0.16186
      24     H     0.42179  0.42179  0.00000  0.15642
      25     H     0.42170  0.42170  0.00000  0.15661
      26     C     3.09188  3.09188  0.00000 -0.18376
      27     H     0.40871  0.40871  0.00000  0.18259
      28     H     0.40894  0.40894  0.00000  0.18212
      29     H     0.40865  0.40865  0.00000  0.18271

   Total alpha = 44.00000, Total beta = 44.00000, Total charge = -0.00000
