                              Psi4 1.0.54 Driver

  ==> Input File <==

--------------------------------------------------------------------------
set {
	reference rhf
	basis cc-pvtz
}

set_num_threads( 4 )
memory 2 gb

molecule MOL {
0 1

H	 2.329664	 -2.054166	 0.253713
N	 1.348683	 -1.879324	 0.257782
C	 0.899787	 -1.449294	 -1.051190
C	 1.004849	 -0.914136	 1.282493
H	 1.152253	 -2.210045	 -1.779799
H	 1.370237	 -0.515343	 -1.364291
C	 -0.604844	 -1.250300	 -1.027473
H	 1.333446	 -1.287098	 2.244924
H	 1.481937	 0.053627	 1.116836
C	 -0.499919	 -0.715843	 1.303152
H	 -1.088966	 -2.218238	 -0.868376
H	 -0.934703	 -0.872321	 -1.987912
N	 -0.976577	 -0.298712	 -0.000000
H	 -0.753912	 0.048582	 2.027901
H	 -0.976814	 -1.646961	 1.622810
C	 -2.391156	 -0.021003	 -0.000000
H	 -2.853954	 -0.458728	 -0.875714
H	 -2.853954	 -0.458728	 0.875714
H	 -2.614037	 1.049773	 -0.000000

	symmetry c1
}
set optking {
	frozen_dihedral = ("
		7 13 16 19
	")
}

ee,wfn = optimize('scf', return_wfn=True)
oeprop( wfn, 'DIPOLE', 'QUADRUPOLE', 'MULLIKEN_CHARGES')
f=open( 'psi4out.xyz', 'w' )
f.write( "19  " )
f.write( str(ee) + "\n" )
f.write( MOL.save_string_xyz() )
f.close()
--------------------------------------------------------------------------

    Molecular point group: c1
  Charge       = 0
  Multiplicity = 1
  Basis Set: CC-PVTZ
  Basis Set:
  @DF-RHF Final Energy:  -305.30293690655515
    Total Energy =                       -305.3029369065555443
    Molecular point group: c1
  Basis Set: CC-PVTZ
  Basis Set:
  Basis Set: CC-PVTZ
  Basis Set:
  @DF-RHF Final Energy:  -305.30377320106066
    Total Energy =                       -305.3037732010608352
  Basis Set: CC-PVTZ
  Basis Set:
  Basis Set: CC-PVTZ
  Basis Set:
  @DF-RHF Final Energy:  -305.30392467390755
    Total Energy =                       -305.3039246739075452
  Basis Set: CC-PVTZ
  Basis Set:
  Basis Set: CC-PVTZ
  Basis Set:
  @DF-RHF Final Energy:  -305.30393610807840
    Total Energy =                       -305.3039361080785739
  Basis Set: CC-PVTZ
  Basis Set:
  Charge       = 0
  Multiplicity = 1
  Basis Set: CC-PVTZ
  Basis Set:

    Orbital Energies (a.u.)
    -----------------------

    Doubly Occupied:

       1A    -15.532421     2A    -15.530761     3A    -11.236588
       4A    -11.236569     5A    -11.235789     6A    -11.235643
       7A    -11.232964     8A     -1.246425     9A     -1.185305
      10A     -1.023878    11A     -0.965222    12A     -0.861704
      13A     -0.858789    14A     -0.756022    15A     -0.691928
      16A     -0.633044    17A     -0.624761    18A     -0.606997
      19A     -0.604702    20A     -0.582472    21A     -0.544087
      22A     -0.534836    23A     -0.511710    24A     -0.488557
      25A     -0.468286    26A     -0.457813    27A     -0.365629
      28A     -0.339702

  @DF-RHF Final Energy:  -305.30393700826983

   => Energetics <=

    Nuclear Repulsion Energy =            339.7489652075929598
    One-Electron Energy =               -1086.9206018272755045
    Two-Electron Energy =                 441.8676996114126041
    DFT Exchange-Correlation Energy =       0.0000000000000000
    Empirical Dispersion Energy =           0.0000000000000000
    PCM Polarization Energy =               0.0000000000000000
    EFP Energy =                            0.0000000000000000
    Total Energy =                       -305.3039370082699406
    Molecular point group: c1
  Basis Set: CC-PVTZ
  Basis Set:

  -Total Gradient:
     Atom            X                  Y                   Z
    ------   -----------------  -----------------  -----------------
       1        0.000008529936    -0.000005448626    -0.000006008317
       2       -0.000010964128    -0.000005292380    -0.000005562158
       3        0.000007377172     0.000002447686    -0.000005566174
       4       -0.000006770025    -0.000000372707     0.000014050559
       5        0.000008493356    -0.000003955414    -0.000000732515
       6       -0.000007587710     0.000000903189    -0.000003118908
       7        0.000471723532     0.002105967891    -0.001784466973
       8        0.000007156835    -0.000002466254     0.000001253508
       9       -0.000010038406     0.000001124029     0.000004427360
      10       -0.000007009358     0.000023068709     0.000034733252
      11        0.000001662285     0.000018003955     0.000007812092
      12        0.000004827382    -0.000003381627     0.000001817161
      13       -0.000606501275    -0.002985912706     0.001496426420
      14       -0.000002116927    -0.000001824519     0.000005576109
      15        0.000002023803     0.000006736683    -0.000013399749
      16        0.000014825778     0.000833247601     0.003948878359
      17       -0.000004643819    -0.000006466742    -0.000010313278
      18        0.000029847023    -0.000015756816    -0.000026090010
      19        0.000099164549     0.000039378049    -0.003659716739

  **** Optimization is complete! (in 5 steps) ****
    Final optimized geometry and variables:
    Molecular point group: c1

    Geometry (in Angstrom), charge = 0, multiplicity = 1:

    H            2.548822126432    -1.035874951411     0.184057993661
    N            1.562607092588    -0.893033690023     0.178533267510
    C            1.109297925010    -0.506650388254    -1.142369255176
    C            1.181282285233     0.083447793427     1.178793079559
    H            1.402708326006    -1.268169273608    -1.854851166256
    H            1.542536001986     0.441672049036    -1.466599592043
    C           -0.403071006763    -0.371664985134    -1.139609938500
    H            1.522341845762    -0.252332117199     2.150677721278
    H            1.622078744754     1.063997412729     0.988487813839
    C           -0.330027869132     0.224863887565     1.192814859323
    H           -0.845288946115    -1.361217464099    -0.988685784037
    H           -0.730455447143    -0.009058920991    -2.106118320188
    N           -0.822823003522     0.567933799184    -0.122339009395
    H           -0.611583680276     1.008819851649     1.886452604427
    H           -0.771038151040    -0.708957885282     1.554335619353
    C           -2.237060630956     0.883558633353    -0.143064282926
    H           -2.692928495714     0.513150519809    -1.053343646367
    H           -2.775612245455     0.435331442214     0.688952988083
    H           -2.398765073905     1.956246127749    -0.127901143817

  Mulliken Charges: (a.u.)
   Center  Symbol    Alpha    Beta     Spin     Total
       1     H     0.43993  0.43993  0.00000  0.12015
       2     N     3.64275  3.64275  0.00000 -0.28550
       3     C     3.04187  3.04187  0.00000 -0.08374
       4     C     3.04177  3.04177  0.00000 -0.08354
       5     H     0.45271  0.45271  0.00000  0.09458
       6     H     0.46631  0.46631  0.00000  0.06739
       7     C     3.03311  3.03311  0.00000 -0.06622
       8     H     0.45273  0.45273  0.00000  0.09453
       9     H     0.46619  0.46619  0.00000  0.06761
      10     C     3.03408  3.03408  0.00000 -0.06817
      11     H     0.46952  0.46952  0.00000  0.06096
      12     H     0.45419  0.45419  0.00000  0.09162
      13     N     3.61624  3.61624  0.00000 -0.23248
      14     H     0.45392  0.45392  0.00000  0.09215
      15     H     0.46910  0.46910  0.00000  0.06181
      16     C     3.09265  3.09265  0.00000 -0.18529
      17     H     0.45846  0.45846  0.00000  0.08308
      18     H     0.46391  0.46391  0.00000  0.07219
      19     H     0.45056  0.45056  0.00000  0.09888

   Total alpha = 28.00000, Total beta = 28.00000, Total charge = -0.00000

*** Psi4 exiting successfully. Buy a developer a beer!
