  ==> Input File <==

--------------------------------------------------------------------------
set {
	reference rhf
	basis 6-31G*
}

set_num_threads( 4 )
memory 2 gb

molecule MOL {
0 1

H	 1.136379	 0.211822	 1.465562
C	 1.135357	 0.094285	 0.374742
C	 0.065331	 0.871482	 -0.349150
O	 1.941633	 -0.601957	 -0.151457
C	 -0.616783	 0.044672	 -1.448507
H	 0.510966	 1.774214	 -0.750893
H	 -0.676906	 1.164812	 0.391932
C	 0.314684	 -0.300388	 -2.611145
H	 -1.468928	 0.604089	 -1.821215
H	 -1.019470	 -0.868929	 -1.016283
H	 0.700927	 0.599563	 -3.079580
H	 -0.209902	 -0.872396	 -3.369388
H	 1.166006	 -0.889913	 -2.283882

	symmetry c1
}
set optking {
	frozen_dihedral = ("
		6 3 2 4
	")
}

ee = optimize('scf')
oeprop('DIPOLE', 'QUADRUPOLE', 'MULLIKEN_CHARGES')
f=open( 'psi4out.xyz', 'w' )
f.write( "13  " )
f.write( str(ee) + "\n" )
f.write( MOL.save_string_xyz() )
f.close()
--------------------------------------------------------------------------

    Molecular point group: c1
  Charge       = 0
  Multiplicity = 1
  Basis Set: 6-31G*
  Basis Set:
  @DF-RHF Final Energy:  -230.98079249343922
    Total Energy =                       -230.9807924934392531
    Molecular point group: c1
  Basis Set: 6-31G*
  Basis Set:
  Basis Set: 6-31G*
  Basis Set:
  @DF-RHF Final Energy:  -230.98243046522111
    Total Energy =                       -230.9824304652212277
  Basis Set: 6-31G*
  Basis Set:
  Basis Set: 6-31G*
  Basis Set:
  @DF-RHF Final Energy:  -230.98156248706920
    Total Energy =                       -230.9815624870688850
  Basis Set: 6-31G*
  Basis Set:
  Basis Set: 6-31G*
  Basis Set:
  @DF-RHF Final Energy:  -230.98265340137317
    Total Energy =                       -230.9826534013732839
  Basis Set: 6-31G*
  Basis Set:
  Basis Set: 6-31G*
  Basis Set:
  @DF-RHF Final Energy:  -230.98266927560371
    Total Energy =                       -230.9826692756037971
  Basis Set: 6-31G*
  Basis Set:
  Basis Set: 6-31G*
  Basis Set:
  @DF-RHF Final Energy:  -230.98267031991642
    Total Energy =                       -230.9826703199164513
  Basis Set: 6-31G*
  Basis Set:
  Charge       = 0
  Multiplicity = 1
  Basis Set: 6-31G*
  Basis Set:

    Orbital Energies (a.u.)
    -----------------------

    Doubly Occupied:

       1A    -20.564668     2A    -11.329760     3A    -11.237592
       4A    -11.229959     5A    -11.206710     6A     -1.404967
       7A     -1.076356     8A     -0.970762     9A     -0.845285
      10A     -0.773965    11A     -0.683106    12A     -0.647192
      13A     -0.601867    14A     -0.587194    15A     -0.570246
      16A     -0.521093    17A     -0.497088    18A     -0.485640
      19A     -0.479579    20A     -0.407747

  @DF-RHF Final Energy:  -230.98267040239725

   => Energetics <=

    Nuclear Repulsion Energy =            175.9272791694109230
    One-Electron Energy =                -661.5783497981739174
    Two-Electron Energy =                 254.6684002263657192
    DFT Exchange-Correlation Energy =       0.0000000000000000
    Empirical Dispersion Energy =           0.0000000000000000
    PCM Polarization Energy =               0.0000000000000000
    EFP Energy =                            0.0000000000000000
    Total Energy =                       -230.9826704023973036
    Molecular point group: c1
  Basis Set: 6-31G*
  Basis Set:

  -Total Gradient:
     Atom            X                  Y                   Z
    ------   -----------------  -----------------  -----------------
       1        0.000001431297     0.000004242818     0.000000432904
       2       -0.002005743409    -0.002619658497     0.000083589789
       3        0.000118442799     0.002156027468     0.001833068348
       4        0.001446722152     0.001638258903    -0.000292557810
       5        0.000003691550    -0.000008615237    -0.000003533230
       6        0.000453133751    -0.001165378748    -0.001628776739
       7        0.000001021965    -0.000000876626     0.000001830280
       8       -0.000007474563     0.000005829237     0.000012059993
       9        0.000007177730    -0.000002335863    -0.000008998587
      10       -0.000002829002    -0.000008503381    -0.000010942302
      11       -0.000005891625     0.000002846924     0.000007024745
      12       -0.000006244329    -0.000001322712    -0.000000444295
      13       -0.000003438316    -0.000000514288     0.000007246899

  **** Optimization is complete! (in 7 steps) ****
    Final optimized geometry and variables:
    Molecular point group: c1

    Geometry (in Angstrom), charge = 0, multiplicity = 1:

    H            0.544241969241     0.331596658061     2.351949584795
    C            0.537831367898     0.100905075264     1.280798907586
    C           -0.484830894987     0.853369003428     0.457515855682
    O            1.327826714171    -0.671168635088     0.840988085764
    C           -1.165073659677     0.020436488568    -0.641281974917
    H            0.036029953005     1.694046861710     0.000628029889
    H           -1.226363894234     1.270763041434     1.131792530848
    C           -0.286685066807    -0.247626836142    -1.863491081674
    H           -2.057600543973     0.554101135560    -0.955454933651
    H           -1.504512586559    -0.921590853493    -0.219508790585
    H            0.028981303712     0.685382887626    -2.323123455036
    H           -0.838320453186    -0.811181874812    -2.609731255211
    H            0.598745613181    -0.808445987279    -1.597555330346

  Mulliken Charges: (a.u.)
   Center  Symbol    Alpha    Beta     Spin     Total
       1     H     0.42696  0.42696  0.00000  0.14608
       2     C     2.84190  2.84190  0.00000  0.31620
       3     C     3.20783  3.20783  0.00000 -0.41566
       4     O     4.23589  4.23589  0.00000 -0.47178
       5     C     3.15259  3.15259  0.00000 -0.30517
       6     H     0.40153  0.40153  0.00000  0.19693
       7     H     0.41257  0.41257  0.00000  0.17485
       8     C     3.24435  3.24435  0.00000 -0.48869
       9     H     0.41721  0.41721  0.00000  0.16558
      10     H     0.41597  0.41597  0.00000  0.16806
      11     H     0.42484  0.42484  0.00000  0.15032
      12     H     0.42043  0.42043  0.00000  0.15914
      13     H     0.39793  0.39793  0.00000  0.20414

   Total alpha = 20.00000, Total beta = 20.00000, Total charge =  0.00000
