  ==> Input File <==

--------------------------------------------------------------------------
set {
	reference rhf
	basis 6-31G*
}

set_num_threads( 4 )
memory 2 gb

molecule MOL {
0 1

H	 -2.098997	 -0.674324	 -0.616650
O	 -2.035884	 -0.060112	 0.102722
C	 -0.955155	 0.788182	 -0.092531
C	 0.353668	 0.040312	 -0.004810
H	 -0.985057	 1.290372	 -1.054184
H	 -0.974469	 1.533190	 0.688632
F	 1.369781	 0.888209	 0.109894
F	 0.366104	 -0.747633	 1.058292
F	 0.579886	 -0.707034	 -1.065871

	symmetry c1
}
set optking {
	frozen_dihedral = ("
		7 4 3 5
	")
}

ee = optimize('scf')
oeprop('DIPOLE', 'QUADRUPOLE', 'MULLIKEN_CHARGES')
f=open( 'psi4out.xyz', 'w' )
f.write( "9  " )
f.write( str(ee) + "\n" )
f.write( MOL.save_string_xyz() )
f.close()
--------------------------------------------------------------------------

    Molecular point group: c1
  Charge       = 0
  Multiplicity = 1
  Basis Set: 6-31G*
  Basis Set:
  @DF-RHF Final Energy:  -450.66112518783103
    Total Energy =                       -450.6611251878306348
    Molecular point group: c1
  Basis Set: 6-31G*
  Basis Set:
  Basis Set: 6-31G*
  Basis Set:
  @DF-RHF Final Energy:  -450.66148660195415
    Total Energy =                       -450.6614866019540386
  Basis Set: 6-31G*
  Basis Set:
  Basis Set: 6-31G*
  Basis Set:
  @DF-RHF Final Energy:  -450.66154108678637
    Total Energy =                       -450.6615410867864284
  Basis Set: 6-31G*
  Basis Set:
  Basis Set: 6-31G*
  Basis Set:
  @DF-RHF Final Energy:  -450.66154635510958
    Total Energy =                       -450.6615463551092944
  Basis Set: 6-31G*
  Basis Set:
  Charge       = 0
  Multiplicity = 1
  Basis Set: 6-31G*
  Basis Set:

    Orbital Energies (a.u.)
    -----------------------

    Doubly Occupied:

       1A    -26.343406     2A    -26.342217     3A    -26.336972
       4A    -20.590060     5A    -11.499332     6A    -11.309960
       7A     -1.739180     8A     -1.638664     9A     -1.634755
      10A     -1.401642    11A     -1.047113    12A     -0.923032
      13A     -0.829963    14A     -0.827099    15A     -0.803322
      16A     -0.728471    17A     -0.711503    18A     -0.695889
      19A     -0.664422    20A     -0.656929    21A     -0.641237
      22A     -0.628878    23A     -0.611754    24A     -0.531455
      25A     -0.480081

  @DF-RHF Final Energy:  -450.66154705865517

   => Energetics <=

    Nuclear Repulsion Energy =            276.8628358252464068
    One-Electron Energy =               -1175.8140944161677908
    Two-Electron Energy =                 448.2897115322660966
    DFT Exchange-Correlation Energy =       0.0000000000000000
    Empirical Dispersion Energy =           0.0000000000000000
    PCM Polarization Energy =               0.0000000000000000
    EFP Energy =                            0.0000000000000000
    Total Energy =                       -450.6615470586552874
    Molecular point group: c1
  Basis Set: 6-31G*
  Basis Set:

  -Total Gradient:
     Atom            X                  Y                   Z
    ------   -----------------  -----------------  -----------------
       1       -0.000018892631    -0.000015039591    -0.000002025279
       2       -0.000031701327    -0.000019457475    -0.000014314804
       3        0.002222186776     0.004294301114     0.003148957225
       4        0.000013070992    -0.000722863282    -0.005008311022
       5       -0.001878794351    -0.003515849054    -0.001668195650
       6        0.000001910894    -0.000003561657    -0.000018633492
       7       -0.000273373630    -0.000024649607     0.003542217540
       8       -0.000031197214    -0.000028999454     0.000039061967
       9       -0.000003209507     0.000036119003    -0.000018756486

  **** Optimization is complete! (in 5 steps) ****
    Final optimized geometry and variables:
    Molecular point group: c1

    Geometry (in Angstrom), charge = 0, multiplicity = 1:

    H           -2.124358169837    -0.651411483412    -0.664608516418
    O           -2.040782075020    -0.068577970097     0.078398730473
    C           -0.958495946857     0.784581737799    -0.102429836864
    C            0.354165928057     0.039413826117    -0.005740079087
    H           -0.991771390448     1.266090319711    -1.074104106282
    H           -0.990427049428     1.529715901174     0.677070215146
    F            1.363307485884     0.890998540970     0.086320467940
    F            0.401312147495    -0.748671870009     1.049177739939
    F            0.553090192041    -0.718807891853    -1.076861291317

  Mulliken Charges: (a.u.)
   Center  Symbol    Alpha    Beta     Spin     Total
       1     H     0.27349  0.27349  0.00000  0.45303
       2     O     4.36099  4.36099  0.00000 -0.72197
       3     C     3.05397  3.05397  0.00000 -0.10794
       4     C     2.46579  2.46579  0.00000  1.06841
       5     H     0.40933  0.40933  0.00000  0.18135
       6     H     0.39482  0.39482  0.00000  0.21035
       7     F     4.68195  4.68195  0.00000 -0.36391
       8     F     4.67493  4.67493  0.00000 -0.34986
       9     F     4.68473  4.68473  0.00000 -0.36946

   Total alpha = 25.00000, Total beta = 25.00000, Total charge =  0.00000
