  ==> Input File <==

--------------------------------------------------------------------------
set {
	reference rhf
	basis cc-pvtz
}

set_num_threads( 4 )
memory 2 gb

molecule MOL {
0 1

O	 -1.510770	 1.240811	 -0.054933
C	 -1.081510	 0.147522	 0.122720
C	 0.327029	 -0.064006	 0.641890
C	 -1.903028	 -1.084121	 -0.174656
C	 1.349460	 -0.017068	 -0.500215
H	 0.399029	 -1.014606	 1.159950
H	 0.538021	 0.726928	 1.350471
C	 2.168164	 -1.298943	 -0.601539
H	 0.838716	 0.159156	 -1.442512
H	 2.008035	 0.828585	 -0.340602
H	 2.889359	 -1.235132	 -1.407663
H	 1.532931	 -2.157429	 -0.791888
H	 2.712786	 -1.486742	 0.317150
H	 -1.341891	 -1.779207	 -0.789259
H	 -2.820449	 -0.808163	 -0.671328
H	 -2.133314	 -1.593056	 0.755831

	symmetry c1
}
set optking {
	frozen_dihedral = ("
		9 5 3 2
	")
}

ee = optimize('scf')
oeprop('DIPOLE', 'QUADRUPOLE', 'MULLIKEN_CHARGES')
f=open( 'psi4out.xyz', 'w' )
f.write( "16  " )
f.write( str(ee) + "\n" )
f.write( MOL.save_string_xyz() )
f.close()
--------------------------------------------------------------------------

    Molecular point group: c1
  Charge       = 0
  Multiplicity = 1
  Basis Set: CC-PVTZ
  Basis Set:
  @DF-RHF Final Energy:  -270.12324710294058
    Total Energy =                       -270.1232471029407520
    Molecular point group: c1
  Basis Set: CC-PVTZ
  Basis Set:
  Basis Set: CC-PVTZ
  Basis Set:
  @DF-RHF Final Energy:  -270.12351104439449
    Total Energy =                       -270.1235110443947747
  Basis Set: CC-PVTZ
  Basis Set:
  Basis Set: CC-PVTZ
  Basis Set:
  @DF-RHF Final Energy:  -270.12154318985324
    Total Energy =                       -270.1215431898529005
  Basis Set: CC-PVTZ
  Basis Set:
  Basis Set: CC-PVTZ
  Basis Set:
  @DF-RHF Final Energy:  -270.12391937289885
    Total Energy =                       -270.1239193728987402
  Basis Set: CC-PVTZ
  Basis Set:
  @DF-RHF Final Energy:  -270.12402622582351
    Total Energy =                       -270.1240262258232292
  Basis Set: CC-PVTZ
  Basis Set:
  @DF-RHF Final Energy:  -270.12404444162706
    Total Energy =                       -270.1240444416270634
  Basis Set: CC-PVTZ
  Basis Set:
  Basis Set: CC-PVTZ
  Basis Set:
  @DF-RHF Final Energy:  -270.12405084955094
    Total Energy =                       -270.1240508495507129
  Basis Set: CC-PVTZ
  Basis Set:
  Basis Set: CC-PVTZ
  Basis Set:
  @DF-RHF Final Energy:  -270.12405211950738
    Total Energy =                       -270.1240521195074962
  Basis Set: CC-PVTZ
  Basis Set:
  Charge       = 0
  Multiplicity = 1
  Basis Set: CC-PVTZ
  Basis Set:

    Orbital Energies (a.u.)
    -----------------------

    Doubly Occupied:

       1A    -20.537108     2A    -11.319573     3A    -11.234150
       4A    -11.228472     5A    -11.227159     6A    -11.221002
       7A     -1.397065     8A     -1.083695     9A     -1.012294
      10A     -0.953191    11A     -0.834234    12A     -0.736546
      13A     -0.657988    14A     -0.652459    15A     -0.615715
      16A     -0.599782    17A     -0.588027    18A     -0.561119
      19A     -0.543260    20A     -0.517457    21A     -0.502934
      22A     -0.484210    23A     -0.476771    24A     -0.400292

  @DF-RHF Final Energy:  -270.12405259328000

   => Energetics <=

    Nuclear Repulsion Energy =            238.8210564485839029
    One-Electron Energy =                -839.1212057145864947
    Two-Electron Energy =                 330.1760966727225650
    DFT Exchange-Correlation Energy =       0.0000000000000000
    Empirical Dispersion Energy =           0.0000000000000000
    PCM Polarization Energy =               0.0000000000000000
    EFP Energy =                            0.0000000000000000
    Total Energy =                       -270.1240525932799983
    Molecular point group: c1
  Basis Set: CC-PVTZ
  Basis Set:

  -Total Gradient:
     Atom            X                  Y                   Z
    ------   -----------------  -----------------  -----------------
       1        0.000012697034    -0.000002517706     0.000017045620
       2       -0.000092133331    -0.000627232811    -0.000052399293
       3        0.000145560251     0.001063129602    -0.000025493433
       4       -0.000035008307     0.000003104199     0.000022692288
       5       -0.000159085379    -0.001293321045    -0.000000772863
       6       -0.000000827638    -0.000000235444     0.000014314892
       7       -0.000016399094     0.000002735751     0.000030307496
       8        0.000015566664    -0.000007569769    -0.000001121949
       9        0.000112482323     0.000852453466     0.000024419754
      10       -0.000002288735    -0.000014548849    -0.000020158455
      11        0.000002295563     0.000005386271    -0.000004260868
      12       -0.000007996071     0.000007349412     0.000000037925
      13       -0.000006856079     0.000006546432    -0.000001700176
      14        0.000022288748     0.000003058958    -0.000006799744
      15        0.000001919078     0.000008892789     0.000003127306
      16        0.000007784974    -0.000007231251     0.000000761501

  **** Optimization is complete! (in 9 steps) ****
    Final optimized geometry and variables:
    Molecular point group: c1

    Geometry (in Angstrom), charge = 0, multiplicity = 1:

    O           -1.517454887862     1.419464683799     0.323791188985
    C           -0.974660921354     0.364107924143     0.273902974652
    C            0.464724385520     0.190767326240     0.710869950251
    C           -1.691679920854    -0.866749635881    -0.232679847050
    C            1.433016800535     0.116123253486    -0.497533875512
    H            0.545132191468    -0.716161312283     1.301069971602
    H            0.712129234562     1.025902275213     1.349384381063
    C            2.277881114965    -1.152888934695    -0.528365411535
    H            0.879323496448     0.204061508011    -1.426421188925
    H            2.085854342001     0.979244216020    -0.470489812739
    H            2.948246108001    -1.153265346040    -1.379828630373
    H            1.656418984683    -2.039676447948    -0.594877624749
    H            2.880288257501    -1.240091876337     0.369286196030
    H           -1.082269803813    -1.412370367471    -0.943219578516
    H           -2.629312461774    -0.586687538533    -0.687627669651
    H           -1.883455854393    -1.530863492402     0.604086442999

  Mulliken Charges: (a.u.)
   Center  Symbol    Alpha    Beta     Spin     Total
       1     O     4.17468  4.17468  0.00000 -0.34936
       2     C     2.85754  2.85754  0.00000  0.28492
       3     C     3.10031  3.10031  0.00000 -0.20062
       4     C     3.15701  3.15701  0.00000 -0.31401
       5     C     3.10053  3.10053  0.00000 -0.20106
       6     H     0.45140  0.45140  0.00000  0.09721
       7     H     0.43591  0.43591  0.00000  0.12817
       8     C     3.14696  3.14696  0.00000 -0.29392
       9     H     0.44815  0.44815  0.00000  0.10370
      10     H     0.43968  0.43968  0.00000  0.12064
      11     H     0.44673  0.44673  0.00000  0.10655
      12     H     0.45563  0.45563  0.00000  0.08874
      13     H     0.45202  0.45202  0.00000  0.09597
      14     H     0.45069  0.45069  0.00000  0.09863
      15     H     0.43491  0.43491  0.00000  0.13019
      16     H     0.44786  0.44786  0.00000  0.10427

   Total alpha = 24.00000, Total beta = 24.00000, Total charge =  0.00000
