  ==> Input File <==

--------------------------------------------------------------------------
set {
	reference rhf
	basis 6-31G*
}

set_num_threads( 4 )
memory 2 gb

molecule MOL {
0 1

H	 4.376190	 3.381723	 -1.515302
C	 3.509353	 3.184540	 -2.138386
C	 2.519813	 2.259322	 -1.431309
H	 3.048647	 4.138883	 -2.375709
H	 3.862819	 2.746885	 -3.068074
C	 1.287491	 1.954947	 -2.286032
H	 2.208416	 2.714714	 -0.496830
H	 3.019665	 1.326305	 -1.175732
C	 0.286992	 1.016224	 -1.611443
H	 0.784562	 2.880846	 -2.541801
H	 1.607046	 1.499362	 -3.220573
C	 -0.474472	 1.640601	 -0.451457
H	 -0.460278	 0.694238	 -2.335102
H	 0.776495	 0.106774	 -1.270175
C	 -1.181045	 0.701995	 0.511084
O	 -0.534197	 2.824680	 -0.307253
C	 -2.285934	 -0.139295	 -0.145128
H	 -1.596588	 1.313967	 1.302619
H	 -0.440032	 0.039920	 0.955202
C	 -3.651768	 0.085446	 0.506485
H	 -2.346596	 0.110469	 -1.202272
H	 -2.034737	 -1.195320	 -0.088721
C	 -4.759797	 -0.746382	 -0.137905
H	 -3.908762	 1.140117	 0.445781
H	 -3.588286	 -0.154158	 1.565709
H	 -4.868882	 -0.505166	 -1.191300
H	 -4.548009	 -1.809175	 -0.062213
H	 -5.715422	 -0.564821	 0.343442

	symmetry c1
}
set optking {
	frozen_dihedral = ("
		12 15 17 21
	")
}

ee = optimize('scf')
oeprop('DIPOLE', 'QUADRUPOLE', 'MULLIKEN_CHARGES')
f=open( 'psi4out.xyz', 'w' )
f.write( "28  " )
f.write( str(ee) + "\n" )
f.write( MOL.save_string_xyz() )
f.close()
--------------------------------------------------------------------------

    Molecular point group: c1
  Charge       = 0
  Multiplicity = 1
  Basis Set: 6-31G*
  Basis Set:
  @DF-RHF Final Energy:  -426.16338183170660
    Total Energy =                       -426.1633818317068290
    Molecular point group: c1
  Basis Set: 6-31G*
  Basis Set:
  Basis Set: 6-31G*
  Basis Set:
  @DF-RHF Final Energy:  -426.16316819965971
    Total Energy =                       -426.1631681996598218
  Basis Set: 6-31G*
  Basis Set:
  Basis Set: 6-31G*
  Basis Set:
  @DF-RHF Final Energy:  -426.16118356756795
    Total Energy =                       -426.1611835675682869
  Basis Set: 6-31G*
  Basis Set:
  Basis Set: 6-31G*
  Basis Set:
  @DF-RHF Final Energy:  -426.16391599534438
    Total Energy =                       -426.1639159953447233
  Basis Set: 6-31G*
  Basis Set:
  @DF-RHF Final Energy:  -426.16410248393902
    Total Energy =                       -426.1641024839391321
  @DF-RHF Final Energy:  -426.16432078020910
    Total Energy =                       -426.1643207802085271
  @DF-RHF Final Energy:  -426.16435634078380
    Total Energy =                       -426.1643563407835700
  Basis Set: 6-31G*
  Basis Set:
  @DF-RHF Final Energy:  -426.16446338537060
    Total Energy =                       -426.1644633853695723
  Basis Set: 6-31G*
  Basis Set:
  Basis Set: 6-31G*
  Basis Set:
  @DF-RHF Final Energy:  -426.16446688968119
    Total Energy =                       -426.1644668896816484
  Basis Set: 6-31G*
  Basis Set:
  Basis Set: 6-31G*
  Basis Set:
  @DF-RHF Final Energy:  -426.16446961702570
    Total Energy =                       -426.1644696170259294
  Basis Set: 6-31G*
  Basis Set:
  Charge       = 0
  Multiplicity = 1
  Basis Set: 6-31G*
  Basis Set:

    Orbital Energies (a.u.)
    -----------------------

    Doubly Occupied:

       1A    -20.547615     2A    -11.322334     3A    -11.231783
       4A    -11.230678     5A    -11.228048     6A    -11.222346
       7A    -11.216208     8A    -11.213238     9A    -11.209867
      10A    -11.204385    11A     -1.393137    12A     -1.091154
      13A     -1.076314    14A     -1.021773    15A     -0.988934
      16A     -0.908110    17A     -0.870073    18A     -0.807777
      19A     -0.797506    20A     -0.725919    21A     -0.671004
      22A     -0.642089    23A     -0.627473    24A     -0.617049
      25A     -0.606887    26A     -0.585455    27A     -0.579551
      28A     -0.571848    29A     -0.534991    30A     -0.532982
      31A     -0.528813    32A     -0.510038    33A     -0.499065
      34A     -0.478743    35A     -0.477587    36A     -0.470722
      37A     -0.466153    38A     -0.462968    39A     -0.455149
      40A     -0.391676

  @DF-RHF Final Energy:  -426.16447060646169

   => Energetics <=

    Nuclear Repulsion Energy =            532.5661033172955285
    One-Electron Energy =               -1633.4262644528691908
    Two-Electron Energy =                 674.6956905291115163
    DFT Exchange-Correlation Energy =       0.0000000000000000
    Empirical Dispersion Energy =           0.0000000000000000
    PCM Polarization Energy =               0.0000000000000000
    EFP Energy =                            0.0000000000000000
    Total Energy =                       -426.1644706064621460
    Molecular point group: c1
  Basis Set: 6-31G*
  Basis Set:

  -Total Gradient:
     Atom            X                  Y                   Z
    ------   -----------------  -----------------  -----------------
       1        0.000005797566     0.000005744446    -0.000001089470
       2       -0.000000755071    -0.000004067153    -0.000003298018
       3       -0.000014659624     0.000004274488     0.000004203398
       4        0.000000582088    -0.000002733566     0.000001806099
       5       -0.000002278075    -0.000000675017     0.000003086615
       6        0.000009125079    -0.000018641091     0.000000643199
       7        0.000002853626     0.000003033517    -0.000004847745
       8       -0.000002467001    -0.000000772815    -0.000002092090
       9       -0.000065565009    -0.000017079395    -0.000039779656
      10       -0.000001179600    -0.000001059273     0.000002855289
      11        0.000003512223     0.000002183107    -0.000003878178
      12       -0.000158368219     0.000353483578     0.000270837448
      13        0.000034415550     0.000014346112     0.000000324964
      14       -0.000001545070     0.000001824482     0.000010917579
      15        0.000281860063    -0.000571070720    -0.000397032316
      16       -0.000006923571    -0.000013153644    -0.000009481763
      17       -0.000420023499     0.000684041439     0.000403769759
      18       -0.000005253218     0.000010967470    -0.000005698800
      19        0.000012429129     0.000001323337    -0.000007263018
      20        0.000007351825    -0.000009523038     0.000024347130
      21        0.000324954034    -0.000449551462    -0.000249740569
      22       -0.000001223998     0.000008749638     0.000005323241
      23       -0.000001965343     0.000005960492    -0.000007151702
      24       -0.000002069515    -0.000006687388    -0.000002802045
      25        0.000001321809    -0.000000435191     0.000005241513
      26        0.000000907935    -0.000003484755    -0.000002020203
      27       -0.000000516451     0.000001344259     0.000003682456
      28       -0.000000317659     0.000001658141    -0.000000863115

  **** Optimization is complete! (in 11 steps) ****
    Final optimized geometry and variables:
    Molecular point group: c1

    Geometry (in Angstrom), charge = 0, multiplicity = 1:

    H            4.530703869958     2.794105026296    -1.019658974437
    C            3.763580442511     2.266773603208    -1.578241130974
    C            3.024994440967     1.265372903614    -0.691236537705
    H            3.080086211802     3.008296687516    -1.981371264063
    H            4.246463541756     1.771045335978    -2.416185189340
    C            1.943253930696     0.495262419325    -1.452320985416
    H            2.575022835080     1.787488803756     0.145504523197
    H            3.741028370888     0.558414311488    -0.274928659195
    C            1.192383613302    -0.524376286861    -0.596567865933
    H            1.230980666660     1.194735509926    -1.877563790646
    H            2.403888609824    -0.030548306256    -2.285708934187
    C            0.196632031288     0.069976776741     0.384400254122
    H            0.639236246926    -1.218705541798    -1.228079076684
    H            1.888906882209    -1.143192767151    -0.033021584056
    C           -0.597051845374    -0.910603684053     1.229527300187
    O            0.001180825154     1.245296202471     0.466418415525
    C           -1.878177822100    -1.388715871781     0.493043278661
    H           -0.864866134326    -0.394780159302     2.143540069805
    H            0.022105459262    -1.760197672019     1.497798323460
    C           -3.160066155156    -1.085046579583     1.271031260289
    H           -1.945368033358    -0.919498237390    -0.485486977439
    H           -1.814917402229    -2.456879738701     0.306918888394
    C           -4.418508004180    -1.560741379237     0.547643085812
    H           -3.220785583493    -0.014121586431     1.445726618269
    H           -3.104096712743    -1.555036766482     2.250448262652
    H           -4.517940765274    -1.081962089357    -0.422345165884
    H           -4.397351693749    -2.634907296199     0.385854045974
    H           -5.310078240812    -1.330672938700     1.122225885503

  Mulliken Charges: (a.u.)
   Center  Symbol    Alpha    Beta     Spin     Total
       1     H     0.41942  0.41942  0.00000  0.16115
       2     C     3.24033  3.24033  0.00000 -0.48065
       3     C     3.15603  3.15603  0.00000 -0.31207
       4     H     0.41889  0.41889  0.00000  0.16222
       5     H     0.42422  0.42422  0.00000  0.15155
       6     C     3.14856  3.14856  0.00000 -0.29712
       7     H     0.40622  0.40622  0.00000  0.18756
       8     H     0.42827  0.42827  0.00000  0.14346
       9     C     3.21266  3.21266  0.00000 -0.42532
      10     H     0.40993  0.40993  0.00000  0.18013
      11     H     0.42215  0.42215  0.00000  0.15569
      12     C     2.73958  2.73958  0.00000  0.52084
      13     H     0.40589  0.40589  0.00000  0.18822
      14     H     0.40932  0.40932  0.00000  0.18136
      15     C     3.20055  3.20055  0.00000 -0.40109
      16     O     4.26640  4.26640  0.00000 -0.53281
      17     C     3.15939  3.15939  0.00000 -0.31878
      18     H     0.39871  0.39871  0.00000  0.20258
      19     H     0.41303  0.41303  0.00000  0.17394
      20     C     3.15418  3.15418  0.00000 -0.30835
      21     H     0.41464  0.41464  0.00000  0.17072
      22     H     0.41734  0.41734  0.00000  0.16532
      23     C     3.24162  3.24162  0.00000 -0.48325
      24     H     0.41299  0.41299  0.00000  0.17401
      25     H     0.42122  0.42122  0.00000  0.15756
      26     H     0.41973  0.41973  0.00000  0.16054
      27     H     0.42186  0.42186  0.00000  0.15628
      28     H     0.41685  0.41685  0.00000  0.16631

   Total alpha = 40.00000, Total beta = 40.00000, Total charge = -0.00000
