  ==> Input File <==

--------------------------------------------------------------------------
set {
	reference rhf
	basis 6-31G*
}

set_num_threads( 1 )
memory 2 gb

molecule MOL {
0 1

H	 3.763698	 -0.823554	 0.202307
O	 2.862025	 -1.049436	 0.408992
C	 2.077727	 -0.067559	 -0.035091
C	 0.624473	 -0.343591	 0.253101
O	 2.515120	 0.889947	 -0.585442
C	 -0.265902	 0.883932	 0.072916
H	 0.324016	 -1.163849	 -0.390541
H	 0.565024	 -0.726111	 1.268924
C	 -1.728698	 0.646073	 0.462102
H	 -0.209144	 1.219470	 -0.958188
H	 0.135059	 1.692851	 0.673903
C	 -2.482460	 -0.343073	 -0.431425
H	 -2.245265	 1.602650	 0.432430
H	 -1.779332	 0.308348	 1.496285
C	 -3.960546	 -0.461025	 -0.060175
H	 -2.395034	 -0.026811	 -1.468912
H	 -2.024850	 -1.327147	 -0.371646
H	 -4.472726	 -1.168004	 -0.705284
H	 -4.465146	 0.496508	 -0.151489
H	 -4.081218	 -0.800940	 0.964585

	symmetry c1
}
set optking {
	frozen_dihedral = ("
		16 12 9 6,
		7 4 6 10,
		12 9 6 10,
		1 2 3 5
	")
}

ee = energy('scf')
oeprop('DIPOLE', 'QUADRUPOLE', 'MULLIKEN_CHARGES')
f=open( 'psi4out.xyz', 'w' )
f.write( "20  " )
f.write( str(ee) + "\n" )
f.write( MOL.save_string_xyz() )
f.close()
--------------------------------------------------------------------------

    Molecular point group: c1

    Geometry (in Angstrom), charge = 0, multiplicity = 1:

       Center              X                  Y                   Z               Mass
    ------------   -----------------  -----------------  -----------------  -----------------
           H          3.762276094039    -0.827894614589     0.190979205157     1.007825032070
           O          2.860603094039    -1.053776614589     0.397664205157    15.994914619560
           C          2.076305094039    -0.071899614589    -0.046418794843    12.000000000000
           C          0.623051094039    -0.347931614589     0.241773205157    12.000000000000
           O          2.513698094039     0.885606385411    -0.596769794843    15.994914619560
           C         -0.267323905961     0.879591385411     0.061588205157    12.000000000000
           H          0.322594094039    -1.168189614589    -0.401868794843     1.007825032070
           H          0.563602094039    -0.730451614589     1.257596205157     1.007825032070
           C         -1.730119905961     0.641732385411     0.450774205157    12.000000000000
           H         -0.210565905961     1.215129385411    -0.969515794843     1.007825032070
           H          0.133637094039     1.688510385411     0.662575205157     1.007825032070
           C         -2.483881905961    -0.347413614589    -0.442752794843    12.000000000000
           H         -2.246686905961     1.598309385411     0.421102205157     1.007825032070
           H         -1.780753905961     0.304007385411     1.484957205157     1.007825032070
           C         -3.961967905961    -0.465365614589    -0.071502794843    12.000000000000
           H         -2.396455905961    -0.031151614589    -1.480239794843     1.007825032070
           H         -2.026271905961    -1.331487614589    -0.382973794843     1.007825032070
           H         -4.474147905961    -1.172344614589    -0.716611794843     1.007825032070
           H         -4.466567905961     0.492167385411    -0.162816794843     1.007825032070
           H         -4.082639905961    -0.805280614589     0.953257205157     1.007825032070

  Charge       = 0
  Multiplicity = 1
  Basis Set: 6-31G*
  Basis Set:

    Orbital Energies (a.u.)
    -----------------------

    Doubly Occupied:

       1A    -20.612648     2A    -20.551312     3A    -11.381119
       4A    -11.240062     5A    -11.223546     6A    -11.220909
       7A    -11.220315     8A    -11.212517     9A     -1.474539
      10A     -1.365510    11A     -1.096421    12A     -1.041058
      13A     -0.961325    14A     -0.868872    15A     -0.816684
      16A     -0.777030    17A     -0.699607    18A     -0.689772
      19A     -0.664063    20A     -0.634832    21A     -0.603554
      22A     -0.594086    23A     -0.575748    24A     -0.556284
      25A     -0.539471    26A     -0.513703    27A     -0.495134
      28A     -0.480135    29A     -0.470152    30A     -0.467298
      31A     -0.458484    32A     -0.442755

  @DF-RHF Final Energy:  -383.94851930862455

   => Energetics <=

    Nuclear Repulsion Energy =            375.8722384138884536
    One-Electron Energy =               -1267.7436405265998474
    Two-Electron Energy =                 507.9228828040880899
    DFT Exchange-Correlation Energy =       0.0000000000000000
    Empirical Dispersion Energy =           0.0000000000000000
    PCM Polarization Energy =               0.0000000000000000
    EFP Energy =                            0.0000000000000000
    Total Energy =                       -383.9485193086233039

  Mulliken Charges: (a.u.)
   Center  Symbol    Alpha    Beta     Spin     Total
       1     H     0.26797  0.26797  0.00000  0.46405
       2     O     4.35141  4.35141  0.00000 -0.70283
       3     C     2.62220  2.62220  0.00000  0.75560
       4     C     3.21283  3.21283  0.00000 -0.42565
       5     O     4.27931  4.27931  0.00000 -0.55862
       6     C     3.15492  3.15492  0.00000 -0.30985
       7     H     0.39603  0.39603  0.00000  0.20793
       8     H     0.39981  0.39981  0.00000  0.20038
       9     C     3.15532  3.15532  0.00000 -0.31065
      10     H     0.40954  0.40954  0.00000  0.18093
      11     H     0.41082  0.41082  0.00000  0.17835
      12     C     3.15493  3.15493  0.00000 -0.30985
      13     H     0.41787  0.41787  0.00000  0.16425
      14     H     0.42358  0.42358  0.00000  0.15284
      15     C     3.23925  3.23925  0.00000 -0.47851
      16     H     0.42110  0.42110  0.00000  0.15780
      17     H     0.42292  0.42292  0.00000  0.15416
      18     H     0.41828  0.41828  0.00000  0.16345
      19     H     0.42061  0.42061  0.00000  0.15879
      20     H     0.42129  0.42129  0.00000  0.15742

   Total alpha = 32.00000, Total beta = 32.00000, Total charge =  0.00000
