  ==> Input File <==

--------------------------------------------------------------------------
set {
	reference rhf
	basis 6-31G*
}

set_num_threads( 1 )
memory 2 gb

molecule MOL {
0 1

H	 -0.495153	 -1.652463	 0.001388
N	 -0.626943	 -0.667432	 -0.000092
C	 -1.979713	 -0.158776	 -0.000610
C	 0.469286	 0.129090	 0.000148
H	 -2.519962	 -0.492815	 -0.880129
H	 -1.934739	 0.918109	 -0.005549
H	 -2.518074	 -0.484665	 0.883130
C	 1.788933	 -0.616240	 -0.000037
O	 0.411098	 1.327768	 -0.000049
H	 1.872803	 -1.245775	 -0.880381
H	 2.595421	 0.101576	 0.003713
H	 1.870096	 -1.252171	 0.875943

	symmetry c1
}
set optking {
	frozen_dihedral = ("
		4 2 3 5
	")
}

ee = energy('scf')
oeprop('DIPOLE', 'QUADRUPOLE', 'MULLIKEN_CHARGES')
f=open( 'psi4out.xyz', 'w' )
f.write( "12  " )
f.write( str(ee) + "\n" )
f.write( MOL.save_string_xyz() )
f.close()
--------------------------------------------------------------------------

    Molecular point group: c1

    Geometry (in Angstrom), charge = 0, multiplicity = 1:

       Center              X                  Y                   Z               Mass
    ------------   -----------------  -----------------  -----------------  -----------------
           H         -0.495152629934    -1.652462634201     0.001524336851     1.007825032070
           N         -0.626942629934    -0.667431634201     0.000044336851    14.003074004780
           C         -1.979712629934    -0.158775634201    -0.000473663149    12.000000000000
           C          0.469286370066     0.129090365799     0.000284336851    12.000000000000
           H         -2.519961629934    -0.492814634201    -0.879992663149     1.007825032070
           H         -1.934738629934     0.918109365799    -0.005412663149     1.007825032070
           H         -2.518073629934    -0.484664634201     0.883266336851     1.007825032070
           C          1.788933370066    -0.616239634201     0.000099336851    12.000000000000
           O          0.411098370066     1.327768365799     0.000087336851    15.994914619560
           H          1.872803370066    -1.245774634201    -0.880244663149     1.007825032070
           H          2.595421370066     0.101576365799     0.003849336851     1.007825032070
           H          1.870096370066    -1.252170634201     0.876079336851     1.007825032070

  Charge       = 0
  Multiplicity = 1
  Basis Set: 6-31G*
  Basis Set:

    Orbital Energies (a.u.)
    -----------------------

    Doubly Occupied:

       1A    -20.515838     2A    -15.581291     3A    -11.343218
       4A    -11.253634     5A    -11.229677     6A     -1.384119
       7A     -1.228056     8A     -1.015715     9A     -0.931561
      10A     -0.786419    11A     -0.689199    12A     -0.648068
      13A     -0.632146    14A     -0.585955    15A     -0.579664
      16A     -0.554559    17A     -0.543939    18A     -0.507669
      19A     -0.412819    20A     -0.384109

  @DF-RHF Final Energy:  -247.00547265449779

   => Energetics <=

    Nuclear Repulsion Energy =            181.2615211289863169
    One-Electron Energy =                -694.9185158245320508
    Two-Electron Energy =                 266.6515220410480538
    DFT Exchange-Correlation Energy =       0.0000000000000000
    Empirical Dispersion Energy =           0.0000000000000000
    PCM Polarization Energy =               0.0000000000000000
    EFP Energy =                            0.0000000000000000
    Total Energy =                       -247.0054726544977370

  Mulliken Charges: (a.u.)
   Center  Symbol    Alpha    Beta     Spin     Total
       1     H     0.31106  0.31106  0.00000  0.37787
       2     N     3.89162  3.89162  0.00000 -0.78324
       3     C     3.14247  3.14247  0.00000 -0.28494
       4     C     2.63057  2.63057  0.00000  0.73886
       5     H     0.41671  0.41671  0.00000  0.16658
       6     H     0.38547  0.38547  0.00000  0.22906
       7     H     0.41670  0.41670  0.00000  0.16661
       8     C     3.29526  3.29526  0.00000 -0.59052
       9     O     4.30251  4.30251  0.00000 -0.60502
      10     H     0.40781  0.40781  0.00000  0.18437
      11     H     0.39183  0.39183  0.00000  0.21634
      12     H     0.40799  0.40799  0.00000  0.18402

   Total alpha = 20.00000, Total beta = 20.00000, Total charge = -0.00000
