                              Psi4 1.0.54 Driver

  ==> Input File <==

--------------------------------------------------------------------------
set {
	reference rhf
	basis cc-pvtz
}

set_num_threads( 4 )
memory 2 gb

molecule MOL {
0 1

H	 3.889604	 0.356866	 -0.089510
N	 3.091268	 -0.241216	 -0.065538
C	 1.860978	 0.530248	 0.016256
H	 3.192566	 -0.835836	 0.730398
C	 0.644130	 -0.381765	 -0.031064
H	 1.835721	 1.204666	 -0.833114
H	 1.808789	 1.151975	 0.911067
C	 -0.678115	 0.376691	 0.025731
H	 0.693998	 -0.977147	 -0.936845
H	 0.693309	 -1.082142	 0.800523
C	 -1.376857	 0.475437	 -1.327492
H	 -0.501434	 1.379007	 0.409267
H	 -1.344465	 -0.106913	 0.736349
C	 -2.695095	 1.239863	 -1.267702
H	 -0.712592	 0.957882	 -2.039033
H	 -1.558002	 -0.524917	 -1.711223
H	 -2.542645	 2.256392	 -0.920330
H	 -3.164254	 1.291420	 -2.243529
H	 -3.394518	 0.762062	 -0.589580

	symmetry c1
}
set optking {
	frozen_dihedral = ("
		12 8 5 9
	")
}

ee,wfn = optimize('scf', return_wfn=True)
oeprop( wfn, 'DIPOLE', 'QUADRUPOLE', 'MULLIKEN_CHARGES')
f=open( 'psi4out.xyz', 'w' )
f.write( "19  " )
f.write( str(ee) + "\n" )
f.write( MOL.save_string_xyz() )
f.close()
--------------------------------------------------------------------------

    Molecular point group: c1
  Charge       = 0
  Multiplicity = 1
  Basis Set: CC-PVTZ
  Basis Set:
  @DF-RHF Final Energy:  -251.44360797152308
    Total Energy =                       -251.4436079715229653
    Molecular point group: c1
  Basis Set: CC-PVTZ
  Basis Set:
  Basis Set: CC-PVTZ
  Basis Set:
  @DF-RHF Final Energy:  -251.44389253733527
    Total Energy =                       -251.4438925373350457
  Basis Set: CC-PVTZ
  Basis Set:
  Basis Set: CC-PVTZ
  Basis Set:
  @DF-RHF Final Energy:  -251.44395345867929
    Total Energy =                       -251.4439534586795730
  Basis Set: CC-PVTZ
  Basis Set:
  Charge       = 0
  Multiplicity = 1
  Basis Set: CC-PVTZ
  Basis Set:

    Orbital Energies (a.u.)
    -----------------------

    Doubly Occupied:

       1A    -15.526477     2A    -11.238305     3A    -11.211521
       4A    -11.210361     5A    -11.207569     6A    -11.205009
       7A     -1.178405     8A     -1.072755     9A     -0.997703
      10A     -0.900090    11A     -0.819866    12A     -0.785497
      13A     -0.661590    14A     -0.635648    15A     -0.626536
      16A     -0.588560    17A     -0.570764    18A     -0.549215
      19A     -0.526470    20A     -0.499142    21A     -0.486200
      22A     -0.465169    23A     -0.453700    24A     -0.449314
      25A     -0.384078

  @DF-RHF Final Energy:  -251.44395425954528

   => Energetics <=

    Nuclear Repulsion Energy =            247.9511559084479870
    One-Electron Energy =                -830.2903289509804381
    Two-Electron Energy =                 330.8952187829870013
    DFT Exchange-Correlation Energy =       0.0000000000000000
    Empirical Dispersion Energy =           0.0000000000000000
    PCM Polarization Energy =               0.0000000000000000
    EFP Energy =                            0.0000000000000000
    Total Energy =                       -251.4439542595454782
    Molecular point group: c1
  Basis Set: CC-PVTZ
  Basis Set:

  -Total Gradient:
     Atom            X                  Y                   Z
    ------   -----------------  -----------------  -----------------
       1        0.000033174226    -0.000011068451     0.000000784932
       2        0.000062999889     0.000005573662     0.000008204137
       3       -0.000059744748    -0.000052098947    -0.000009587487
       4        0.000013598309     0.000006020319    -0.000000109096
       5       -0.001191325308    -0.002208067348     0.001010662981
       6        0.000004621560    -0.000004094793     0.000014666560
       7       -0.000000932067     0.000036660472    -0.000004845002
       8       -0.000227242979    -0.000525397387     0.002672273366
       9        0.001026739858     0.001963023965    -0.001317813468
      10       -0.000018382786     0.000034269831    -0.000008157983
      11       -0.000003082440    -0.000112759266     0.000057095284
      12        0.000356036516     0.000811601164    -0.002360933340
      13       -0.000000884324    -0.000001621572    -0.000036597390
      14        0.000019355677     0.000066356955    -0.000005656085
      15       -0.000001641457    -0.000018984995    -0.000003931852
      16       -0.000014348719    -0.000005186721    -0.000010186621
      17       -0.000019236244     0.000008947705     0.000012854575
      18        0.000003724335     0.000017046837    -0.000003108925
      19        0.000016570701    -0.000010221431    -0.000015614587

  **** Optimization is complete! (in 4 steps) ****
    Final optimized geometry and variables:
    Molecular point group: c1

    Geometry (in Angstrom), charge = 0, multiplicity = 1:

    H            3.701768060773     0.103364788653     0.208702991572
    N            2.921563238407    -0.515621506722     0.270728524938
    C            1.677592739949     0.220751610495     0.423991071888
    H            3.081081955390    -1.112973804194     1.055100404982
    C            0.483268022791    -0.725403791762     0.450165441111
    H            1.583430959911     0.893284109487    -0.422493870725
    H            1.658985219498     0.842250666816     1.320160986038
    C           -0.864527302556     0.013628393922     0.499811658172
    H            0.539573811181    -1.344322812408    -0.438212275460
    H            0.582978260317    -1.388566709816     1.304233077250
    C           -1.563995862178     0.085908935326    -0.857383088258
    H           -0.708552679260     1.029508710180     0.854081425682
    H           -1.529836344720    -0.462331158338     1.212359546343
    C           -2.861404173446     0.885944364687    -0.821497087428
    H           -0.889344991242     0.525798628553    -1.587022797780
    H           -1.770658159288    -0.922056989806    -1.205491659971
    H           -2.681822726417     1.910875354763    -0.513790494267
    H           -3.334676872460     0.911979195189    -1.796406793347
    H           -3.568889805567     0.452261207799    -0.122282492075

  Mulliken Charges: (a.u.)
   Center  Symbol    Alpha    Beta     Spin     Total
       1     H     0.43022  0.43022  0.00000  0.13956
       2     N     3.68992  3.68992  0.00000 -0.37984
       3     C     3.02334  3.02334  0.00000 -0.04668
       4     H     0.43095  0.43095  0.00000  0.13810
       5     C     3.09203  3.09203  0.00000 -0.18405
       6     H     0.45688  0.45688  0.00000  0.08625
       7     H     0.46820  0.46820  0.00000  0.06361
       8     C     3.10177  3.10177  0.00000 -0.20355
       9     H     0.44967  0.44967  0.00000  0.10066
      10     H     0.45305  0.45305  0.00000  0.09391
      11     C     3.08126  3.08126  0.00000 -0.16252
      12     H     0.45733  0.45733  0.00000  0.08534
      13     H     0.44779  0.44779  0.00000  0.10441
      14     C     3.15057  3.15057  0.00000 -0.30113
      15     H     0.45402  0.45402  0.00000  0.09195
      16     H     0.45346  0.45346  0.00000  0.09307
      17     H     0.45563  0.45563  0.00000  0.08874
      18     H     0.44853  0.44853  0.00000  0.10294
      19     H     0.45539  0.45539  0.00000  0.08922

   Total alpha = 25.00000, Total beta = 25.00000, Total charge =  0.00000

*** Psi4 exiting successfully. Buy a developer a beer!
