  ==> Input File <==

--------------------------------------------------------------------------
set {
	reference rhf
	basis 6-31G*
}

set_num_threads( 4 )
memory 2 gb

molecule MOL {
0 1

O	 -2.042549	 -1.228399	 -0.269030
C	 -1.653912	 -0.146171	 0.050137
C	 -0.332303	 0.024011	 0.778412
C	 -2.438579	 1.106236	 -0.272369
C	 0.845713	 -0.001731	 -0.208243
H	 -0.323783	 0.953829	 1.340327
H	 -0.235459	 -0.796807	 1.480410
C	 2.200309	 0.136118	 0.488247
H	 0.733710	 0.800019	 -0.936072
H	 0.811185	 -0.933796	 -0.764304
C	 2.898705	 1.456733	 0.166647
H	 2.064013	 0.051281	 1.564189
H	 2.839871	 -0.692647	 0.193840
H	 2.297862	 2.305487	 0.480744
H	 3.077877	 1.555313	 -0.899947
H	 3.857199	 1.525517	 0.671211
H	 -3.277823	 0.863061	 -0.908988
H	 -1.806773	 1.843019	 -0.759671
H	 -2.802853	 1.554979	 0.648059

	symmetry c1
}
set optking {
	frozen_dihedral = ("
		11 8 5 9
	")
}

ee = optimize('scf')
oeprop('DIPOLE', 'QUADRUPOLE', 'MULLIKEN_CHARGES')
f=open( 'psi4out.xyz', 'w' )
f.write( "19  " )
f.write( str(ee) + "\n" )
f.write( MOL.save_string_xyz() )
f.close()
--------------------------------------------------------------------------

    Molecular point group: c1
  Charge       = 0
  Multiplicity = 1
  Basis Set: 6-31G*
  Basis Set:
  @DF-RHF Final Energy:  -309.05931260713794
    Total Energy =                       -309.0593126071380539
    Molecular point group: c1
  Basis Set: 6-31G*
  Basis Set:
  Basis Set: 6-31G*
  Basis Set:
  @DF-RHF Final Energy:  -309.05950816184236
    Total Energy =                       -309.0595081618427002
  Basis Set: 6-31G*
  Basis Set:
  Basis Set: 6-31G*
  Basis Set:
  @DF-RHF Final Energy:  -309.05962947940537
    Total Energy =                       -309.0596294794053165
  Basis Set: 6-31G*
  Basis Set:
  Basis Set: 6-31G*
  Basis Set:
  @DF-RHF Final Energy:  -309.05955606800876
    Total Energy =                       -309.0595560680086464
  Basis Set: 6-31G*
  Basis Set:
  Basis Set: 6-31G*
  Basis Set:
  @DF-RHF Final Energy:  -309.05963594390971
    Total Energy =                       -309.0596359439097682
  Basis Set: 6-31G*
  Basis Set:
  Basis Set: 6-31G*
  Basis Set:
  @DF-RHF Final Energy:  -309.05961832536292
    Total Energy =                       -309.0596183253625213
  Basis Set: 6-31G*
  Basis Set:
  Basis Set: 6-31G*
  Basis Set:
  @DF-RHF Final Energy:  -309.05966197237245
    Total Energy =                       -309.0596619723720551
  Basis Set: 6-31G*
  Basis Set:
  Charge       = 0
  Multiplicity = 1
  Basis Set: 6-31G*
  Basis Set:

    Orbital Energies (a.u.)
    -----------------------

    Doubly Occupied:

       1A    -20.547599     2A    -11.324374     3A    -11.230463
       4A    -11.229655     5A    -11.228312     6A    -11.224703
       7A    -11.216844     8A     -1.393227     9A     -1.089340
      10A     -1.028443    11A     -0.983720    12A     -0.891577
      13A     -0.806302    14A     -0.734950    15A     -0.660236
      16A     -0.644529    17A     -0.618632    18A     -0.611620
      19A     -0.593918    20A     -0.569564    21A     -0.555438
      22A     -0.531824    23A     -0.519116    24A     -0.500775
      25A     -0.482999    26A     -0.468662    27A     -0.466529
      28A     -0.396597

  @DF-RHF Final Energy:  -309.05966245162557

   => Energetics <=

    Nuclear Repulsion Energy =            302.3970893379353697
    One-Electron Energy =               -1017.8136080520594078
    Two-Electron Energy =                 406.3568562624988090
    DFT Exchange-Correlation Energy =       0.0000000000000000
    Empirical Dispersion Energy =           0.0000000000000000
    PCM Polarization Energy =               0.0000000000000000
    EFP Energy =                            0.0000000000000000
    Total Energy =                       -309.0596624516252859
    Molecular point group: c1
  Basis Set: 6-31G*
  Basis Set:

  -Total Gradient:
     Atom            X                  Y                   Z
    ------   -----------------  -----------------  -----------------
       1       -0.000006423767     0.000004480293    -0.000004781381
       2       -0.000000067065    -0.000015536877     0.000024941209
       3        0.000001903763     0.000000065091    -0.000008396592
       4        0.000011041253     0.000007279066    -0.000008209175
       5        0.001173265993    -0.001529254886    -0.002023222709
       6       -0.000000184553     0.000004941500     0.000005271353
       7       -0.000005158034     0.000000290989    -0.000004963899
       8       -0.000988700296     0.001039499338     0.001797634072
       9       -0.000782147491     0.001036638198     0.001264129154
      10       -0.000012180645     0.000011539713     0.000001437285
      11        0.000615810766    -0.000569191756    -0.001052516399
      12        0.000005173091    -0.000007800230    -0.000000204527
      13       -0.000001248306     0.000016972862     0.000011735391
      14       -0.000000395251     0.000001088417     0.000009179145
      15       -0.000009092258     0.000010425798    -0.000005901323
      16        0.000001748898    -0.000007833626    -0.000004849886
      17        0.000000565004    -0.000001440452    -0.000000690898
      18       -0.000003807698     0.000001653569    -0.000000087270
      19       -0.000000103403    -0.000003817005    -0.000000503549

  **** Optimization is complete! (in 8 steps) ****
    Final optimized geometry and variables:
    Molecular point group: c1

    Geometry (in Angstrom), charge = 0, multiplicity = 1:

    O           -1.985407072235    -1.423340421254    -0.376524195057
    C           -1.586323124662    -0.346990891473    -0.050069817732
    C           -0.263966282196    -0.195247111838     0.680413059672
    C           -2.357972193990     0.915202740517    -0.366020254425
    C            0.916631965338    -0.232137523560    -0.305828751928
    H           -0.243732276518     0.733329396955     1.244763938003
    H           -0.176934929808    -1.018753723843     1.380331520903
    C            2.284364281414    -0.062714916383     0.392576799506
    H            0.783707630927     0.560343154680    -1.038794247748
    H            0.874895355145    -1.169513913630    -0.848240595682
    C            2.969799387749     1.265437749452     0.069520922934
    H            2.162278694479    -0.151900135970     1.468476009229
    H            2.943407963383    -0.874561749021     0.100115441033
    H            2.351614625032     2.110172491281     0.362430591357
    H            3.165315110116     1.353467836660    -0.995067364736
    H            3.918270870468     1.354613802996     0.589860711984
    H           -3.196809405102     0.684838448330    -1.007931277565
    H           -1.717634671589     1.650270177301    -0.844697499277
    H           -2.722084480369     1.359719358058     0.556548594954

  Mulliken Charges: (a.u.)
   Center  Symbol    Alpha    Beta     Spin     Total
       1     O     4.26218  4.26218  0.00000 -0.52436
       2     C     2.73758  2.73758  0.00000  0.52485
       3     C     3.20203  3.20203  0.00000 -0.40407
       4     C     3.28959  3.28959  0.00000 -0.57919
       5     C     3.16502  3.16502  0.00000 -0.33003
       6     H     0.41691  0.41691  0.00000  0.16619
       7     H     0.40062  0.40062  0.00000  0.19876
       8     C     3.15533  3.15533  0.00000 -0.31067
       9     H     0.41859  0.41859  0.00000  0.16282
      10     H     0.40321  0.40321  0.00000  0.19358
      11     C     3.24077  3.24077  0.00000 -0.48155
      12     H     0.41834  0.41834  0.00000  0.16333
      13     H     0.41570  0.41570  0.00000  0.16861
      14     H     0.42311  0.42311  0.00000  0.15379
      15     H     0.41951  0.41951  0.00000  0.16098
      16     H     0.41788  0.41788  0.00000  0.16424
      17     H     0.39699  0.39699  0.00000  0.20602
      18     H     0.40991  0.40991  0.00000  0.18018
      19     H     0.40673  0.40673  0.00000  0.18653

   Total alpha = 28.00000, Total beta = 28.00000, Total charge = -0.00000
