  ==> Input File <==

--------------------------------------------------------------------------
set {
	reference rhf
	basis cc-pvtz
}

set_num_threads( 4 )
memory 2 gb

molecule MOL {
0 1

H	 -3.375000	 -0.317000	 1.469000
C	 -3.417000	 -0.305000	 0.373000
C	 -2.768000	 0.892000	 -0.276000
O	 -3.951000	 -1.188000	 -0.215000
C	 -1.328000	 1.115000	 0.206000
H	 -2.814000	 0.764000	 -1.351000
H	 -3.371000	 1.762000	 -0.017000
C	 -0.360000	 0.013000	 -0.232000
H	 -0.982000	 2.071000	 -0.174000
H	 -1.320000	 1.200000	 1.292000
C	 1.074000	 0.256000	 0.242000
H	 -0.376000	 -0.064000	 -1.317000
H	 -0.703000	 -0.950000	 0.142000
C	 2.042000	 -0.842000	 -0.209000
H	 1.409000	 1.222000	 -0.128000
H	 1.088000	 0.322000	 1.329000
C	 3.473000	 -0.688000	 0.318000
H	 2.062000	 -0.879000	 -1.297000
H	 1.654000	 -1.804000	 0.120000
C	 4.218000	 0.537000	 -0.214000
H	 4.035000	 -1.580000	 0.051000
H	 3.455000	 -0.656000	 1.405000
H	 4.241000	 0.539000	 -1.301000
H	 3.758000	 1.465000	 0.108000
H	 5.246000	 0.545000	 0.137000

	symmetry c1
}
ee = optimize('scf')
oeprop('DIPOLE', 'QUADRUPOLE', 'MULLIKEN_CHARGES')
f=open( 'psi4out.xyz', 'w' )
f.write( "25  " )
f.write( str(ee) + "\n" )
f.write( MOL.save_string_xyz() )
f.close()
--------------------------------------------------------------------------

    Molecular point group: c1
  Charge       = 0
  Multiplicity = 1
  Basis Set: CC-PVTZ
  Basis Set:
  @DF-RHF Final Energy:  -387.26026463360017
    Total Energy =                       -387.2602646335997179
    Molecular point group: c1
  Basis Set: CC-PVTZ
  Basis Set:
  Basis Set: CC-PVTZ
  Basis Set:
  @DF-RHF Final Energy:  -387.26040404521291
    Total Energy =                       -387.2604040452129084
  Basis Set: CC-PVTZ
  Basis Set:
  Basis Set: CC-PVTZ
  Basis Set:
  @DF-RHF Final Energy:  -387.26002385876086
    Total Energy =                       -387.2600238587604053
  Basis Set: CC-PVTZ
  Basis Set:
  Basis Set: CC-PVTZ
  Basis Set:
  @DF-RHF Final Energy:  -387.26034800435258
    Total Energy =                       -387.2603480043526361
  Basis Set: CC-PVTZ
  Basis Set:
  Basis Set: CC-PVTZ
  Basis Set:
  @DF-RHF Final Energy:  -387.26040975006242
    Total Energy =                       -387.2604097500624221
  Basis Set: CC-PVTZ
  Basis Set:
  Basis Set: CC-PVTZ
  Basis Set:
  @DF-RHF Final Energy:  -387.26041337372106
    Total Energy =                       -387.2604133737208940
  Basis Set: CC-PVTZ
  Basis Set:
  Charge       = 0
  Multiplicity = 1
  Basis Set: CC-PVTZ
  Basis Set:

    Orbital Energies (a.u.)
    -----------------------

    Doubly Occupied:

       1A    -20.551379     2A    -11.320977     3A    -11.233802
       4A    -11.232857     5A    -11.221708     6A    -11.217716
       7A    -11.216261     8A    -11.215041     9A    -11.208847
      10A     -1.406391    11A     -1.105347    12A     -1.071007
      13A     -1.014645    14A     -0.943571    15A     -0.875984
      16A     -0.820990    17A     -0.788784    18A     -0.781836
      19A     -0.668147    20A     -0.663473    21A     -0.635194
      22A     -0.627413    23A     -0.602885    24A     -0.595875
      25A     -0.577208    26A     -0.550307    27A     -0.536625
      28A     -0.528356    29A     -0.508745    30A     -0.497603
      31A     -0.492133    32A     -0.479842    33A     -0.465195
      34A     -0.459384    35A     -0.442765    36A     -0.411891

  @DF-RHF Final Energy:  -387.26041423495633

   => Energetics <=

    Nuclear Repulsion Energy =            439.7233143011194443
    One-Electron Energy =               -1396.0270881212941276
    Two-Electron Energy =                 569.0433595852186954
    DFT Exchange-Correlation Energy =       0.0000000000000000
    Empirical Dispersion Energy =           0.0000000000000000
    PCM Polarization Energy =               0.0000000000000000
    EFP Energy =                            0.0000000000000000
    Total Energy =                       -387.2604142349559879
    Molecular point group: c1
  Basis Set: CC-PVTZ
  Basis Set:

  -Total Gradient:
     Atom            X                  Y                   Z
    ------   -----------------  -----------------  -----------------
       1       -0.000003749436     0.000000944354    -0.000009386160
       2        0.000004418131     0.000018160775    -0.000019747157
       3       -0.000048580155     0.000001469949     0.000007851959
       4       -0.000001839697    -0.000019715376     0.000007477408
       5        0.000012105753    -0.000010389868     0.000005042251
       6        0.000000965775    -0.000008494393     0.000011416097
       7        0.000006489585     0.000010258824     0.000004618897
       8       -0.000002059732     0.000022862193    -0.000004927826
       9       -0.000002800696    -0.000001701902    -0.000005011948
      10        0.000007951538     0.000004013612    -0.000002277161
      11       -0.000001769870    -0.000022748129     0.000002641717
      12        0.000013367902    -0.000004852807     0.000002315302
      13       -0.000003312578     0.000009706394    -0.000003138723
      14        0.000005495924     0.000008881274    -0.000002475892
      15        0.000001969977    -0.000006684029     0.000004290545
      16       -0.000008546261    -0.000000632143     0.000001574125
      17        0.000004871501     0.000001702273    -0.000003451792
      18       -0.000011243506    -0.000004009802    -0.000002838702
      19        0.000003756615     0.000004985461     0.000001975115
      20        0.000012521237    -0.000007220780     0.000003920401
      21        0.000003209685     0.000003813762     0.000000048357
      22        0.000008355500    -0.000000428996     0.000003611771
      23        0.000004606851     0.000002343560    -0.000002463700
      24       -0.000005248299    -0.000006287001    -0.000001159719
      25       -0.000000935744     0.000004022795     0.000000094833

  **** Optimization is complete! (in 7 steps) ****
    Final optimized geometry and variables:
    Molecular point group: c1

    Geometry (in Angstrom), charge = 0, multiplicity = 1:

    H           -3.258659859472    -0.290393845361     1.471450930954
    C           -3.307963449216    -0.275695263984     0.374072442288
    C           -2.653809298867     0.914421515938    -0.273688811813
    O           -3.855139588326    -1.148880307257    -0.205111702393
    C           -1.216900546468     1.136107795207     0.207794496365
    H           -2.700130611399     0.790675604144    -1.347874087611
    H           -3.256452058929     1.781007043267    -0.010712806195
    C           -0.247836530452     0.040195401606    -0.230468690708
    H           -0.872881789587     2.093194456859    -0.169001283852
    H           -1.209325378769     1.218376303148     1.291938722449
    C            1.181757359546     0.280428307618     0.247371555005
    H           -0.259599702877    -0.030818751218    -1.314869037206
    H           -0.591283706111    -0.923374668975     0.136958804040
    C            2.151031750715    -0.811011991844    -0.202642292770
    H            1.515939469678     1.247397232072    -0.115448685140
    H            1.191513828414     0.341222441615     1.333422765781
    C            3.580021030099    -0.656537689889     0.320835215048
    H            2.170544740060    -0.847574789051    -1.289411181677
    H            1.766631692787    -1.772904967965     0.124928955063
    C            4.327656961615     0.562693757088    -0.213578584817
    H            4.138805607636    -1.549270459739     0.057813160870
    H            3.561990920629    -0.620783177342     1.406976948960
    H            4.355973570628     0.557257128444    -1.298550535663
    H            3.867136386365     1.491650054668     0.100501468606
    H            5.351523859722     0.571612552478     0.142204496442

  Mulliken Charges: (a.u.)
   Center  Symbol    Alpha    Beta     Spin     Total
       1     H     0.46422  0.46422  0.00000  0.07156
       2     C     2.90481  2.90481  0.00000  0.19038
       3     C     3.08912  3.08912  0.00000 -0.17825
       4     O     4.16627  4.16627  0.00000 -0.33254
       5     C     3.11602  3.11602  0.00000 -0.23204
       6     H     0.44290  0.44290  0.00000  0.11420
       7     H     0.44051  0.44051  0.00000  0.11898
       8     C     3.08974  3.08974  0.00000 -0.17949
       9     H     0.44308  0.44308  0.00000  0.11383
      10     H     0.44989  0.44989  0.00000  0.10023
      11     C     3.09301  3.09301  0.00000 -0.18603
      12     H     0.44981  0.44981  0.00000  0.10037
      13     H     0.44788  0.44788  0.00000  0.10425
      14     C     3.09564  3.09564  0.00000 -0.19128
      15     H     0.45148  0.45148  0.00000  0.09704
      16     H     0.45426  0.45426  0.00000  0.09149
      17     C     3.09076  3.09076  0.00000 -0.18151
      18     H     0.45295  0.45295  0.00000  0.09411
      19     H     0.44784  0.44784  0.00000  0.10431
      20     C     3.15267  3.15267  0.00000 -0.30534
      21     H     0.44763  0.44763  0.00000  0.10473
      22     H     0.45471  0.45471  0.00000  0.09059
      23     H     0.45452  0.45452  0.00000  0.09096
      24     H     0.45440  0.45440  0.00000  0.09121
      25     H     0.44588  0.44588  0.00000  0.10823

   Total alpha = 36.00000, Total beta = 36.00000, Total charge =  0.00000
