                              Psi4 1.0.54 Driver

  ==> Input File <==

--------------------------------------------------------------------------
set {
	reference rhf
	basis cc-pvtz
}

set_num_threads( 4 )
memory 2 gb

molecule MOL {
0 1

H	 2.252046	 -1.517674	 2.006470
O	 2.618130	 -0.801187	 1.519283
C	 1.680662	 -0.172945	 0.787814
C	 2.087074	 0.907463	 0.017964
C	 0.359042	 -0.564937	 0.783227
H	 3.119472	 1.195527	 0.036128
C	 1.171668	 1.588844	 -0.750868
H	 0.017960	 -1.394356	 1.367201
C	 -0.532034	 0.141680	 0.000000
H	 1.494871	 2.422575	 -1.342629
C	 -0.161373	 1.214013	 -0.772006
N	 -1.937041	 -0.281114	 0.000000
H	 -0.883000	 1.733385	 -1.363808
O	 -2.159542	 -1.446261	 0.000000
O	 -2.764978	 0.565773	 0.000000

	symmetry c1
}
set optking {
	frozen_dihedral = ("
		11 9 12 14
	")
}

ee,wfn = optimize('scf', return_wfn=True)
oeprop( wfn, 'DIPOLE', 'QUADRUPOLE', 'MULLIKEN_CHARGES')
f=open( 'psi4out.xyz', 'w' )
f.write( "15  " )
f.write( str(ee) + "\n" )
f.write( MOL.save_string_xyz() )
f.close()
--------------------------------------------------------------------------

    Molecular point group: c1
  Charge       = 0
  Multiplicity = 1
  Basis Set: CC-PVTZ
  Basis Set:
  @DF-RHF Final Energy:  -509.21595692666943
    Total Energy =                       -509.2159569266697190
    Molecular point group: c1
  Basis Set: CC-PVTZ
  Basis Set:
  Basis Set: CC-PVTZ
  Basis Set:
  @DF-RHF Final Energy:  -509.20916257648645
    Total Energy =                       -509.2091625764866194
  Basis Set: CC-PVTZ
  Basis Set:
  Basis Set: CC-PVTZ
  Basis Set:
  @DF-RHF Final Energy:  -509.21534997679822
    Total Energy =                       -509.2153499767987341
  Basis Set: CC-PVTZ
  Basis Set:
  Basis Set: CC-PVTZ
  Basis Set:
  @DF-RHF Final Energy:  -509.21627593904248
    Total Energy =                       -509.2162759390423616
  Basis Set: CC-PVTZ
  Basis Set:
  Basis Set: CC-PVTZ
  Basis Set:
  @DF-RHF Final Energy:  -509.21628378962896
    Total Energy =                       -509.2162837896285055
  Basis Set: CC-PVTZ
  Basis Set:
  Basis Set: CC-PVTZ
  Basis Set:
  @DF-RHF Final Energy:  -509.21631733148678
    Total Energy =                       -509.2163173314870619
  Basis Set: CC-PVTZ
  Basis Set:
  Charge       = 0
  Multiplicity = 1
  Basis Set: CC-PVTZ
  Basis Set:

    Orbital Energies (a.u.)
    -----------------------

    Doubly Occupied:

       1A    -20.609435     2A    -20.597038     3A    -20.596637
       4A    -15.850225     5A    -11.329078     6A    -11.310808
       7A    -11.264147     8A    -11.263621     9A    -11.258856
      10A    -11.254540    11A     -1.645120    12A     -1.442179
      13A     -1.428104    14A     -1.203745    15A     -1.096413
      16A     -1.049122    17A     -0.966978    18A     -0.884059
      19A     -0.832508    20A     -0.794272    21A     -0.762526
      22A     -0.741010    23A     -0.725978    24A     -0.711797
      25A     -0.675373    26A     -0.636222    27A     -0.622659
      28A     -0.597878    29A     -0.563279    30A     -0.548410
      31A     -0.528184    32A     -0.494842    33A     -0.491920
      34A     -0.459351    35A     -0.378497    36A     -0.346593

  @DF-RHF Final Energy:  -509.21631784319908

   => Energetics <=

    Nuclear Repulsion Energy =            504.5847662195828320
    One-Electron Energy =               -1695.6793611538141704
    Two-Electron Energy =                 681.8782770910320323
    DFT Exchange-Correlation Energy =       0.0000000000000000
    Empirical Dispersion Energy =           0.0000000000000000
    PCM Polarization Energy =               0.0000000000000000
    EFP Energy =                            0.0000000000000000
    Total Energy =                       -509.2163178431992492
    Molecular point group: c1
  Basis Set: CC-PVTZ
  Basis Set:

  -Total Gradient:
     Atom            X                  Y                   Z
    ------   -----------------  -----------------  -----------------
       1       -0.000001445808     0.000006821110     0.000010497890
       2        0.000002059222    -0.000005854024     0.000009132741
       3        0.000008245661    -0.000021415087    -0.000048064481
       4       -0.000000563963    -0.000003576095     0.000026678262
       5       -0.000011865386    -0.000000156261     0.000002430001
       6        0.000000077346    -0.000004432310    -0.000007169449
       7       -0.000029016974     0.000033317988     0.000031932785
       8        0.000000260576     0.000000415220    -0.000000551834
       9       -0.001235401849     0.003366047084     0.002521838248
      10       -0.000003536309    -0.000001461667    -0.000000338080
      11        0.000900117550    -0.002389082603    -0.002901932721
      12        0.000028377188    -0.001043341500     0.004692231229
      13        0.000005071177    -0.000002603115     0.000004836846
      14        0.000338971918    -0.000078080836    -0.004331906987
      15       -0.000001350345     0.000143402099    -0.000009614446

  **** Optimization is complete! (in 7 steps) ****
    Final optimized geometry and variables:
    Molecular point group: c1

    Geometry (in Angstrom), charge = 0, multiplicity = 1:

    H            2.260813956765    -1.554330218954     1.860959764102
    O            2.621975319721    -0.827936788210     1.384971523455
    C            1.688378032413    -0.213370923773     0.638601204159
    C            2.093640565780     0.867410394855    -0.132045741779
    C            0.371846305131    -0.623960795064     0.611654488054
    H            3.123570385393     1.163059346932    -0.105180429457
    C            1.182098686047     1.535479787313    -0.916704885464
    H            0.036022107424    -1.473601422550     1.171484714866
    C           -0.516579491424     0.088021264164    -0.166262070209
    H            1.507623396329     2.362320974970    -1.516905039144
    C           -0.150264737425     1.156302041214    -0.942604109210
    N           -1.904884065755    -0.372622730058    -0.217493309427
    H           -0.873961412993     1.673176437483    -1.536305344594
    O           -2.088864226518    -1.544220501696    -0.205740631038
    O           -2.749855748542     0.453526986550    -0.300148978970

  Mulliken Charges: (a.u.)
   Center  Symbol    Alpha    Beta     Spin     Total
       1     H     0.38438  0.38438  0.00000  0.23124
       2     O     4.16778  4.16778  0.00000 -0.33556
       3     C     2.84453  2.84453  0.00000  0.31094
       4     C     3.10014  3.10014  0.00000 -0.20027
       5     C     3.13905  3.13905  0.00000 -0.27809
       6     H     0.41354  0.41354  0.00000  0.17293
       7     C     3.05466  3.05466  0.00000 -0.10932
       8     H     0.41494  0.41494  0.00000  0.17011
       9     C     2.94471  2.94471  0.00000  0.11058
      10     H     0.41612  0.41612  0.00000  0.16777
      11     C     3.10468  3.10468  0.00000 -0.20936
      12     N     3.26918  3.26918  0.00000  0.46165
      13     H     0.40534  0.40534  0.00000  0.18932
      14     O     4.17129  4.17129  0.00000 -0.34258
      15     O     4.16967  4.16967  0.00000 -0.33934

   Total alpha = 36.00000, Total beta = 36.00000, Total charge = -0.00000

*** Psi4 exiting successfully. Buy a developer a beer!
