  ==> Input File <==

--------------------------------------------------------------------------
set {
	reference rhf
	basis cc-pvtz
}

set_num_threads( 4 )
memory 2 gb

molecule MOL {
0 1

H	 -2.372510	 1.193507	 2.608254
C	 -2.355193	 0.406729	 1.882314
C	 -1.265737	 0.196637	 1.184967
H	 -3.234221	 -0.192142	 1.746439
O	 -1.189946	 -0.765863	 0.237511
H	 -0.376511	 0.785239	 1.318953
C	 0.026572	 -0.995256	 -0.379403
C	 1.057223	 0.049888	 -0.004615
H	 -0.054361	 -1.010670	 -1.459674
H	 0.397526	 -1.952058	 -0.044198
F	 2.203233	 -0.234060	 -0.590375
F	 0.698147	 1.254887	 -0.392621
F	 1.266440	 0.094219	 1.288722

	symmetry c1
}
set optking {
	frozen_dihedral = ("
		3 5 7 9
	")
}

ee = optimize('scf')
oeprop('DIPOLE', 'QUADRUPOLE', 'MULLIKEN_CHARGES')
f=open( 'psi4out.xyz', 'w' )
f.write( "13  " )
f.write( str(ee) + "\n" )
f.write( MOL.save_string_xyz() )
f.close()
--------------------------------------------------------------------------

    Molecular point group: c1
  Charge       = 0
  Multiplicity = 1
  Basis Set: CC-PVTZ
  Basis Set:
  @DF-RHF Final Energy:  -527.71424583943599
    Total Energy =                       -527.7142458394362166
    Molecular point group: c1
  Basis Set: CC-PVTZ
  Basis Set:
  Basis Set: CC-PVTZ
  Basis Set:
  @DF-RHF Final Energy:  -527.72681048681829
    Total Energy =                       -527.7268104868184082
  Basis Set: CC-PVTZ
  Basis Set:
  Basis Set: CC-PVTZ
  Basis Set:
  @DF-RHF Final Energy:  -527.73095701441753
    Total Energy =                       -527.7309570144175268
  Basis Set: CC-PVTZ
  Basis Set:
  Basis Set: CC-PVTZ
  Basis Set:
  @DF-RHF Final Energy:  -527.73201554864090
    Total Energy =                       -527.7320155486403337
  Basis Set: CC-PVTZ
  Basis Set:
  @DF-RHF Final Energy:  -527.73226903505019
    Total Energy =                       -527.7322690350504217
  @DF-RHF Final Energy:  -527.73232027539905
    Total Energy =                       -527.7323202753989335
  @DF-RHF Final Energy:  -527.73234005691643
    Total Energy =                       -527.7323400569168825
  @DF-RHF Final Energy:  -527.73234426185479
    Total Energy =                       -527.7323442618551326
  Basis Set: CC-PVTZ
  Basis Set:
  @DF-RHF Final Energy:  -527.73234692642961
    Total Energy =                       -527.7323469264299547
  Basis Set: CC-PVTZ
  Basis Set:
  Basis Set: CC-PVTZ
  Basis Set:
  @DF-RHF Final Energy:  -527.73234902184163
    Total Energy =                       -527.7323490218419693
  Basis Set: CC-PVTZ
  Basis Set:
  Basis Set: CC-PVTZ
  Basis Set:
  @DF-RHF Final Energy:  -527.73235111428039
    Total Energy =                       -527.7323511142806183
  Basis Set: CC-PVTZ
  Basis Set:
  Charge       = 0
  Multiplicity = 1
  Basis Set: CC-PVTZ
  Basis Set:

    Orbital Energies (a.u.)
    -----------------------

    Doubly Occupied:

       1A    -26.348385     2A    -26.347927     3A    -26.347574
       4A    -20.598164     5A    -11.507942     6A    -11.321416
       7A    -11.295367     8A    -11.211148     9A     -1.758779
      10A     -1.654271    11A     -1.653909    12A     -1.435193
      13A     -1.088783    14A     -1.023971    15A     -0.938004
      16A     -0.852603    17A     -0.848125    18A     -0.842966
      19A     -0.765049    20A     -0.732455    21A     -0.729814
      22A     -0.708480    23A     -0.690205    24A     -0.671101
      25A     -0.663312    26A     -0.659099    27A     -0.651396
      28A     -0.591216    29A     -0.560927    30A     -0.531504
      31A     -0.498831    32A     -0.354099

  @DF-RHF Final Energy:  -527.73235169773250

   => Energetics <=

    Nuclear Repulsion Energy =            416.3872249956187943
    One-Electron Energy =               -1556.4751293650797379
    Two-Electron Energy =                 612.3555526717284465
    DFT Exchange-Correlation Energy =       0.0000000000000000
    Empirical Dispersion Energy =           0.0000000000000000
    PCM Polarization Energy =               0.0000000000000000
    EFP Energy =                            0.0000000000000000
    Total Energy =                       -527.7323516977323834
    Molecular point group: c1
  Basis Set: CC-PVTZ
  Basis Set:

  -Total Gradient:
     Atom            X                  Y                   Z
    ------   -----------------  -----------------  -----------------
       1        0.000001362462    -0.000004011425     0.000000186559
       2       -0.000023848621     0.000011504457     0.000031637003
       3       -0.000155698719     0.001099299242    -0.001172117405
       4       -0.000005952226    -0.000005457215    -0.000001707338
       5        0.000416704538    -0.001304806271     0.001700076100
       6       -0.000015940614     0.000003881311     0.000014901775
       7       -0.000653961766    -0.001447583274    -0.000555306052
       8        0.000087033254    -0.000040636689    -0.000103825237
       9        0.000428552096     0.001653531508    -0.000028828297
      10       -0.000012354386    -0.000003140492    -0.000008160055
      11       -0.000066892265     0.000019174792     0.000050614806
      12       -0.000056458362     0.000011969861     0.000007654470
      13        0.000057454612     0.000006274199     0.000064873671

  **** Optimization is complete! (in 12 steps) ****
    Final optimized geometry and variables:
    Molecular point group: c1

    Geometry (in Angstrom), charge = 0, multiplicity = 1:

    H           -2.876971607491     1.108576441525     2.320099049615
    C           -2.722615901246     0.318799496716     1.613548848550
    C           -1.671938088928     0.351415968153     0.829489559208
    H           -3.443296986495    -0.473336860733     1.557015434594
    O           -1.478435506051    -0.591818419630    -0.121699726773
    H           -0.955588861690     1.144837981654     0.880273114430
    C           -0.248686029700    -0.918925357081    -0.679440458110
    C            0.938999281193    -0.025125676238    -0.380278116850
    H           -0.355619795228    -0.908367142874    -1.755179928074
    H            0.035444481355    -1.914520526947    -0.363790067273
    F            1.979007122832    -0.495118756255    -1.034926631542
    F            0.752924005137     1.217758778122    -0.772042317164
    F            1.255446633751     0.003899039380     0.895717389502

  Mulliken Charges: (a.u.)
   Center  Symbol    Alpha    Beta     Spin     Total
       1     H     0.42536  0.42536  0.00000  0.14928
       2     C     3.19574  3.19574  0.00000 -0.39148
       3     C     2.96576  2.96576  0.00000  0.06848
       4     H     0.42547  0.42547  0.00000  0.14907
       5     O     4.14920  4.14920  0.00000 -0.29840
       6     H     0.42695  0.42695  0.00000  0.14609
       7     C     2.98919  2.98919  0.00000  0.02163
       8     C     2.69158  2.69158  0.00000  0.61684
       9     H     0.45019  0.45019  0.00000  0.09961
      10     H     0.45280  0.45280  0.00000  0.09439
      11     F     4.60595  4.60595  0.00000 -0.21190
      12     F     4.61162  4.61162  0.00000 -0.22323
      13     F     4.61019  4.61019  0.00000 -0.22038

   Total alpha = 32.00000, Total beta = 32.00000, Total charge = -0.00000
