  ==> Input File <==

--------------------------------------------------------------------------
set {
	reference rhf
	basis 6-31G*
}

set_num_threads( 4 )
memory 2 gb

molecule MOL {
0 1

O	 1.214711	 1.306902	 -0.000018
C	 1.122059	 0.121804	 -0.000188
C	 -0.170150	 -0.657997	 -0.000612
O	 2.172624	 -0.688929	 0.000216
C	 -1.412532	 0.227344	 -0.000452
H	 -0.153702	 -1.313099	 -0.867402
H	 -0.153924	 -1.313811	 0.865644
C	 -2.619498	 -0.464444	 -0.636084
H	 -1.195508	 1.149525	 -0.530535
H	 -1.647918	 0.514333	 1.019712
C	 -3.869041	 0.415123	 -0.638933
H	 -2.378004	 -0.750591	 -1.657787
H	 -2.830972	 -1.389072	 -0.102780
H	 -3.700320	 1.333097	 -1.194372
H	 -4.709560	 -0.098499	 -1.094999
H	 -4.156874	 0.689534	 0.371755
C	 3.452279	 -0.082609	 0.000533
H	 3.583069	 0.529321	 -0.880332
H	 4.163299	 -0.894027	 0.001117
H	 3.582335	 0.529955	 0.881077

	symmetry c1
}
set optking {
	frozen_dihedral = ("
		9 5 3 6
	")
}

ee = optimize('scf')
oeprop('DIPOLE', 'QUADRUPOLE', 'MULLIKEN_CHARGES')
f=open( 'psi4out.xyz', 'w' )
f.write( "20  " )
f.write( str(ee) + "\n" )
f.write( MOL.save_string_xyz() )
f.close()
--------------------------------------------------------------------------

    Molecular point group: c1
  Charge       = 0
  Multiplicity = 1
  Basis Set: 6-31G*
  Basis Set:
  @DF-RHF Final Energy:  -383.93952697685421
    Total Energy =                       -383.9395269768542676
    Molecular point group: c1
  Basis Set: 6-31G*
  Basis Set:
  Basis Set: 6-31G*
  Basis Set:
  @DF-RHF Final Energy:  -383.93971869666927
    Total Energy =                       -383.9397186966691606
  Basis Set: 6-31G*
  Basis Set:
  Basis Set: 6-31G*
  Basis Set:
  @DF-RHF Final Energy:  -383.93973610998114
    Total Energy =                       -383.9397361099811405
  Basis Set: 6-31G*
  Basis Set:
  Basis Set: 6-31G*
  Basis Set:
  @DF-RHF Final Energy:  -383.93968176714054
    Total Energy =                       -383.9396817671406552
  Basis Set: 6-31G*
  Basis Set:
  Basis Set: 6-31G*
  Basis Set:
  @DF-RHF Final Energy:  -383.93977851455975
    Total Energy =                       -383.9397785145598618
  Basis Set: 6-31G*
  Basis Set:
  Charge       = 0
  Multiplicity = 1
  Basis Set: 6-31G*
  Basis Set:

    Orbital Energies (a.u.)
    -----------------------

    Doubly Occupied:

       1A    -20.603970     2A    -20.546029     3A    -11.373098
       4A    -11.281070     5A    -11.235489     6A    -11.220404
       7A    -11.218564     8A    -11.210542     9A     -1.469839
      10A     -1.363253    11A     -1.087732    12A     -1.024534
      13A     -0.968926    14A     -0.886138    15A     -0.804699
      16A     -0.767792    17A     -0.699118    18A     -0.682471
      19A     -0.672455    20A     -0.642564    21A     -0.598744
      22A     -0.591973    23A     -0.579100    24A     -0.542839
      25A     -0.533371    26A     -0.522625    27A     -0.501017
      28A     -0.478529    29A     -0.472792    30A     -0.467566
      31A     -0.456387    32A     -0.438317

  @DF-RHF Final Energy:  -383.93977898154577

   => Energetics <=

    Nuclear Repulsion Energy =            381.0326172160790179
    One-Electron Energy =               -1278.0608979865535275
    Two-Electron Energy =                 513.0885017889286246
    DFT Exchange-Correlation Energy =       0.0000000000000000
    Empirical Dispersion Energy =           0.0000000000000000
    PCM Polarization Energy =               0.0000000000000000
    EFP Energy =                            0.0000000000000000
    Total Energy =                       -383.9397789815459419
    Molecular point group: c1
  Basis Set: 6-31G*
  Basis Set:

  -Total Gradient:
     Atom            X                  Y                   Z
    ------   -----------------  -----------------  -----------------
       1       -0.000014015900    -0.000015768004     0.000006079351
       2       -0.000007258308     0.000024091393    -0.000021372579
       3        0.002392745131     0.003405332077    -0.001633090525
       4        0.000009090479    -0.000010824005     0.000000195893
       5       -0.001704082341    -0.002494349801    -0.003147060952
       6       -0.001712782242    -0.002418975770     0.001839542716
       7       -0.000005828421     0.000004042662     0.000015927434
       8        0.000005603562    -0.000016328895     0.000034598407
       9        0.001050153516     0.001509780947     0.002925930121
      10       -0.000015302411    -0.000006564617    -0.000008112610
      11        0.000007444798     0.000016253507    -0.000021480698
      12       -0.000011622286     0.000014715883     0.000009192583
      13        0.000012960996    -0.000012511550     0.000000869531
      14       -0.000004698655     0.000007290275     0.000006579872
      15       -0.000000986530     0.000002772223    -0.000006329602
      16        0.000004223760    -0.000011862360    -0.000002311837
      17       -0.000002603925     0.000004477703     0.000000213029
      18       -0.000000162137    -0.000000283952    -0.000000611517
      19       -0.000003789111    -0.000001560231     0.000000126671
      20        0.000000910025     0.000000272513     0.000001114713

  **** Optimization is complete! (in 6 steps) ****
    Final optimized geometry and variables:
    Molecular point group: c1

    Geometry (in Angstrom), charge = 0, multiplicity = 1:

    O            1.219848972066     1.283394662388     0.138575831264
    C            1.111501954499     0.099663106639     0.143415417959
    C           -0.187242377154    -0.667804932928     0.112651588250
    O            2.151357427137    -0.723826030518     0.180193579051
    C           -1.437686796942     0.213596532003     0.104334203069
    H           -0.164356456653    -1.335182384166    -0.744682003420
    H           -0.185366065740    -1.329810302902     0.974341486204
    C           -2.659563626612    -0.497414216417    -0.477028100209
    H           -1.231063075603     1.130666800394    -0.435566554977
    H           -1.653598285657     0.525831341234     1.123119097340
    C           -3.921554174482     0.362304731109    -0.427346334445
    H           -2.454961515631    -0.778988651718    -1.507844300288
    H           -2.833534068896    -1.425632231347     0.063896582637
    H           -3.787103907913     1.286140986487    -0.982364396229
    H           -4.770460172469    -0.161508031176    -0.855445898732
    H           -4.176149756346     0.625836870412     0.595148643054
    C            3.438028037633    -0.133403602401     0.212158510994
    H            3.601171742622     0.470407319546    -0.668909026768
    H            4.138343259065    -0.953658361852     0.238261580807
    H            3.551107619958     0.483785802714     1.091803882283

  Mulliken Charges: (a.u.)
   Center  Symbol    Alpha    Beta     Spin     Total
       1     O     4.28547  4.28547  0.00000 -0.57095
       2     C     2.60742  2.60742  0.00000  0.78516
       3     C     3.20989  3.20989  0.00000 -0.41978
       4     O     4.30633  4.30633  0.00000 -0.61266
       5     C     3.15455  3.15455  0.00000 -0.30910
       6     H     0.39993  0.39993  0.00000  0.20014
       7     H     0.39946  0.39946  0.00000  0.20108
       8     C     3.15499  3.15499  0.00000 -0.30998
       9     H     0.40254  0.40254  0.00000  0.19492
      10     H     0.41735  0.41735  0.00000  0.16529
      11     C     3.23979  3.23979  0.00000 -0.47959
      12     H     0.42197  0.42197  0.00000  0.15607
      13     H     0.42312  0.42312  0.00000  0.15376
      14     H     0.41921  0.41921  0.00000  0.16159
      15     H     0.41870  0.41870  0.00000  0.16261
      16     H     0.42056  0.42056  0.00000  0.15888
      17     C     3.09230  3.09230  0.00000 -0.18461
      18     H     0.40904  0.40904  0.00000  0.18191
      19     H     0.40839  0.40839  0.00000  0.18322
      20     H     0.40898  0.40898  0.00000  0.18205

   Total alpha = 32.00000, Total beta = 32.00000, Total charge =  0.00000
