  ==> Input File <==

--------------------------------------------------------------------------
set {
	reference rhf
	basis 6-31G*
}

set_num_threads( 4 )
memory 2 gb

molecule MOL {
0 1

H	 -0.723890	 -1.838466	 -1.687987
C	 -0.838611	 -0.778971	 -1.896487
O	 -0.774054	 0.001095	 -0.743181
H	 -1.821544	 -0.621372	 -2.319965
H	 -0.098784	 -0.488031	 -2.636218
C	 0.406953	 0.000033	 0.038965
C	 1.527284	 -0.003667	 -0.998752
C	 0.498933	 1.262172	 0.902524
C	 0.494271	 -1.259566	 0.906664
H	 1.452513	 0.873252	 -1.631882
H	 1.448863	 -0.881882	 -1.629595
H	 2.502020	 -0.005104	 -0.521731
H	 0.364280	 2.147110	 0.289513
H	 1.472180	 1.321775	 1.378800
H	 -0.247853	 1.275162	 1.689097
H	 0.356778	 -2.146106	 0.296587
H	 1.467182	 -1.320941	 1.383330
H	 -0.252763	 -1.267328	 1.693119

	symmetry c1
}
set optking {
	frozen_dihedral = ("
		2 3 6 7
	")
}

ee = optimize('scf')
oeprop('DIPOLE', 'QUADRUPOLE', 'MULLIKEN_CHARGES')
f=open( 'psi4out.xyz', 'w' )
f.write( "18  " )
f.write( str(ee) + "\n" )
f.write( MOL.save_string_xyz() )
f.close()
--------------------------------------------------------------------------

    Molecular point group: c1
  Charge       = 0
  Multiplicity = 1
  Basis Set: 6-31G*
  Basis Set:
  @DF-RHF Final Energy:  -271.16312647541150
    Total Energy =                       -271.1631264754116728
    Molecular point group: c1
  Basis Set: 6-31G*
  Basis Set:
  Basis Set: 6-31G*
  Basis Set:
  @DF-RHF Final Energy:  -271.16889075858904
    Total Energy =                       -271.1688907585891002
  Basis Set: 6-31G*
  Basis Set:
  Basis Set: 6-31G*
  Basis Set:
  @DF-RHF Final Energy:  -271.17327643947834
    Total Energy =                       -271.1732764394783999
  Basis Set: 6-31G*
  Basis Set:
  Basis Set: 6-31G*
  Basis Set:
  @DF-RHF Final Energy:  -271.17468667260584
    Total Energy =                       -271.1746866726059579
  Basis Set: 6-31G*
  Basis Set:
  @DF-RHF Final Energy:  -271.17477290319056
    Total Energy =                       -271.1747729031907284
  @DF-RHF Final Energy:  -271.17470408327603
    Total Energy =                       -271.1747040832761400
  Basis Set: 6-31G*
  Basis Set:
  @DF-RHF Final Energy:  -271.17481676204051
    Total Energy =                       -271.1748167620404502
  Basis Set: 6-31G*
  Basis Set:
  Basis Set: 6-31G*
  Basis Set:
  @DF-RHF Final Energy:  -271.17481479458036
    Total Energy =                       -271.1748147945804703
  Basis Set: 6-31G*
  Basis Set:
  Basis Set: 6-31G*
  Basis Set:
  @DF-RHF Final Energy:  -271.17481782120012
    Total Energy =                       -271.1748178212002358
  Basis Set: 6-31G*
  Basis Set:
  Charge       = 0
  Multiplicity = 1
  Basis Set: 6-31G*
  Basis Set:

    Orbital Energies (a.u.)
    -----------------------

    Doubly Occupied:

       1A    -20.546115     2A    -11.281382     3A    -11.261299
       4A    -11.211566     5A    -11.205856     6A    -11.203534
       7A     -1.369396     8A     -1.073173     9A     -0.948642
      10A     -0.937101    11A     -0.912381    12A     -0.752048
      13A     -0.655881    14A     -0.645130    15A     -0.637784
      16A     -0.589541    17A     -0.574124    18A     -0.552095
      19A     -0.535131    20A     -0.525112    21A     -0.514962
      22A     -0.489919    23A     -0.485342    24A     -0.440614
      25A     -0.401387

  @DF-RHF Final Energy:  -271.17481802185137

   => Energetics <=

    Nuclear Repulsion Energy =            272.3106082566417854
    One-Electron Energy =                -907.4718217546219421
    Two-Electron Energy =                 363.9863954761290756
    DFT Exchange-Correlation Energy =       0.0000000000000000
    Empirical Dispersion Energy =           0.0000000000000000
    PCM Polarization Energy =               0.0000000000000000
    EFP Energy =                            0.0000000000000000
    Total Energy =                       -271.1748180218510811
    Molecular point group: c1
  Basis Set: 6-31G*
  Basis Set:

  -Total Gradient:
     Atom            X                  Y                   Z
    ------   -----------------  -----------------  -----------------
       1       -0.000002705558     0.000006345931     0.000006078430
       2        0.000690477953     0.001670942203    -0.001205903334
       3       -0.001078222391    -0.003243290898     0.001724074371
       4        0.000002904564     0.000002300958     0.000003618940
       5       -0.000000055973    -0.000006760296    -0.000002667951
       6        0.000395145069     0.003416081549    -0.000485816752
       7       -0.000044727511    -0.001839310454    -0.000037747661
       8        0.000009473230    -0.000006566881    -0.000023057334
       9        0.000014284184     0.000008104236     0.000015305171
      10       -0.000003254534     0.000005744047     0.000010380033
      11       -0.000012543086    -0.000005292017    -0.000000280871
      12        0.000009077663    -0.000001035576    -0.000003599309
      13        0.000003053946     0.000011790231     0.000012710993
      14        0.000011025627     0.000004311566    -0.000001118092
      15        0.000000655921    -0.000018493834    -0.000021023595
      16        0.000007434155     0.000013888891     0.000003714949
      17        0.000001508036    -0.000006738581     0.000016630263
      18       -0.000003531294    -0.000012021078    -0.000011298250

  **** Optimization is complete! (in 10 steps) ****
    Final optimized geometry and variables:
    Molecular point group: c1

    Geometry (in Angstrom), charge = 0, multiplicity = 1:

    H           -0.928915414952    -1.641439815317    -1.398685151679
    C           -1.178282109787    -0.591682446822    -1.531062473146
    O           -0.997819060115     0.153374092528    -0.367528055181
    H           -2.228375172197    -0.522535508253    -1.782174160309
    H           -0.600633165581    -0.201184703441    -2.363049533785
    C            0.249736584063     0.115759318011     0.306345868377
    C            1.439101628226     0.121114587442    -0.658609926828
    C            0.257457282624     1.380738160984     1.160004107607
    C            0.296416351577    -1.128101542645     1.199606992302
    H            1.379058397301     0.961698565978    -1.342484423926
    H            1.497963326476    -0.791346920957    -1.241588777712
    H            2.364011615292     0.210257613519    -0.098747632580
    H            0.222878544294     2.261339947738     0.528138201663
    H            1.149059145320     1.430776789834     1.776967338824
    H           -0.611938004792     1.396740901488     1.807307482260
    H            0.257168918295    -2.039314610491     0.611393240091
    H            1.210153951084    -1.152920405220     1.785375109048
    H           -0.548302077816    -1.129686420332     1.879446492788

  Mulliken Charges: (a.u.)
   Center  Symbol    Alpha    Beta     Spin     Total
       1     H     0.43183  0.43183  0.00000  0.13634
       2     C     3.07850  3.07850  0.00000 -0.15700
       3     O     4.32027  4.32027  0.00000 -0.64053
       4     H     0.41260  0.41260  0.00000  0.17479
       5     H     0.42772  0.42772  0.00000  0.14457
       6     C     2.84219  2.84219  0.00000  0.31562
       7     C     3.25415  3.25415  0.00000 -0.50831
       8     C     3.23269  3.23269  0.00000 -0.46537
       9     C     3.23852  3.23852  0.00000 -0.47704
      10     H     0.41405  0.41405  0.00000  0.17190
      11     H     0.41831  0.41831  0.00000  0.16337
      12     H     0.41655  0.41655  0.00000  0.16691
      13     H     0.41603  0.41603  0.00000  0.16793
      14     H     0.42518  0.42518  0.00000  0.14964
      15     H     0.41296  0.41296  0.00000  0.17408
      16     H     0.42144  0.42144  0.00000  0.15712
      17     H     0.42335  0.42335  0.00000  0.15329
      18     H     0.41366  0.41366  0.00000  0.17269

   Total alpha = 25.00000, Total beta = 25.00000, Total charge =  0.00000
