  ==> Input File <==

--------------------------------------------------------------------------
set {
	reference rhf
	basis 6-31G*
}

set_num_threads( 4 )
memory 2 gb

molecule MOL {
0 1

O	 2.820769	 1.421519	 0.255491
C	 2.710505	 0.370058	 0.807787
C	 1.417122	 -0.424663	 0.785051
C	 3.864600	 -0.243809	 1.573546
C	 0.291004	 0.242674	 0.000989
H	 1.638694	 -1.410069	 0.377289
H	 1.115998	 -0.600759	 1.816902
C	 -0.994322	 -0.586602	 0.000262
H	 0.620558	 0.413850	 -1.018924
H	 0.097069	 1.223974	 0.422400
C	 -2.259874	 0.272531	 0.000494
H	 -1.004862	 -1.240012	 -0.870939
H	 -1.005220	 -1.241071	 0.870675
C	 -3.549786	 -0.549746	 -0.000374
H	 -2.250389	 0.926680	 -0.869574
H	 -2.250838	 0.925513	 0.871430
C	 -4.809590	 0.315458	 -0.000369
H	 -3.560515	 -1.202009	 -0.871156
H	 -3.561123	 -1.202955	 0.869711
H	 -4.844746	 0.956611	 -0.876632
H	 -5.706986	 -0.295590	 -0.001609
H	 -4.845960	 0.954827	 0.877144
H	 4.117724	 -1.216557	 1.162076
H	 4.726257	 0.406823	 1.518246
H	 3.590969	 -0.395287	 2.613649

	symmetry c1
}
set optking {
	frozen_dihedral = ("
		9 5 8 12
	")
}

ee = optimize('scf')
oeprop('DIPOLE', 'QUADRUPOLE', 'MULLIKEN_CHARGES')
f=open( 'psi4out.xyz', 'w' )
f.write( "25  " )
f.write( str(ee) + "\n" )
f.write( MOL.save_string_xyz() )
f.close()
--------------------------------------------------------------------------

    Molecular point group: c1
  Charge       = 0
  Multiplicity = 1
  Basis Set: 6-31G*
  Basis Set:
  @DF-RHF Final Energy:  -387.13309850884195
    Total Energy =                       -387.1330985088419538
    Molecular point group: c1
  Basis Set: 6-31G*
  Basis Set:
  Basis Set: 6-31G*
  Basis Set:
  @DF-RHF Final Energy:  -387.13335290048667
    Total Energy =                       -387.1333529004859884
  Basis Set: 6-31G*
  Basis Set:
  Basis Set: 6-31G*
  Basis Set:
  @DF-RHF Final Energy:  -387.13330421833410
    Total Energy =                       -387.1333042183341604
  Basis Set: 6-31G*
  Basis Set:
  Basis Set: 6-31G*
  Basis Set:
  @DF-RHF Final Energy:  -387.13343300391381
    Total Energy =                       -387.1334330039135239
  Basis Set: 6-31G*
  Basis Set:
  Basis Set: 6-31G*
  Basis Set:
  @DF-RHF Final Energy:  -387.13344016191178
    Total Energy =                       -387.1334401619114942
  Basis Set: 6-31G*
  Basis Set:
  Charge       = 0
  Multiplicity = 1
  Basis Set: 6-31G*
  Basis Set:

    Orbital Energies (a.u.)
    -----------------------

    Doubly Occupied:

       1A    -20.550398     2A    -11.325990     3A    -11.231774
       4A    -11.228233     5A    -11.217013     6A    -11.216439
       7A    -11.215274     8A    -11.213678     9A    -11.208429
      10A     -1.395600    11A     -1.092641    12A     -1.056101
      13A     -1.013953    14A     -0.969063    15A     -0.890171
      16A     -0.814623    17A     -0.790604    18A     -0.730387
      19A     -0.660331    20A     -0.650216    21A     -0.634269
      22A     -0.622597    23A     -0.596721    24A     -0.582177
      25A     -0.566560    26A     -0.562482    27A     -0.539431
      28A     -0.524332    29A     -0.514531    30A     -0.491202
      31A     -0.485976    32A     -0.474740    33A     -0.463520
      34A     -0.461389    35A     -0.448467    36A     -0.398968

  @DF-RHF Final Energy:  -387.13344025623098

   => Energetics <=

    Nuclear Repulsion Energy =            438.5463646205204213
    One-Electron Energy =               -1393.6830489447006585
    Two-Electron Energy =                 568.0032440679487991
    DFT Exchange-Correlation Energy =       0.0000000000000000
    Empirical Dispersion Energy =           0.0000000000000000
    PCM Polarization Energy =               0.0000000000000000
    EFP Energy =                            0.0000000000000000
    Total Energy =                       -387.1334402562314381
    Molecular point group: c1
  Basis Set: 6-31G*
  Basis Set:

  -Total Gradient:
     Atom            X                  Y                   Z
    ------   -----------------  -----------------  -----------------
       1       -0.000034702309     0.000017930764     0.000010043749
       2        0.000001807842    -0.000027907852    -0.000055828663
       3       -0.000021811537    -0.000105556890     0.000091815110
       4       -0.000031627118    -0.000010205005     0.000034540912
       5       -0.003519465173     0.005321136731    -0.000905336026
       6        0.000020835275    -0.000002192506     0.000005353864
       7        0.000052429495    -0.000031509475     0.000041982560
       8        0.003162690134    -0.004803271686     0.002818017677
       9        0.002298522581    -0.003669232778     0.000138090589
      10       -0.000053232853     0.000002771467     0.000039066356
      11       -0.000004446677     0.000132516244    -0.000036838054
      12       -0.001942335518     0.003027599252    -0.002315199699
      13        0.000068889140     0.000087430370     0.000039266997
      14        0.000048064097    -0.000018792038     0.000055377934
      15       -0.000010876389     0.000069517350     0.000020965280
      16       -0.000092666413    -0.000002834691     0.000024201910
      17        0.000037973678     0.000032493290    -0.000016780627
      18        0.000047247022     0.000006434675     0.000013020636
      19       -0.000036263665    -0.000011934875     0.000023904226
      20       -0.000001553646     0.000004720773    -0.000002260601
      21        0.000021132367    -0.000012543684    -0.000009049041
      22        0.000000026807    -0.000003604608    -0.000002581145
      23        0.000002007301    -0.000002999278    -0.000002666267
      24       -0.000014079715     0.000006061427    -0.000008241257
      25        0.000001435271    -0.000006026975    -0.000000866419

  **** Optimization is complete! (in 6 steps) ****
    Final optimized geometry and variables:
    Molecular point group: c1

    Geometry (in Angstrom), charge = 0, multiplicity = 1:

    O            2.895890162077     1.311877217814    -0.166487201267
    C            2.793032747740     0.266996613256     0.399868789615
    C            1.488300126296    -0.507822689232     0.437701789882
    C            3.968207261549    -0.356417258227     1.124793167305
    C            0.338118274874     0.171220615274    -0.304762349750
    H            1.676817044921    -1.499679831949     0.028211105833
    H            1.228562919321    -0.672385893445     1.482557289582
    C           -0.945619120680    -0.675341566595    -0.292768853802
    H            0.658728184288     0.338910406864    -1.326783470517
    H            0.159541048772     1.145942075102     0.135658531439
    C           -2.217200096178     0.177546053168    -0.340226621677
    H           -0.951081068696    -1.331612725512    -1.160152607129
    H           -0.976906691229    -1.310264008584     0.589914852073
    C           -3.500531359443    -0.651055249640    -0.411301099436
    H           -2.170390103343     0.843493297566    -1.200423895761
    H           -2.251971302435     0.819547797128     0.538389453826
    C           -4.764237067981     0.207331920237    -0.455362741686
    H           -3.468141198826    -1.290068101657    -1.291279798771
    H           -3.547279573466    -1.317810460929     0.447513843253
    H           -4.763182874814     0.861844664662    -1.322377334401
    H           -5.656877999083    -0.408436321319    -0.507038944359
    H           -4.844571173190     0.832732946058     0.429288434825
    H            4.190404501704    -1.336825563888     0.713620515379
    H            4.836175008502     0.280827694257     1.027948421016
    H            3.734845770620    -0.493576333200     2.176637010725

  Mulliken Charges: (a.u.)
   Center  Symbol    Alpha    Beta     Spin     Total
       1     O     4.26130  4.26130  0.00000 -0.52259
       2     C     2.73600  2.73600  0.00000  0.52800
       3     C     3.21236  3.21236  0.00000 -0.42472
       4     C     3.28663  3.28663  0.00000 -0.57325
       5     C     3.14923  3.14923  0.00000 -0.29846
       6     H     0.40980  0.40980  0.00000  0.18040
       7     H     0.41025  0.41025  0.00000  0.17949
       8     C     3.15536  3.15536  0.00000 -0.31072
       9     H     0.41013  0.41013  0.00000  0.17974
      10     H     0.41097  0.41097  0.00000  0.17805
      11     C     3.15226  3.15226  0.00000 -0.30452
      12     H     0.42146  0.42146  0.00000  0.15709
      13     H     0.42431  0.42431  0.00000  0.15138
      14     C     3.15186  3.15186  0.00000 -0.30372
      15     H     0.42162  0.42162  0.00000  0.15677
      16     H     0.42364  0.42364  0.00000  0.15271
      17     C     3.23922  3.23922  0.00000 -0.47843
      18     H     0.42327  0.42327  0.00000  0.15347
      19     H     0.42391  0.42391  0.00000  0.15218
      20     H     0.42117  0.42117  0.00000  0.15767
      21     H     0.41953  0.41953  0.00000  0.16094
      22     H     0.42171  0.42171  0.00000  0.15658
      23     H     0.40879  0.40879  0.00000  0.18241
      24     H     0.39651  0.39651  0.00000  0.20698
      25     H     0.40872  0.40872  0.00000  0.18256

   Total alpha = 36.00000, Total beta = 36.00000, Total charge =  0.00000
