  ==> Input File <==

--------------------------------------------------------------------------
set {
	reference rhf
	basis 6-31G*
}

set_num_threads( 4 )
memory 2 gb

molecule MOL {
0 1

O	 0.314397	 0.897181	 0.809183
C	 0.028650	 0.075053	 -0.000277
C	 -1.233602	 -0.752807	 0.000328
O	 0.802864	 -0.228357	 -1.033929
C	 -2.501530	 0.091881	 0.000126
H	 -1.193807	 -1.406641	 -0.865785
H	 -1.193516	 -1.405779	 0.867015
H	 -2.545121	 0.729328	 -0.874513
H	 -3.377167	 -0.548497	 0.000561
H	 -2.544818	 0.730135	 0.874258
C	 2.024004	 0.479130	 -1.151689
H	 1.840571	 1.539214	 -1.251625
H	 2.501946	 0.096823	 -2.040101
H	 2.648057	 0.306458	 -0.286696

	symmetry c1
}
set optking {
	frozen_dihedral = ("
		4 2 3 6
	")
}

ee = optimize('scf')
oeprop('DIPOLE', 'QUADRUPOLE', 'MULLIKEN_CHARGES')
f=open( 'psi4out.xyz', 'w' )
f.write( "14  " )
f.write( str(ee) + "\n" )
f.write( MOL.save_string_xyz() )
f.close()
--------------------------------------------------------------------------

    Molecular point group: c1
  Charge       = 0
  Multiplicity = 1
  Basis Set: 6-31G*
  Basis Set:
  @DF-RHF Final Energy:  -305.86990988804234
    Total Energy =                       -305.8699098880424572
    Molecular point group: c1
  Basis Set: 6-31G*
  Basis Set:
  Basis Set: 6-31G*
  Basis Set:
  @DF-RHF Final Energy:  -305.87035775267640
    Total Energy =                       -305.8703577526765685
  Basis Set: 6-31G*
  Basis Set:
  Basis Set: 6-31G*
  Basis Set:
  @DF-RHF Final Energy:  -305.86918204473614
    Total Energy =                       -305.8691820447361351
  Basis Set: 6-31G*
  Basis Set:
  Basis Set: 6-31G*
  Basis Set:
  @DF-RHF Final Energy:  -305.87049239563464
    Total Energy =                       -305.8704923956344714
  Basis Set: 6-31G*
  Basis Set:
  Basis Set: 6-31G*
  Basis Set:
  @DF-RHF Final Energy:  -305.87049901083583
    Total Energy =                       -305.8704990108357151
  Basis Set: 6-31G*
  Basis Set:
  Charge       = 0
  Multiplicity = 1
  Basis Set: 6-31G*
  Basis Set:

    Orbital Energies (a.u.)
    -----------------------

    Doubly Occupied:

       1A    -20.607010     2A    -20.543213     3A    -11.372504
       4A    -11.281525     5A    -11.237385     6A    -11.223049
       7A     -1.470678     8A     -1.362481     9A     -1.064789
      10A     -0.980030    11A     -0.880580    12A     -0.772337
      13A     -0.699037    14A     -0.680453    15A     -0.672597
      16A     -0.617367    17A     -0.601616    18A     -0.559908
      19A     -0.539588    20A     -0.518790    21A     -0.511013
      22A     -0.499727    23A     -0.455542    24A     -0.436427

  @DF-RHF Final Energy:  -305.87049940516766

   => Energetics <=

    Nuclear Repulsion Energy =            247.3323469261413834
    One-Electron Energy =                -907.2303978377890417
    Two-Electron Energy =                 354.0275515064798242
    DFT Exchange-Correlation Energy =       0.0000000000000000
    Empirical Dispersion Energy =           0.0000000000000000
    PCM Polarization Energy =               0.0000000000000000
    EFP Energy =                            0.0000000000000000
    Total Energy =                       -305.8704994051678909
    Molecular point group: c1
  Basis Set: 6-31G*
  Basis Set:

  -Total Gradient:
     Atom            X                  Y                   Z
    ------   -----------------  -----------------  -----------------
       1        0.000002566421    -0.000047261203    -0.000054733169
       2        0.000452944572    -0.000689675784     0.000709265761
       3       -0.000569598664     0.000861846863    -0.000694031358
       4       -0.000257114160     0.000447220074    -0.000394244833
       5        0.000026484401     0.000008816934     0.000006274735
       6        0.000373793305    -0.000569150227     0.000443701840
       7       -0.000001756888    -0.000009559158    -0.000008772365
       8       -0.000002923475    -0.000002173132     0.000008188165
       9       -0.000000582874    -0.000011855253     0.000001131381
      10        0.000000087244     0.000008880980    -0.000008443861
      11       -0.000053572277    -0.000001690445    -0.000010923933
      12        0.000014637334     0.000005641749    -0.000001821088
      13        0.000011121810     0.000001385332     0.000000097145
      14        0.000003913246    -0.000002426728     0.000004311579

  **** Optimization is complete! (in 6 steps) ****
    Final optimized geometry and variables:
    Molecular point group: c1

    Geometry (in Angstrom), charge = 0, multiplicity = 1:

    O            0.357177439612     0.771801416432     1.041789668042
    C            0.096387348791    -0.049788652591     0.221721326295
    C           -1.165428556051    -0.880465399007     0.226862354998
    O            0.887575484287    -0.328949453515    -0.803301976189
    C           -2.416448369184     0.000868570802     0.252096714618
    H           -1.165656675991    -1.547419356825    -0.624777239543
    H           -1.133135224045    -1.490864452599     1.124207240214
    H           -2.488946408201     0.604453332364    -0.646841647457
    H           -3.307150597153    -0.614430140754     0.313813463620
    H           -2.396811488102     0.665415632644     1.106429814171
    C            2.101424985326     0.395960215028    -0.892189969628
    H            1.904899909847     1.454406772258    -0.983389375247
    H            2.599550634412     0.029569579103    -1.776170538110
    H            2.711937625632     0.221889867604    -0.017972768078

  Mulliken Charges: (a.u.)
   Center  Symbol    Alpha    Beta     Spin     Total
       1     O     4.28638  4.28638  0.00000 -0.57277
       2     C     2.60974  2.60974  0.00000  0.78052
       3     C     3.20302  3.20302  0.00000 -0.40605
       4     O     4.30306  4.30306  0.00000 -0.60613
       5     C     3.24755  3.24755  0.00000 -0.49510
       6     H     0.40022  0.40022  0.00000  0.19956
       7     H     0.40033  0.40033  0.00000  0.19934
       8     H     0.41492  0.41492  0.00000  0.17016
       9     H     0.41404  0.41404  0.00000  0.17191
      10     H     0.40206  0.40206  0.00000  0.19587
      11     C     3.09364  3.09364  0.00000 -0.18729
      12     H     0.40833  0.40833  0.00000  0.18334
      13     H     0.40830  0.40830  0.00000  0.18340
      14     H     0.40838  0.40838  0.00000  0.18323

   Total alpha = 24.00000, Total beta = 24.00000, Total charge =  0.00000
