  ==> Input File <==

--------------------------------------------------------------------------
set {
	reference rhf
	basis 6-31G*
}

set_num_threads( 1 )
memory 2 gb

molecule MOL {
0 1

H	 -4.236494	 0.538104	 0.039757
O	 -3.517110	 -0.026191	 -0.205115
C	 -2.306886	 0.532354	 0.237577
C	 -1.177863	 -0.397191	 -0.171080
H	 -2.156308	 1.517575	 -0.201710
H	 -2.315015	 0.655684	 1.319734
C	 0.198102	 0.111031	 0.262842
H	 -1.208843	 -0.518759	 -1.250427
H	 -1.368741	 -1.376554	 0.258909
C	 1.331804	 -0.827780	 -0.158768
H	 0.361943	 1.100838	 -0.156218
H	 0.217265	 0.229072	 1.345532
C	 2.723619	 -0.410569	 0.329459
H	 1.342964	 -0.912588	 -1.244120
H	 1.116806	 -1.824343	 0.220779
C	 2.864279	 1.077878	 0.653613
H	 3.448808	 -0.669814	 -0.437992
H	 2.988091	 -0.998006	 1.206464
H	 2.593898	 1.690740	 -0.202151
H	 2.233728	 1.374405	 1.485270
H	 3.888641	 1.318820	 0.920789

	symmetry c1
}
set optking {
	frozen_dihedral = ("
		2 3 4 8,
		8 4 7 10,
		4 7 10 14,
		1 2 3 5
	")
}

ee = energy('scf')
oeprop('DIPOLE', 'QUADRUPOLE', 'MULLIKEN_CHARGES')
f=open( 'psi4out.xyz', 'w' )
f.write( "21  " )
f.write( str(ee) + "\n" )
f.write( MOL.save_string_xyz() )
f.close()
--------------------------------------------------------------------------

    Molecular point group: c1

    Geometry (in Angstrom), charge = 0, multiplicity = 1:

       Center              X                  Y                   Z               Mass
    ------------   -----------------  -----------------  -----------------  -----------------
           H         -4.180684240179     0.511155553191    -0.096313384431     1.007825032070
           O         -3.461300240179    -0.053139446809    -0.341185384431    15.994914619560
           C         -2.251076240179     0.505405553191     0.101506615569    12.000000000000
           C         -1.122053240179    -0.424139446809    -0.307150384431    12.000000000000
           H         -2.100498240179     1.490626553191    -0.337780384431     1.007825032070
           H         -2.259205240179     0.628735553191     1.183663615569     1.007825032070
           C          0.253911759821     0.084082553191     0.126771615569    12.000000000000
           H         -1.153033240179    -0.545707446809    -1.386497384431     1.007825032070
           H         -1.312931240179    -1.403502446809     0.122838615569     1.007825032070
           C          1.387613759821    -0.854728446809    -0.294838384431    12.000000000000
           H          0.417752759821     1.073889553191    -0.292288384431     1.007825032070
           H          0.273074759821     0.202123553191     1.209461615569     1.007825032070
           C          2.779428759821    -0.437517446809     0.193388615569    12.000000000000
           H          1.398773759821    -0.939536446809    -1.380190384431     1.007825032070
           H          1.172615759821    -1.851291446809     0.084708615569     1.007825032070
           C          2.920088759821     1.050929553191     0.517542615569    12.000000000000
           H          3.504617759821    -0.696762446809    -0.574062384431     1.007825032070
           H          3.043900759821    -1.024954446809     1.070393615569     1.007825032070
           H          2.649707759821     1.663791553191    -0.338221384431     1.007825032070
           H          2.289537759821     1.347456553191     1.349199615569     1.007825032070
           H          3.944450759821     1.291871553191     0.784718615569     1.007825032070

  Charge       = 0
  Multiplicity = 1
  Basis Set: 6-31G*
  Basis Set:

    Orbital Energies (a.u.)
    -----------------------

    Doubly Occupied:

       1A    -20.551615     2A    -11.266738     3A    -11.215105
       4A    -11.214088     5A    -11.212510     6A    -11.209974
       7A    -11.207897     8A     -1.358426     9A     -1.087240
      10A     -1.032007    11A     -0.951730    12A     -0.880887
      13A     -0.809754    14A     -0.770226    15A     -0.691873
      16A     -0.663364    17A     -0.630740    18A     -0.599535
      19A     -0.582130    20A     -0.574855    21A     -0.534726
      22A     -0.527216    23A     -0.503613    24A     -0.486915
      25A     -0.484860    26A     -0.458535    27A     -0.447456
      28A     -0.443439    29A     -0.433677

  @DF-RHF Final Energy:  -310.20589934338756

   => Energetics <=

    Nuclear Repulsion Energy =            314.7816080906730463
    One-Electron Energy =               -1044.3126407903691870
    Two-Electron Energy =                 419.3251333563098342
    DFT Exchange-Correlation Energy =       0.0000000000000000
    Empirical Dispersion Energy =           0.0000000000000000
    PCM Polarization Energy =               0.0000000000000000
    EFP Energy =                            0.0000000000000000
    Total Energy =                       -310.2058993433863634

  Mulliken Charges: (a.u.)
   Center  Symbol    Alpha    Beta     Spin     Total
       1     H     0.28123  0.28123  0.00000  0.43754
       2     O     4.37188  4.37188  0.00000 -0.74376
       3     C     2.98948  2.98948  0.00000  0.02104
       4     C     3.15809  3.15809  0.00000 -0.31619
       5     H     0.43305  0.43305  0.00000  0.13390
       6     H     0.43306  0.43306  0.00000  0.13388
       7     C     3.16493  3.16493  0.00000 -0.32986
       8     H     0.41509  0.41509  0.00000  0.16983
       9     H     0.41508  0.41508  0.00000  0.16984
      10     C     3.15337  3.15337  0.00000 -0.30673
      11     H     0.42049  0.42049  0.00000  0.15901
      12     H     0.42328  0.42328  0.00000  0.15343
      13     C     3.15338  3.15338  0.00000 -0.30677
      14     H     0.42132  0.42132  0.00000  0.15737
      15     H     0.42007  0.42007  0.00000  0.15985
      16     C     3.24443  3.24443  0.00000 -0.48887
      17     H     0.42020  0.42020  0.00000  0.15959
      18     H     0.42147  0.42147  0.00000  0.15706
      19     H     0.42166  0.42166  0.00000  0.15668
      20     H     0.41977  0.41977  0.00000  0.16046
      21     H     0.41866  0.41866  0.00000  0.16269

   Total alpha = 29.00000, Total beta = 29.00000, Total charge = -0.00000
