                              Psi4 1.0.54 Driver

  ==> Input File <==

--------------------------------------------------------------------------
set {
	reference rhf
	basis cc-pvtz
}

set_num_threads( 4 )
memory 2 gb

molecule MOL {
0 1

H	 -3.162190	 0.493205	 -0.000107
C	 -2.363908	 -0.234727	 0.000005
O	 -1.158738	 0.454634	 -0.000087
H	 -2.464314	 -0.863616	 -0.882153
H	 -2.464327	 -0.863359	 0.882345
C	 -0.028611	 -0.359694	 0.000037
C	 0.215939	 -0.873984	 1.404350
H	 0.837328	 0.202481	 -0.350315
H	 -0.169386	 -1.194693	 -0.686696
C	 1.441290	 -1.777187	 1.488556
H	 0.331839	 -0.024304	 2.068078
H	 -0.666846	 -1.410408	 1.734340
H	 2.341043	 -1.252169	 1.185424
H	 1.592405	 -2.129748	 2.501416
H	 1.335561	 -2.647675	 0.849696

	symmetry c1
}
set optking {
	frozen_dihedral = ("
		8 6 3 2
	")
}

ee,wfn = optimize('scf', return_wfn=True)
oeprop( wfn, 'DIPOLE', 'QUADRUPOLE', 'MULLIKEN_CHARGES')
f=open( 'psi4out.xyz', 'w' )
f.write( "15  " )
f.write( str(ee) + "\n" )
f.write( MOL.save_string_xyz() )
f.close()
--------------------------------------------------------------------------

    Molecular point group: c1
  Charge       = 0
  Multiplicity = 1
  Basis Set: CC-PVTZ
  Basis Set:
  @DF-RHF Final Energy:  -232.22306837202999
    Total Energy =                       -232.2230683720299567
    Molecular point group: c1
  Basis Set: CC-PVTZ
  Basis Set:
  Basis Set: CC-PVTZ
  Basis Set:
  @DF-RHF Final Energy:  -231.74974495628291
    Total Energy =                       -231.7497449562830525
  Basis Set: CC-PVTZ
  Basis Set:
  Basis Set: CC-PVTZ
  Basis Set:
  @DF-RHF Final Energy:  -231.91664143919454
    Total Energy =                       -231.9166414391945352
  Basis Set: CC-PVTZ
  Basis Set:
  Basis Set: CC-PVTZ
  Basis Set:
  @DF-RHF Final Energy:  -232.15188163801028
    Total Energy =                       -232.1518816380103658
  Basis Set: CC-PVTZ
  Basis Set:
  @DF-RHF Final Energy:  -232.21781802030060
    Total Energy =                       -232.2178180203005127
  @DF-RHF Final Energy:  -232.22499536097826
    Total Energy =                       -232.2249953609781983
  Basis Set: CC-PVTZ
  Basis Set:
  @DF-RHF Final Energy:  -232.22530006633724
    Total Energy =                       -232.2253000663371836
  Basis Set: CC-PVTZ
  Basis Set:
  Basis Set: CC-PVTZ
  Basis Set:
  @DF-RHF Final Energy:  -232.22531989096404
    Total Energy =                       -232.2253198909641583
  Basis Set: CC-PVTZ
  Basis Set:
  Basis Set: CC-PVTZ
  Basis Set:
  @DF-RHF Final Energy:  -232.22532147305378
    Total Energy =                       -232.2253214730538957
  Basis Set: CC-PVTZ
  Basis Set:
  Charge       = 0
  Multiplicity = 1
  Basis Set: CC-PVTZ
  Basis Set:

    Orbital Energies (a.u.)
    -----------------------

    Doubly Occupied:

       1A    -20.545876     2A    -11.264277     3A    -11.261197
       4A    -11.214754     5A    -11.212622     6A     -1.378192
       7A     -1.057414     8A     -0.959753     9A     -0.882583
      10A     -0.805925    11A     -0.670865    12A     -0.658618
      13A     -0.637155    14A     -0.601984    15A     -0.566326
      16A     -0.532676    17A     -0.519560    18A     -0.498077
      19A     -0.484455    20A     -0.458448    21A     -0.408887

  @DF-RHF Final Energy:  -232.22532162475522

   => Energetics <=

    Nuclear Repulsion Energy =            191.6080959244462747
    One-Electron Energy =                -694.4275500082649160
    Two-Electron Energy =                 270.5941324590634167
    DFT Exchange-Correlation Energy =       0.0000000000000000
    Empirical Dispersion Energy =           0.0000000000000000
    PCM Polarization Energy =               0.0000000000000000
    EFP Energy =                            0.0000000000000000
    Total Energy =                       -232.2253216247552245
    Molecular point group: c1
  Basis Set: CC-PVTZ
  Basis Set:

  -Total Gradient:
     Atom            X                  Y                   Z
    ------   -----------------  -----------------  -----------------
       1        0.000005558136     0.000004661801     0.000002231596
       2        0.000020286908     0.000002039125     0.000113393967
       3       -0.000023083193     0.000006979516    -0.000138657492
       4       -0.000000680259    -0.000004057304    -0.000000271182
       5       -0.000004352489    -0.000000258954    -0.000001833439
       6       -0.000012427896    -0.000057873360    -0.000091895827
       7       -0.000001743678    -0.000002114533     0.000000411842
       8        0.000022065587     0.000056771629     0.000124819950
       9        0.000002672020    -0.000008235946    -0.000005108811
      10       -0.000004578995     0.000006144645    -0.000002763281
      11       -0.000002999236     0.000003767722     0.000007289467
      12       -0.000002534124    -0.000004723750     0.000003196155
      13        0.000004222229     0.000005327222    -0.000001587254
      14       -0.000008206580     0.000000069227    -0.000007003472
      15        0.000005801572    -0.000008497039    -0.000002222218

  **** Optimization is complete! (in 10 steps) ****
    Final optimized geometry and variables:
    Molecular point group: c1

    Geometry (in Angstrom), charge = 0, multiplicity = 1:

    H           -3.026746154231    -0.555506772174    -0.056979559033
    C           -1.975778011790    -0.791774310463    -0.141749671955
    O           -1.292636126547     0.402995061346    -0.337144881629
    H           -1.838403701998    -1.468238323453    -0.982737817282
    H           -1.665601985556    -1.302838436373     0.764906022529
    C            0.079030306319     0.294533992111    -0.573349661564
    C            0.903333726034     0.086937950819     0.689951938859
    H            0.376079662528     1.222740833198    -1.045969405216
    H            0.274325824554    -0.508095544223    -1.284022929777
    C            2.400233356589     0.071988792524     0.397225484797
    H            0.667591118232     0.883718547392     1.387429469383
    H            0.621046960579    -0.843877838351     1.170156054074
    H            2.721771966538     1.004442108261    -0.054530484309
    H            2.972970403571    -0.068327176022     1.305798288770
    H            2.661281964365    -0.731599689118    -0.283585783882

  Mulliken Charges: (a.u.)
   Center  Symbol    Alpha    Beta     Spin     Total
       1     H     0.44540  0.44540  0.00000  0.10920
       2     C     3.03334  3.03334  0.00000 -0.06668
       3     O     4.17757  4.17757  0.00000 -0.35513
       4     H     0.47195  0.47195  0.00000  0.05609
       5     H     0.47128  0.47128  0.00000  0.05744
       6     C     2.97617  2.97617  0.00000  0.04766
       7     C     3.08622  3.08622  0.00000 -0.17243
       8     H     0.44890  0.44890  0.00000  0.10221
       9     H     0.47292  0.47292  0.00000  0.05415
      10     C     3.15309  3.15309  0.00000 -0.30618
      11     H     0.45049  0.45049  0.00000  0.09903
      12     H     0.45678  0.45678  0.00000  0.08643
      13     H     0.45381  0.45381  0.00000  0.09238
      14     H     0.44669  0.44669  0.00000  0.10662
      15     H     0.45539  0.45539  0.00000  0.08922

   Total alpha = 21.00000, Total beta = 21.00000, Total charge = -0.00000

*** Psi4 exiting successfully. Buy a developer a beer!
