  ==> Input File <==

--------------------------------------------------------------------------
set {
	reference rhf
	basis 6-31G*
}

set_num_threads( 1 )
memory 2 gb

molecule MOL {
0 1

O	 3.325736	 0.596238	 -1.002189
C	 2.843464	 0.164689	 -0.000222
C	 1.546494	 -0.624492	 -0.000609
C	 3.500823	 0.379019	 1.347775
C	 0.291004	 0.242674	 0.000989
H	 1.557904	 -1.283758	 -0.867573
H	 1.558622	 -1.285963	 0.864672
C	 -0.994322	 -0.586602	 0.000262
H	 0.309117	 0.896430	 -0.865270
H	 0.309661	 0.894078	 0.869017
C	 -2.259874	 0.272531	 0.000494
H	 -1.004862	 -1.240012	 -0.870939
H	 -1.005220	 -1.241071	 0.870675
C	 -3.549786	 -0.549746	 -0.000374
H	 -2.250389	 0.926680	 -0.869574
H	 -2.250838	 0.925513	 0.871430
C	 -4.809590	 0.315458	 -0.000369
H	 -3.560515	 -1.202009	 -0.871156
H	 -3.561123	 -1.202955	 0.869711
H	 -4.844746	 0.956611	 -0.876632
H	 -5.706986	 -0.295590	 -0.001609
H	 -4.845960	 0.954827	 0.877144
H	 3.730314	 -0.574951	 1.813494
H	 4.411491	 0.948226	 1.223184
H	 2.829704	 0.910606	 2.016094

	symmetry c1
}
set optking {
	frozen_dihedral = ("
		9 5 8 12,
		15 11 8 12,
		15 11 14 18,
		9 5 3 6
	")
}

ee = energy('scf')
oeprop('DIPOLE', 'QUADRUPOLE', 'MULLIKEN_CHARGES')
f=open( 'psi4out.xyz', 'w' )
f.write( "25  " )
f.write( str(ee) + "\n" )
f.write( MOL.save_string_xyz() )
f.close()
--------------------------------------------------------------------------

    Molecular point group: c1

    Geometry (in Angstrom), charge = 0, multiplicity = 1:

       Center              X                  Y                   Z               Mass
    ------------   -----------------  -----------------  -----------------  -----------------
           O          3.344643967950     0.565183836494    -1.043069620471    15.994914619560
           C          2.862371967950     0.133634836494    -0.041102620471    12.000000000000
           C          1.565401967950    -0.655546163506    -0.041489620471    12.000000000000
           C          3.519730967950     0.347964836494     1.306894379529    12.000000000000
           C          0.309911967950     0.211619836494    -0.039891620471    12.000000000000
           H          1.576811967950    -1.314812163506    -0.908453620471     1.007825032070
           H          1.577529967950    -1.317017163506     0.823791379529     1.007825032070
           C         -0.975414032050    -0.617656163506    -0.040618620471    12.000000000000
           H          0.328024967950     0.865375836494    -0.906150620471     1.007825032070
           H          0.328568967950     0.863023836494     0.828136379529     1.007825032070
           C         -2.240966032050     0.241476836494    -0.040386620471    12.000000000000
           H         -0.985954032050    -1.271066163506    -0.911819620471     1.007825032070
           H         -0.986312032050    -1.272125163506     0.829794379529     1.007825032070
           C         -3.530878032050    -0.580800163506    -0.041254620471    12.000000000000
           H         -2.231481032050     0.895625836494    -0.910454620471     1.007825032070
           H         -2.231930032050     0.894458836494     0.830549379529     1.007825032070
           C         -4.790682032050     0.284403836494    -0.041249620471    12.000000000000
           H         -3.541607032050    -1.233063163506    -0.912036620471     1.007825032070
           H         -3.542215032050    -1.234009163506     0.828830379529     1.007825032070
           H         -4.825838032050     0.925556836494    -0.917512620471     1.007825032070
           H         -5.688078032050    -0.326644163506    -0.042489620471     1.007825032070
           H         -4.827052032050     0.923772836494     0.836263379529     1.007825032070
           H          3.749221967950    -0.606005163506     1.772613379529     1.007825032070
           H          4.430398967950     0.917171836494     1.182303379529     1.007825032070
           H          2.848611967950     0.879551836494     1.975213379529     1.007825032070

  Charge       = 0
  Multiplicity = 1
  Basis Set: 6-31G*
  Basis Set:

    Orbital Energies (a.u.)
    -----------------------

    Doubly Occupied:

       1A    -20.548369     2A    -11.324563     3A    -11.230569
       4A    -11.229288     5A    -11.227199     6A    -11.223211
       7A    -11.219204     8A    -11.218539     9A    -11.211388
      10A     -1.393486    11A     -1.100168    12A     -1.060286
      13A     -1.013226    14A     -0.970595    15A     -0.894837
      16A     -0.820195    17A     -0.796217    18A     -0.732266
      19A     -0.666842    20A     -0.647037    21A     -0.637849
      22A     -0.610611    23A     -0.605040    24A     -0.587223
      25A     -0.568558    26A     -0.557503    27A     -0.543152
      28A     -0.540243    29A     -0.507293    30A     -0.500954
      31A     -0.489491    32A     -0.476113    33A     -0.468928
      34A     -0.467268    35A     -0.455095    36A     -0.395590

  @DF-RHF Final Energy:  -387.13358958198449

   => Energetics <=

    Nuclear Repulsion Energy =            438.2982604988905564
    One-Electron Energy =               -1392.9869138758199369
    Two-Electron Energy =                 567.5550637949435213
    DFT Exchange-Correlation Energy =       0.0000000000000000
    Empirical Dispersion Energy =           0.0000000000000000
    PCM Polarization Energy =               0.0000000000000000
    EFP Energy =                            0.0000000000000000
    Total Energy =                       -387.1335895819858024

  Mulliken Charges: (a.u.)
   Center  Symbol    Alpha    Beta     Spin     Total
       1     O     4.26008  4.26008  0.00000 -0.52016
       2     C     2.73738  2.73738  0.00000  0.52525
       3     C     3.20107  3.20107  0.00000 -0.40214
       4     C     3.29010  3.29010  0.00000 -0.58020
       5     C     3.15910  3.15910  0.00000 -0.31820
       6     H     0.40194  0.40194  0.00000  0.19612
       7     H     0.41832  0.41832  0.00000  0.16335
       8     C     3.15291  3.15291  0.00000 -0.30581
       9     H     0.40727  0.40727  0.00000  0.18545
      10     H     0.42023  0.42023  0.00000  0.15953
      11     C     3.15170  3.15170  0.00000 -0.30340
      12     H     0.41970  0.41970  0.00000  0.16061
      13     H     0.42271  0.42271  0.00000  0.15458
      14     C     3.15198  3.15198  0.00000 -0.30395
      15     H     0.42151  0.42151  0.00000  0.15698
      16     H     0.42361  0.42361  0.00000  0.15277
      17     C     3.23954  3.23954  0.00000 -0.47908
      18     H     0.42214  0.42214  0.00000  0.15572
      19     H     0.42308  0.42308  0.00000  0.15384
      20     H     0.42091  0.42091  0.00000  0.15819
      21     H     0.41866  0.41866  0.00000  0.16268
      22     H     0.42164  0.42164  0.00000  0.15673
      23     H     0.40841  0.40841  0.00000  0.18319
      24     H     0.39734  0.39734  0.00000  0.20532
      25     H     0.40869  0.40869  0.00000  0.18263

   Total alpha = 36.00000, Total beta = 36.00000, Total charge =  0.00000
