  ==> Input File <==

--------------------------------------------------------------------------
set {
	reference rhf
	basis cc-pvtz
}

set_num_threads( 4 )
memory 2 gb

molecule MOL {
0 1

O	 1.607598	 -0.375674	 -0.281966
C	 0.576499	 0.134701	 -0.003900
C	 -0.765656	 -0.550508	 -0.002152
O	 0.466774	 1.407053	 0.341143
C	 -1.945526	 0.411052	 0.000603
H	 -0.794329	 -1.203792	 -0.868145
H	 -0.791555	 -1.205429	 0.862701
C	 -3.282915	 -0.321280	 0.002596
H	 -1.880300	 1.059126	 -0.864925
H	 -1.877207	 1.057892	 0.866807
H	 -3.388495	 -0.952755	 -0.873419
H	 -4.107811	 0.380864	 0.004116
H	 -3.385717	 -0.953283	 0.878571
C	 1.653301	 2.174451	 0.376688
H	 2.351648	 1.763447	 1.090440
H	 1.356419	 3.166672	 0.675096
H	 2.119094	 2.201416	 -0.597146

	symmetry c1
}
set optking {
	frozen_dihedral = ("
		1 2 3 6
	")
}

ee = optimize('scf')
oeprop('DIPOLE', 'QUADRUPOLE', 'MULLIKEN_CHARGES')
f=open( 'psi4out.xyz', 'w' )
f.write( "17  " )
f.write( str(ee) + "\n" )
f.write( MOL.save_string_xyz() )
f.close()
--------------------------------------------------------------------------

    Molecular point group: c1
  Charge       = 0
  Multiplicity = 1
  Basis Set: CC-PVTZ
  Basis Set:
  @DF-RHF Final Energy:  -345.03169427887372
    Total Energy =                       -345.0316942788732035
    Molecular point group: c1
  Basis Set: CC-PVTZ
  Basis Set:
  Basis Set: CC-PVTZ
  Basis Set:
  @DF-RHF Final Energy:  -345.03186085560304
    Total Energy =                       -345.0318608556029858
  Basis Set: CC-PVTZ
  Basis Set:
  Basis Set: CC-PVTZ
  Basis Set:
  @DF-RHF Final Energy:  -345.03282131842906
    Total Energy =                       -345.0328213184293418
  Basis Set: CC-PVTZ
  Basis Set:
  Basis Set: CC-PVTZ
  Basis Set:
  @DF-RHF Final Energy:  -345.03291632818389
    Total Energy =                       -345.0329163281841147
  Basis Set: CC-PVTZ
  Basis Set:
  Basis Set: CC-PVTZ
  Basis Set:
  @DF-RHF Final Energy:  -345.03296750538175
    Total Energy =                       -345.0329675053816345
  Basis Set: CC-PVTZ
  Basis Set:
  Charge       = 0
  Multiplicity = 1
  Basis Set: CC-PVTZ
  Basis Set:

    Orbital Energies (a.u.)
    -----------------------

    Doubly Occupied:

       1A    -20.599452     2A    -20.530174     3A    -11.365175
       4A    -11.279653     5A    -11.234542     6A    -11.224812
       7A    -11.215205     8A     -1.473633     9A     -1.364536
      10A     -1.084200    11A     -0.998538    12A     -0.944029
      13A     -0.832233    14A     -0.777130    15A     -0.698919
      16A     -0.686878    17A     -0.674664    18A     -0.639230
      19A     -0.597333    20A     -0.573499    21A     -0.559079
      22A     -0.533010    23A     -0.524519    24A     -0.518064
      25A     -0.490379    26A     -0.484369    27A     -0.456669
      28A     -0.434049

  @DF-RHF Final Energy:  -345.03298639035143

   => Energetics <=

    Nuclear Repulsion Energy =            314.8181739460449080
    One-Electron Energy =               -1094.1143783256786719
    Two-Electron Energy =                 434.2632179892821114
    DFT Exchange-Correlation Energy =       0.0000000000000000
    Empirical Dispersion Energy =           0.0000000000000000
    PCM Polarization Energy =               0.0000000000000000
    EFP Energy =                            0.0000000000000000
    Total Energy =                       -345.0329863903516525
    Molecular point group: c1
  Basis Set: CC-PVTZ
  Basis Set:

  -Total Gradient:
     Atom            X                  Y                   Z
    ------   -----------------  -----------------  -----------------
       1       -0.000002350627    -0.000080118975     0.000661065574
       2       -0.000052364592     0.000066795393    -0.001040653855
       3        0.000353704963    -0.000673466682     0.000750954831
       4        0.000050057424     0.000190197172     0.000046230072
       5       -0.000018556116     0.000024066532    -0.000050012951
       6       -0.000279035326     0.000499587198    -0.000361165700
       7       -0.000004705540     0.000017812986    -0.000006099210
       8       -0.000009661418    -0.000013095862    -0.000004454520
       9       -0.000001565491    -0.000002955655     0.000005169793
      10        0.000017552506    -0.000020737718    -0.000004466574
      11       -0.000005046242    -0.000000206234     0.000005036728
      12       -0.000016571191    -0.000002497745     0.000004206153
      13        0.000003695233     0.000002734482    -0.000002723031
      14       -0.000070563937    -0.000033758999    -0.000006993947
      15        0.000008695509     0.000003981345     0.000002978208
      16        0.000013597400     0.000012155902     0.000002628094
      17        0.000013117453     0.000009506863    -0.000001699663

  **** Optimization is complete! (in 6 steps) ****
    Final optimized geometry and variables:
    Molecular point group: c1

    Geometry (in Angstrom), charge = 0, multiplicity = 1:

    O            1.790465360678    -0.817272576062    -0.342932597916
    C            0.784414796618    -0.253473470710    -0.072478993805
    C           -0.565511871007    -0.932050864105    -0.055999843533
    O            0.742695835919     1.020191199608     0.272647195205
    C           -1.793980674931    -0.028070533762    -0.058019482381
    H           -0.575875145337    -1.598398875868    -0.909293426216
    H           -0.566261670244    -1.568054290110     0.824297930979
    C           -3.088672574670    -0.833876713267    -0.077543566190
    H           -1.760430911560     0.627150175064    -0.921595003310
    H           -1.775810150892     0.614357538290     0.813082008747
    H           -3.148580084667    -1.463006406267    -0.959228764091
    H           -3.951995970655    -0.179349675628    -0.079243498683
    H           -3.163706255000    -1.477744375865     0.792498237170
    C            1.970310985695     1.720447866221     0.312476526318
    H            2.641362383352     1.271068233677     1.029119351344
    H            1.728037702234     2.728161093292     0.608606106344
    H            2.440474413990     1.719166130759    -0.659465562094

  Mulliken Charges: (a.u.)
   Center  Symbol    Alpha    Beta     Spin     Total
       1     O     4.20366  4.20366  0.00000 -0.40732
       2     C     2.81310  2.81310  0.00000  0.37380
       3     C     3.08681  3.08681  0.00000 -0.17361
       4     O     4.14168  4.14168  0.00000 -0.28335
       5     C     3.08069  3.08069  0.00000 -0.16138
       6     H     0.43710  0.43710  0.00000  0.12580
       7     H     0.44259  0.44259  0.00000  0.11482
       8     C     3.15245  3.15245  0.00000 -0.30491
       9     H     0.44997  0.44997  0.00000  0.10006
      10     H     0.44674  0.44674  0.00000  0.10651
      11     H     0.45431  0.45431  0.00000  0.09138
      12     H     0.44605  0.44605  0.00000  0.10790
      13     H     0.45481  0.45481  0.00000  0.09038
      14     C     3.03649  3.03649  0.00000 -0.07298
      15     H     0.45341  0.45341  0.00000  0.09317
      16     H     0.44681  0.44681  0.00000  0.10639
      17     H     0.45333  0.45333  0.00000  0.09334

   Total alpha = 28.00000, Total beta = 28.00000, Total charge = -0.00000
