  ==> Input File <==

--------------------------------------------------------------------------
set {
	reference rhf
	basis 6-31G*
}

set_num_threads( 4 )
memory 2 gb

molecule MOL {
0 1

O	 0.075060	 1.261470	 -0.055328
C	 0.028650	 0.075053	 -0.000277
C	 -1.233602	 -0.752807	 0.000328
O	 1.108076	 -0.692911	 0.070235
C	 -2.501530	 0.091881	 0.000126
H	 -1.193807	 -1.406641	 -0.865785
H	 -1.193516	 -1.405779	 0.867015
H	 -2.545121	 0.729328	 -0.874513
H	 -3.377167	 -0.548497	 0.000561
H	 -2.544818	 0.730135	 0.874258
C	 2.363502	 -0.037608	 0.078717
H	 2.497843	 0.537372	 -0.826138
H	 3.104141	 -0.819762	 0.138327
H	 2.443196	 0.619704	 0.932568

	symmetry c1
}
set optking {
	frozen_dihedral = ("
		4 2 3 6
	")
}

ee = optimize('scf')
oeprop('DIPOLE', 'QUADRUPOLE', 'MULLIKEN_CHARGES')
f=open( 'psi4out.xyz', 'w' )
f.write( "14  " )
f.write( str(ee) + "\n" )
f.write( MOL.save_string_xyz() )
f.close()
--------------------------------------------------------------------------

    Molecular point group: c1
  Charge       = 0
  Multiplicity = 1
  Basis Set: 6-31G*
  Basis Set:
  @DF-RHF Final Energy:  -305.87218966459318
    Total Energy =                       -305.8721896645931793
    Molecular point group: c1
  Basis Set: 6-31G*
  Basis Set:
  Basis Set: 6-31G*
  Basis Set:
  @DF-RHF Final Energy:  -305.87218364945807
    Total Energy =                       -305.8721836494581794
  Basis Set: 6-31G*
  Basis Set:
  Basis Set: 6-31G*
  Basis Set:
  @DF-RHF Final Energy:  -305.87218843772814
    Total Energy =                       -305.8721884377280276
  Basis Set: 6-31G*
  Basis Set:
  Charge       = 0
  Multiplicity = 1
  Basis Set: 6-31G*
  Basis Set:

    Orbital Energies (a.u.)
    -----------------------

    Doubly Occupied:

       1A    -20.604566     2A    -20.546346     3A    -11.372938
       4A    -11.281499     5A    -11.238764     6A    -11.216679
       7A     -1.470250     8A     -1.363771     9A     -1.064447
      10A     -0.980340    11A     -0.878343    12A     -0.768928
      13A     -0.700767    14A     -0.682921    15A     -0.671757
      16A     -0.621319    17A     -0.602588    18A     -0.544098
      19A     -0.537428    20A     -0.522015    21A     -0.514210
      22A     -0.496428    23A     -0.457345    24A     -0.439394

  @DF-RHF Final Energy:  -305.87219380326428

   => Energetics <=

    Nuclear Repulsion Energy =            247.1381711614913854
    One-Electron Energy =                -906.8664489510392741
    Two-Electron Energy =                 353.8560839862836929
    DFT Exchange-Correlation Energy =       0.0000000000000000
    Empirical Dispersion Energy =           0.0000000000000000
    PCM Polarization Energy =               0.0000000000000000
    EFP Energy =                            0.0000000000000000
    Total Energy =                       -305.8721938032641674
    Molecular point group: c1
  Basis Set: 6-31G*
  Basis Set:

  -Total Gradient:
     Atom            X                  Y                   Z
    ------   -----------------  -----------------  -----------------
       1        0.000000939121     0.000005735509    -0.000030270602
       2       -0.000012296949     0.000010085910    -0.000134137405
       3        0.000090699139    -0.000139203628     0.000131094703
       4       -0.000005711717     0.000006233306     0.000104962325
       5        0.000005455248    -0.000006991625    -0.000002109159
       6       -0.000081537799     0.000126690022    -0.000086119474
       7        0.000000647304    -0.000007825434     0.000012999866
       8       -0.000006233952     0.000002916319    -0.000002172094
       9       -0.000000259415     0.000002275945    -0.000005329210
      10        0.000004406615    -0.000001753954    -0.000001347500
      11        0.000005328659     0.000003793457     0.000033248047
      12       -0.000006379276    -0.000000369633    -0.000007414083
      13       -0.000000355833    -0.000000246810    -0.000006301629
      14        0.000005298851    -0.000001339383    -0.000007103785

  **** Optimization is complete! (in 4 steps) ****
    Final optimized geometry and variables:
    Molecular point group: c1

    Geometry (in Angstrom), charge = 0, multiplicity = 1:

    O            0.074989853594     1.261074280045    -0.068519305727
    C            0.028801808779     0.074709264390    -0.012443290304
    C           -1.233288881412    -0.753470142558    -0.014143166621
    O            1.108457566197    -0.693150865964     0.056390038464
    C           -2.501179146532     0.091383982196    -0.020674255160
    H           -1.190354795244    -1.404099803752    -0.882872676792
    H           -1.197000209094    -1.408671848133     0.850582568201
    H           -2.538395816421     0.731276180063    -0.893674038337
    H           -3.376795918792    -0.548890345974    -0.027712259490
    H           -2.550729624527     0.727181093214     0.855105967376
    C            2.363951427910    -0.038000753914     0.057082901614
    H            2.494409595369     0.534031533238    -0.850259862360
    H            3.104820558053    -0.819999981334     0.115974236976
    H            2.447445013794     0.622080999141     0.908405209864

  Mulliken Charges: (a.u.)
   Center  Symbol    Alpha    Beta     Spin     Total
       1     O     4.28521  4.28521  0.00000 -0.57042
       2     C     2.60828  2.60828  0.00000  0.78344
       3     C     3.20510  3.20510  0.00000 -0.41020
       4     O     4.30592  4.30592  0.00000 -0.61185
       5     C     3.23900  3.23900  0.00000 -0.47800
       6     H     0.40011  0.40011  0.00000  0.19978
       7     H     0.40025  0.40025  0.00000  0.19949
       8     H     0.40914  0.40914  0.00000  0.18172
       9     H     0.41789  0.41789  0.00000  0.16422
      10     H     0.41054  0.41054  0.00000  0.17893
      11     C     3.09233  3.09233  0.00000 -0.18467
      12     H     0.40898  0.40898  0.00000  0.18204
      13     H     0.40838  0.40838  0.00000  0.18325
      14     H     0.40887  0.40887  0.00000  0.18227

   Total alpha = 24.00000, Total beta = 24.00000, Total charge =  0.00000
