                              Psi4 1.0.54 Driver

  ==> Input File <==

--------------------------------------------------------------------------
set {
	reference rhf
	basis cc-pvtz
}

set_num_threads( 4 )
memory 2 gb

molecule MOL {
0 1

O	 1.847685	 1.294399	 -0.000190
C	 1.704209	 0.119472	 -0.000093
C	 0.380337	 -0.600947	 -0.000234
O	 2.715427	 -0.733672	 0.000025
C	 -0.824290	 0.329213	 -0.000115
H	 0.371455	 -1.255476	 -0.865660
H	 0.371410	 -1.255787	 0.864952
C	 -1.758029	 0.069973	 -1.178650
H	 -0.481682	 1.357541	 -0.020993
H	 -1.366036	 0.212085	 0.931594
C	 -2.972812	 0.993280	 -1.195280
H	 -1.207952	 0.186610	 -2.109811
H	 -2.095445	 -0.963836	 -1.153608
C	 -3.905814	 0.734560	 -2.373407
H	 -2.636983	 2.026092	 -1.221261
H	 -3.523881	 0.876423	 -0.266395
H	 -3.392304	 0.877333	 -3.318477
H	 -4.756335	 1.406137	 -2.355167
H	 -4.286531	 -0.281304	 -2.355848
C	 4.020999	 -0.192556	 0.000019
H	 4.182809	 0.412891	 -0.879449
H	 4.692590	 -1.035653	 0.000152
H	 4.182726	 0.413087	 0.879368

	symmetry c1
}
set optking {
	frozen_dihedral = ("
		9 5 3 6
	")
}

ee,wfn = optimize('scf', return_wfn=True)
oeprop( wfn, 'DIPOLE', 'QUADRUPOLE', 'MULLIKEN_CHARGES')
f=open( 'psi4out.xyz', 'w' )
f.write( "23  " )
f.write( str(ee) + "\n" )
f.write( MOL.save_string_xyz() )
f.close()
--------------------------------------------------------------------------

    Molecular point group: c1
  Charge       = 0
  Multiplicity = 1
  Basis Set: CC-PVTZ
  Basis Set:
  @DF-RHF Final Energy:  -423.12622104715592
    Total Energy =                       -423.1262210471558092
    Molecular point group: c1
  Basis Set: CC-PVTZ
  Basis Set:
  Basis Set: CC-PVTZ
  Basis Set:
  @DF-RHF Final Energy:  -423.12650082636998
    Total Energy =                       -423.1265008263696927
  Basis Set: CC-PVTZ
  Basis Set:
  Basis Set: CC-PVTZ
  Basis Set:
  @DF-RHF Final Energy:  -423.12645155233105
    Total Energy =                       -423.1264515523307637
  Basis Set: CC-PVTZ
  Basis Set:
  Basis Set: CC-PVTZ
  Basis Set:
  @DF-RHF Final Energy:  -423.12659449642842
    Total Energy =                       -423.1265944964278560
  Basis Set: CC-PVTZ
  Basis Set:
  Basis Set: CC-PVTZ
  Basis Set:
  @DF-RHF Final Energy:  -423.12659765127012
    Total Energy =                       -423.1265976512705720
  Basis Set: CC-PVTZ
  Basis Set:
  Basis Set: CC-PVTZ
  Basis Set:
  @DF-RHF Final Energy:  -423.12659974880421
    Total Energy =                       -423.1265997488037556
  Basis Set: CC-PVTZ
  Basis Set:
  Basis Set: CC-PVTZ
  Basis Set:
  @DF-RHF Final Energy:  -423.12660108529144
    Total Energy =                       -423.1266010852907584
  Basis Set: CC-PVTZ
  Basis Set:
  Charge       = 0
  Multiplicity = 1
  Basis Set: CC-PVTZ
  Basis Set:

    Orbital Energies (a.u.)
    -----------------------

    Doubly Occupied:

       1A    -20.596583     2A    -20.535033     3A    -11.365552
       4A    -11.278719     5A    -11.233715     6A    -11.215472
       7A    -11.214589     8A    -11.213191     9A    -11.206748
      10A     -1.472881    11A     -1.366393    12A     -1.091934
      13A     -1.043562    14A     -0.987569    15A     -0.932080
      16A     -0.844590    17A     -0.795286    18A     -0.769016
      19A     -0.703296    20A     -0.684389    21A     -0.676176
      22A     -0.645238    23A     -0.611822    24A     -0.600988
      25A     -0.571577    26A     -0.558958    27A     -0.556436
      28A     -0.530125    29A     -0.524873    30A     -0.500799
      31A     -0.486907    32A     -0.468022    33A     -0.463748
      34A     -0.461615    35A     -0.456481    36A     -0.441369

  @DF-RHF Final Energy:  -423.12660169628526

   => Energetics <=

    Nuclear Repulsion Energy =            455.0334996606590607
    One-Electron Energy =               -1478.1087399406585519
    Two-Electron Energy =                 599.9486385837144553
    DFT Exchange-Correlation Energy =       0.0000000000000000
    Empirical Dispersion Energy =           0.0000000000000000
    PCM Polarization Energy =               0.0000000000000000
    EFP Energy =                            0.0000000000000000
    Total Energy =                       -423.1266016962849790
    Molecular point group: c1
  Basis Set: CC-PVTZ
  Basis Set:

  -Total Gradient:
     Atom            X                  Y                   Z
    ------   -----------------  -----------------  -----------------
       1        0.000057121163    -0.000014306736     0.000003593300
       2       -0.000110914533     0.000069460221    -0.000008232139
       3        0.000145125775     0.000227451281    -0.000114248694
       4        0.000076211969    -0.000031672393     0.000003972411
       5       -0.000026385537    -0.000041444166    -0.000281932287
       6       -0.000146383698    -0.000195512795     0.000147831387
       7        0.000006403603     0.000003855213     0.000001931050
       8       -0.000001535017     0.000000204736    -0.000020857356
       9       -0.000000097247    -0.000010411335     0.000276465038
      10        0.000000395772    -0.000005806219    -0.000001970371
      11        0.000003301096     0.000005050563     0.000001518050
      12       -0.000003423611     0.000002336865    -0.000006738719
      13        0.000000397243    -0.000001535610    -0.000004692493
      14       -0.000003475735    -0.000006511577     0.000002233367
      15        0.000003838067    -0.000000367358    -0.000002985103
      16       -0.000002180806    -0.000000569712     0.000001635140
      17        0.000002225799     0.000001955245     0.000000726671
      18        0.000000796787     0.000000992086     0.000004834927
      19       -0.000000753070    -0.000003290755    -0.000001468572
      20       -0.000037477024    -0.000024310402    -0.000002694227
      21        0.000009564847     0.000012095677    -0.000010292395
      22        0.000019699010    -0.000001101974     0.000000890241
      23        0.000007545149     0.000013439143     0.000010480776

  **** Optimization is complete! (in 8 steps) ****
    Final optimized geometry and variables:
    Molecular point group: c1

    Geometry (in Angstrom), charge = 0, multiplicity = 1:

    O            1.706481204965     1.074654109307     0.470049372131
    C            1.543813858572    -0.096197685934     0.528850186881
    C            0.214362171354    -0.812014793268     0.522418365958
    O            2.543117474438    -0.960374781402     0.601774455900
    C           -1.014608972392     0.106656118545     0.508858094433
    H            0.229098196460    -1.466268265711    -0.342736867439
    H            0.214402717304    -1.474203095885     1.379603008253
    C           -1.944388507559    -0.149447387733    -0.675134731678
    H           -0.685876065729     1.136394357105     0.493762019408
    H           -1.569818829645    -0.025640013190     1.431184699613
    C           -3.172793841085     0.754626381294    -0.679161056161
    H           -1.390621571732    -0.006052273133    -1.600145108338
    H           -2.264481268636    -1.189181853836    -0.669174560041
    C           -4.098071071876     0.502992105759    -1.864995446266
    H           -2.852268998853     1.792467029892    -0.685228713243
    H           -3.725667256479     0.612230613626     0.245461627470
    H           -3.583833871469     0.672076275120    -2.805220929465
    H           -4.959422020163     1.160334118856    -1.837044229713
    H           -4.462336516302    -0.519095420378    -1.867935828208
    C            3.855757418050    -0.436849407966     0.603637488942
    H            4.047507628659     0.115570576489    -0.304307916864
    H            4.515158264314    -1.287139364667     0.667930045256
    H            4.005019855820     0.215493347457     1.451211124662

  Mulliken Charges: (a.u.)
   Center  Symbol    Alpha    Beta     Spin     Total
       1     O     4.19620  4.19620  0.00000 -0.39239
       2     C     2.80009  2.80009  0.00000  0.39983
       3     C     3.11271  3.11271  0.00000 -0.22542
       4     O     4.14716  4.14716  0.00000 -0.29432
       5     C     3.09712  3.09712  0.00000 -0.19425
       6     H     0.43860  0.43860  0.00000  0.12280
       7     H     0.43285  0.43285  0.00000  0.13430
       8     C     3.08994  3.08994  0.00000 -0.17988
       9     H     0.43521  0.43521  0.00000  0.12958
      10     H     0.45063  0.45063  0.00000  0.09875
      11     C     3.08547  3.08547  0.00000 -0.17094
      12     H     0.45332  0.45332  0.00000  0.09337
      13     H     0.45484  0.45484  0.00000  0.09031
      14     C     3.14989  3.14989  0.00000 -0.29979
      15     H     0.45163  0.45163  0.00000  0.09674
      16     H     0.45493  0.45493  0.00000  0.09014
      17     H     0.45474  0.45474  0.00000  0.09051
      18     H     0.44811  0.44811  0.00000  0.10377
      19     H     0.45581  0.45581  0.00000  0.08839
      20     C     3.03642  3.03642  0.00000 -0.07284
      21     H     0.45451  0.45451  0.00000  0.09097
      22     H     0.44555  0.44555  0.00000  0.10891
      23     H     0.45426  0.45426  0.00000  0.09147

   Total alpha = 36.00000, Total beta = 36.00000, Total charge = -0.00000

*** Psi4 exiting successfully. Buy a developer a beer!
