  ==> Input File <==

--------------------------------------------------------------------------
set {
	reference rhf
	basis cc-pvtz
}

set_num_threads( 4 )
memory 2 gb

molecule MOL {
0 1

H	 0.856038	 -5.089585	 -2.816150
C	 0.965301	 -4.338033	 -2.043273
C	 -0.223827	 -3.383810	 -2.033989
H	 1.060975	 -4.853641	 -1.093519
H	 1.894756	 -3.809301	 -2.226504
C	 -0.111018	 -2.309672	 -0.962323
H	 -1.143714	 -3.935865	 -1.876484
H	 -0.311453	 -2.908619	 -3.008203
N	 -1.264174	 -1.435622	 -0.963929
H	 -0.048379	 -2.782173	 0.013376
H	 0.824498	 -1.758897	 -1.098486
C	 -1.215959	 -0.382435	 0.027143
H	 -1.384672	 -1.038376	 -1.872222
C	 -2.451944	 0.502410	 -0.038737
H	 -1.158706	 -0.845550	 1.007666
H	 -0.320424	 0.238067	 -0.073211
C	 -3.752217	 -0.292550	 0.005776
H	 -2.407325	 1.093801	 -0.946480
H	 -2.431979	 1.206234	 0.790023
H	 -3.817783	 -0.982946	 -0.828547
H	 -4.612613	 0.364348	 -0.042306
H	 -3.830160	 -0.871666	 0.919868

	symmetry c1
}
set optking {
	frozen_dihedral = ("
		15 12 14 18
	")
}

ee = optimize('scf')
oeprop('DIPOLE', 'QUADRUPOLE', 'MULLIKEN_CHARGES')
f=open( 'psi4out.xyz', 'w' )
f.write( "22  " )
f.write( str(ee) + "\n" )
f.write( MOL.save_string_xyz() )
f.close()
--------------------------------------------------------------------------

    Molecular point group: c1
  Charge       = 0
  Multiplicity = 1
  Basis Set: CC-PVTZ
  Basis Set:
  @DF-RHF Final Energy:  -290.48846647823552
    Total Energy =                       -290.4884664782355230
    Molecular point group: c1
  Basis Set: CC-PVTZ
  Basis Set:
  Basis Set: CC-PVTZ
  Basis Set:
  @DF-RHF Final Energy:  -290.48891144176412
    Total Energy =                       -290.4889114417640030
  Basis Set: CC-PVTZ
  Basis Set:
  Basis Set: CC-PVTZ
  Basis Set:
  @DF-RHF Final Energy:  -290.48907573555681
    Total Energy =                       -290.4890757355565825
  Basis Set: CC-PVTZ
  Basis Set:
  Basis Set: CC-PVTZ
  Basis Set:
  @DF-RHF Final Energy:  -290.48908044143514
    Total Energy =                       -290.4890804414353624
  Basis Set: CC-PVTZ
  Basis Set:
  Charge       = 0
  Multiplicity = 1
  Basis Set: CC-PVTZ
  Basis Set:

    Orbital Energies (a.u.)
    -----------------------

    Doubly Occupied:

       1A    -15.528852     2A    -11.236809     3A    -11.236784
       4A    -11.212507     5A    -11.212295     6A    -11.207905
       7A    -11.199356     8A     -1.208273     9A     -1.059244
      10A     -1.023346    11A     -0.927214    12A     -0.877412
      13A     -0.807256    14A     -0.790433    15A     -0.662258
      16A     -0.634172    17A     -0.614722    18A     -0.610829
      19A     -0.573320    20A     -0.565610    21A     -0.536497
      22A     -0.527762    23A     -0.502869    24A     -0.488977
      25A     -0.481959    26A     -0.470748    27A     -0.466179
      28A     -0.451673    29A     -0.361039

  @DF-RHF Final Energy:  -290.48908063546656

   => Energetics <=

    Nuclear Repulsion Energy =            318.0482157861295605
    One-Electron Energy =               -1022.1219880097280566
    Two-Electron Energy =                 413.5846915881321024
    DFT Exchange-Correlation Energy =       0.0000000000000000
    Empirical Dispersion Energy =           0.0000000000000000
    PCM Polarization Energy =               0.0000000000000000
    EFP Energy =                            0.0000000000000000
    Total Energy =                       -290.4890806354664505
    Molecular point group: c1
  Basis Set: CC-PVTZ
  Basis Set:

  -Total Gradient:
     Atom            X                  Y                   Z
    ------   -----------------  -----------------  -----------------
       1       -0.000002297439     0.000004342027    -0.000001005654
       2        0.000003552430     0.000012265910     0.000000687120
       3       -0.000003116392     0.000002139283    -0.000003631139
       4       -0.000002758161     0.000000354439    -0.000000361487
       5        0.000004434527    -0.000001573170     0.000001090738
       6       -0.000005584318    -0.000019076044     0.000019658346
       7       -0.000001098149     0.000004951713     0.000007368228
       8       -0.000000479706    -0.000003695248    -0.000005904782
       9        0.000008971862     0.000000391136    -0.000015419569
      10        0.000005692126    -0.000001495298     0.000007005055
      11       -0.000007132299    -0.000000002040    -0.000006476228
      12       -0.001449712561    -0.002012364651    -0.000745468987
      13       -0.000007884841     0.000005387094    -0.000001984675
      14       -0.001263925836    -0.001834753468    -0.001371193841
      15        0.001426170698     0.001994490164     0.000846103282
      16        0.000003094808    -0.000008989110    -0.000002767327
      17       -0.000001927243     0.000007902201     0.000023674671
      18        0.001311223087     0.001859407434     0.001255225174
      19       -0.000010025593     0.000001539717     0.000003417062
      20        0.000001650109    -0.000000147239    -0.000005534734
      21       -0.000000895571    -0.000005451535    -0.000002674352
      22       -0.000007951537    -0.000005623316    -0.000001806899

  **** Optimization is complete! (in 5 steps) ****
    Final optimized geometry and variables:
    Molecular point group: c1

    Geometry (in Angstrom), charge = 0, multiplicity = 1:

    H            2.067547661295    -3.414338634407    -1.952940734597
    C            2.153957400492    -2.668452123803    -1.171724646029
    C            0.960107677141    -1.720238523834    -1.184342558855
    H            2.228786901316    -3.191069220924    -0.223939959565
    H            3.084863890326    -2.133633873552    -1.327860664470
    C            1.040824288957    -0.655042715611    -0.100968546033
    H            0.039543271698    -2.278387641939    -1.054741311690
    H            0.894754277545    -1.237011050023    -2.156359045239
    N           -0.114968000426     0.214968397859    -0.124347615965
    H            1.080217849948    -1.135486998590     0.871986512741
    H            1.977188756068    -0.099317947339    -0.208389154499
    C           -0.090284753210     1.261667844376     0.873889093350
    H           -0.213162349842     0.619874027660    -1.032476077771
    C           -1.317285044821     2.164830645058     0.812381018183
    H           -0.031213907437     0.803300528610     1.856750801266
    H            0.802822759620     1.886822078315     0.785156045158
    C           -2.650489204322     1.433302419439     0.920584976566
    H           -1.282494994448     2.757604568714    -0.099039808635
    H           -1.234419741608     2.882390514272     1.623757565557
    H           -2.792169197402     0.742894597186     0.100632020591
    H           -3.474996544787     2.137501218780     0.919660197426
    H           -2.702805523072     0.862063840371     1.841659763637

  Mulliken Charges: (a.u.)
   Center  Symbol    Alpha    Beta     Spin     Total
       1     H     0.44765  0.44765  0.00000  0.10470
       2     C     3.15376  3.15376  0.00000 -0.30752
       3     C     3.08083  3.08083  0.00000 -0.16165
       4     H     0.45470  0.45470  0.00000  0.09061
       5     H     0.45609  0.45609  0.00000  0.08783
       6     C     3.02034  3.02034  0.00000 -0.04068
       7     H     0.44892  0.44892  0.00000  0.10216
       8     H     0.45971  0.45971  0.00000  0.08058
       9     N     3.63913  3.63913  0.00000 -0.27827
      10     H     0.45951  0.45951  0.00000  0.08098
      11     H     0.47508  0.47508  0.00000  0.04983
      12     C     3.03802  3.03802  0.00000 -0.07605
      13     H     0.44440  0.44440  0.00000  0.11120
      14     C     3.09096  3.09096  0.00000 -0.18192
      15     H     0.45694  0.45694  0.00000  0.08612
      16     H     0.46552  0.46552  0.00000  0.06896
      17     C     3.14189  3.14189  0.00000 -0.28377
      18     H     0.45589  0.45589  0.00000  0.08821
      19     H     0.45164  0.45164  0.00000  0.09672
      20     H     0.45000  0.45000  0.00000  0.09999
      21     H     0.45189  0.45189  0.00000  0.09621
      22     H     0.45713  0.45713  0.00000  0.08574

   Total alpha = 29.00000, Total beta = 29.00000, Total charge = -0.00000
