                              Psi4 1.0.54 Driver

  ==> Input File <==

--------------------------------------------------------------------------
set {
	reference rhf
	basis cc-pvtz
}

set_num_threads( 4 )
memory 2 gb

molecule MOL {
0 1

H	 -0.000105	 1.988529	 0.748933
O	 -0.000098	 1.879786	 -0.188206
C	 -0.000014	 0.545691	 -0.532416
C	 -1.286000	 -0.125171	 -0.046657
C	 1.286016	 -0.125031	 -0.046584
H	 0.000021	 0.481103	 -1.610604
F	 -2.271674	 0.196577	 -0.847772
F	 -1.190868	 -1.430699	 -0.030609
F	 -1.608079	 0.277242	 1.164005
F	 2.317750	 0.468717	 -0.594166
F	 1.336617	 -1.393765	 -0.365123
F	 1.414467	 -0.024806	 1.259108

	symmetry c1
}
set optking {
	frozen_dihedral = ("
		7 4 3 6
	")
}

ee,wfn = optimize('scf', return_wfn=True)
oeprop( wfn, 'DIPOLE', 'QUADRUPOLE', 'MULLIKEN_CHARGES')
f=open( 'psi4out.xyz', 'w' )
f.write( "12  " )
f.write( str(ee) + "\n" )
f.write( MOL.save_string_xyz() )
f.close()
--------------------------------------------------------------------------

    Molecular point group: c1
  Charge       = 0
  Multiplicity = 1
  Basis Set: CC-PVTZ
  Basis Set:
  @DF-RHF Final Energy:  -786.58796377248518
    Total Energy =                       -786.5879637724855229
    Molecular point group: c1
  Basis Set: CC-PVTZ
  Basis Set:
  Basis Set: CC-PVTZ
  Basis Set:
  @DF-RHF Final Energy:  -786.58842316872472
    Total Energy =                       -786.5884231687248302
  Basis Set: CC-PVTZ
  Basis Set:
  Basis Set: CC-PVTZ
  Basis Set:
  @DF-RHF Final Energy:  -786.58857350431390
    Total Energy =                       -786.5885735043138993
  Basis Set: CC-PVTZ
  Basis Set:
  Basis Set: CC-PVTZ
  Basis Set:
  @DF-RHF Final Energy:  -786.58860304118434
    Total Energy =                       -786.5886030411838874
  Basis Set: CC-PVTZ
  Basis Set:
  Basis Set: CC-PVTZ
  Basis Set:
  @DF-RHF Final Energy:  -786.58860613687330
    Total Energy =                       -786.5886061368735227
  Basis Set: CC-PVTZ
  Basis Set:
  Charge       = 0
  Multiplicity = 1
  Basis Set: CC-PVTZ
  Basis Set:

    Orbital Energies (a.u.)
    -----------------------

    Doubly Occupied:

       1A    -26.360585     2A    -26.357964     3A    -26.357390
       4A    -26.355814     5A    -26.355315     6A    -26.353145
       7A    -20.608985     8A    -11.521340     9A    -11.518693
      10A    -11.351370    11A     -1.772450    12A     -1.766392
      13A     -1.667792    14A     -1.664244    15A     -1.663402
      16A     -1.660553    17A     -1.438847    18A     -1.102478
      19A     -1.002013    20A     -0.944986    21A     -0.871774
      22A     -0.868878    23A     -0.858971    24A     -0.853039
      25A     -0.840502    26A     -0.822613    27A     -0.747287
      28A     -0.735333    29A     -0.732119    30A     -0.727263
      31A     -0.695856    32A     -0.692115    33A     -0.689280
      34A     -0.682403    35A     -0.677456    36A     -0.668103
      37A     -0.664750    38A     -0.656092    39A     -0.625322
      40A     -0.554404    41A     -0.509769

  @DF-RHF Final Energy:  -786.58860667034571

   => Energetics <=

    Nuclear Repulsion Energy =            670.9223771939194876
    One-Electron Energy =               -2429.0277969593616945
    Two-Electron Energy =                 971.5168130950966088
    DFT Exchange-Correlation Energy =       0.0000000000000000
    Empirical Dispersion Energy =           0.0000000000000000
    PCM Polarization Energy =               0.0000000000000000
    EFP Energy =                            0.0000000000000000
    Total Energy =                       -786.5886066703454844
    Molecular point group: c1
  Basis Set: CC-PVTZ
  Basis Set:

  -Total Gradient:
     Atom            X                  Y                   Z
    ------   -----------------  -----------------  -----------------
       1        0.000000322559    -0.000004919799    -0.000000722161
       2        0.000040061081    -0.000043304872     0.000000742428
       3        0.002030097642    -0.003919450143    -0.000075328770
       4       -0.001120833311     0.003316621839     0.001845882451
       5        0.000013415264    -0.000004075035    -0.000050668522
       6       -0.001579411828     0.002739351749    -0.000263767086
       7        0.000646918611    -0.002111440615    -0.001444610441
       8        0.000037552631    -0.000033969379    -0.000010016903
       9        0.000010168421     0.000026460950    -0.000036784875
      10       -0.000036762053     0.000031499378     0.000009943283
      11       -0.000028708396     0.000006339311     0.000013727721
      12       -0.000012820616    -0.000003113388     0.000011602878

  **** Optimization is complete! (in 6 steps) ****
    Final optimized geometry and variables:
    Molecular point group: c1

    Geometry (in Angstrom), charge = 0, multiplicity = 1:

    H           -0.142655788627     2.021853962214     0.663895130873
    O           -0.049531712482     1.877392438892    -0.263398131496
    C            0.005176585258     0.530867107416    -0.555314111596
    C           -1.277304585904    -0.160167452498    -0.074550505947
    C            1.290692999486    -0.089076217739    -0.008480628831
    H            0.029458820476     0.445568469610    -1.631143725801
    F           -2.260307935039     0.118696619026    -0.895854784307
    F           -1.159748800542    -1.464101488628    -0.026779675203
    F           -1.618058883004     0.258109120619     1.124168051000
    F            2.321048404241     0.614964207642    -0.404155642317
    F            1.459955248031    -1.317364372328    -0.429239219904
    F            1.293091740826    -0.099670402115     1.308128153554

  Mulliken Charges: (a.u.)
   Center  Symbol    Alpha    Beta     Spin     Total
       1     H     0.38086  0.38086  0.00000  0.23829
       2     O     4.18982  4.18982  0.00000 -0.37965
       3     C     3.01041  3.01041  0.00000 -0.02083
       4     C     2.68035  2.68035  0.00000  0.63931
       5     C     2.68336  2.68336  0.00000  0.63328
       6     H     0.42457  0.42457  0.00000  0.15086
       7     F     4.60308  4.60308  0.00000 -0.20615
       8     F     4.60203  4.60203  0.00000 -0.20406
       9     F     4.61024  4.61024  0.00000 -0.22047
      10     F     4.60097  4.60097  0.00000 -0.20195
      11     F     4.60345  4.60345  0.00000 -0.20691
      12     F     4.61086  4.61086  0.00000 -0.22172

   Total alpha = 41.00000, Total beta = 41.00000, Total charge =  0.00000

*** Psi4 exiting successfully. Buy a developer a beer!
