  ==> Input File <==

--------------------------------------------------------------------------
set {
	reference rhf
	basis 6-31G*
}

set_num_threads( 4 )
memory 2 gb

molecule MOL {
0 1

H	 2.344243	 -2.033694	 0.249540
N	 1.357531	 -1.867170	 0.255010
C	 0.908732	 -1.433643	 -1.055465
C	 1.011638	 -0.900641	 1.281115
H	 1.171164	 -2.191560	 -1.785849
H	 1.369990	 -0.492849	 -1.364965
C	 -0.601388	 -1.251133	 -1.029827
H	 1.348592	 -1.272569	 2.242833
H	 1.479129	 0.072435	 1.113135
C	 -0.498546	 -0.718461	 1.305306
H	 -1.075748	 -2.223947	 -0.869470
H	 -0.937844	 -0.873404	 -1.989861
N	 -0.975995	 -0.298722	 0.000000
H	 -0.760733	 0.043946	 2.031626
H	 -0.966016	 -1.655588	 1.622108
C	 -2.393863	 -0.024976	 0.000000
H	 -2.854032	 -0.467193	 -0.876721
H	 -2.854032	 -0.467193	 0.876721
H	 -2.623281	 1.044943	 0.000000

	symmetry c1
}
set optking {
	frozen_dihedral = ("
		7 13 16 19
	")
}

ee = optimize('scf')
oeprop('DIPOLE', 'QUADRUPOLE', 'MULLIKEN_CHARGES')
f=open( 'psi4out.xyz', 'w' )
f.write( "19  " )
f.write( str(ee) + "\n" )
f.write( MOL.save_string_xyz() )
f.close()
--------------------------------------------------------------------------

    Molecular point group: c1
  Charge       = 0
  Multiplicity = 1
  Basis Set: 6-31G*
  Basis Set:
  @DF-RHF Final Energy:  -305.19318092603351
    Total Energy =                       -305.1931809260336763
    Molecular point group: c1
  Basis Set: 6-31G*
  Basis Set:
  Basis Set: 6-31G*
  Basis Set:
  @DF-RHF Final Energy:  -305.19412736674388
    Total Energy =                       -305.1941273667436008
  Basis Set: 6-31G*
  Basis Set:
  Basis Set: 6-31G*
  Basis Set:
  @DF-RHF Final Energy:  -305.19430207264514
    Total Energy =                       -305.1943020726451437
  Basis Set: 6-31G*
  Basis Set:
  Basis Set: 6-31G*
  Basis Set:
  @DF-RHF Final Energy:  -305.19431439033946
    Total Energy =                       -305.1943143903397981
  Basis Set: 6-31G*
  Basis Set:
  Charge       = 0
  Multiplicity = 1
  Basis Set: 6-31G*
  Basis Set:

    Orbital Energies (a.u.)
    -----------------------

    Doubly Occupied:

       1A    -15.536686     2A    -15.535991     3A    -11.237750
       4A    -11.237712     5A    -11.237019     6A    -11.236816
       7A    -11.234764     8A     -1.244090     9A     -1.182849
      10A     -1.022648    11A     -0.963988    12A     -0.860491
      13A     -0.857603    14A     -0.755444    15A     -0.690183
      16A     -0.631300    17A     -0.623717    18A     -0.605129
      19A     -0.602600    20A     -0.580543    21A     -0.543847
      22A     -0.534373    23A     -0.511125    24A     -0.488239
      25A     -0.466777    26A     -0.456459    27A     -0.362782
      28A     -0.336462

  @DF-RHF Final Energy:  -305.19431540979463

   => Energetics <=

    Nuclear Repulsion Energy =            339.2774256246245841
    One-Electron Energy =               -1085.7887060927000675
    Two-Electron Energy =                 441.3169650582805161
    DFT Exchange-Correlation Energy =       0.0000000000000000
    Empirical Dispersion Energy =           0.0000000000000000
    PCM Polarization Energy =               0.0000000000000000
    EFP Energy =                            0.0000000000000000
    Total Energy =                       -305.1943154097949673
    Molecular point group: c1
  Basis Set: 6-31G*
  Basis Set:

  -Total Gradient:
     Atom            X                  Y                   Z
    ------   -----------------  -----------------  -----------------
       1        0.000010164578    -0.000009694692    -0.000006057953
       2       -0.000004626317     0.000003112817    -0.000008960060
       3        0.000007452348    -0.000003441609    -0.000007908940
       4       -0.000008239722    -0.000007935162     0.000025363752
       5        0.000008115684    -0.000002318038    -0.000001948441
       6       -0.000007669175     0.000001434655    -0.000002734740
       7        0.000515539615     0.002227207030    -0.001810079465
       8        0.000007995211    -0.000000800317     0.000001436764
       9       -0.000010452232     0.000001327159     0.000003576764
      10       -0.000007439185     0.000032179295     0.000028164564
      11       -0.000001181392     0.000015327832     0.000008633039
      12       -0.000000113693    -0.000003500703     0.000001585787
      13       -0.000686844918    -0.003128211360     0.001515069304
      14       -0.000004097492    -0.000002241371     0.000005378200
      15        0.000000767996     0.000004060796    -0.000010478572
      16        0.000092391447     0.000771076959     0.004099574651
      17       -0.000007563060    -0.000004718712    -0.000014299402
      18        0.000031634804    -0.000009723791    -0.000030975850
      19        0.000064165499     0.000116859211    -0.003795339402

  **** Optimization is complete! (in 5 steps) ****
    Final optimized geometry and variables:
    Molecular point group: c1

    Geometry (in Angstrom), charge = 0, multiplicity = 1:

    H            2.539869451867    -1.072423542102     0.135289554478
    N            1.550993182562    -0.919456237423     0.144426514067
    C            1.091584288596    -0.497468750319    -1.166208436224
    C            1.197057200084     0.047544143987     1.167371232129
    H            1.373332918995    -1.248476376871    -1.896707748733
    H            1.529959698115     0.454744343056    -1.474491372025
    C           -0.422653355631    -0.351083696054    -1.143052351713
    H            1.550161166259    -0.311091133711     2.128467216145
    H            1.645297650185     1.027594725576     0.987418137178
    C           -0.315792140545     0.202114520985     1.203947076452
    H           -0.871839237711    -1.339206210760    -1.003511876006
    H           -0.759933614226     0.034537288035    -2.098848043820
    N           -0.816260652154     0.578816865689    -0.102291270791
    H           -0.582591050514     0.978049694000     1.914420770824
    H           -0.762257891396    -0.734357435990     1.552117809745
    C           -2.225832030497     0.925235522588    -0.102030041220
    H           -2.698172049863     0.583241076950    -1.016460984036
    H           -2.766892275738     0.472258151000     0.726967254173
    H           -2.360883340084     2.002396962212    -0.064156592086

  Mulliken Charges: (a.u.)
   Center  Symbol    Alpha    Beta     Spin     Total
       1     H     0.32953  0.32953  0.00000  0.34094
       2     N     3.85435  3.85435  0.00000 -0.70871
       3     C     3.06392  3.06392  0.00000 -0.12784
       4     C     3.06360  3.06360  0.00000 -0.12721
       5     H     0.41804  0.41804  0.00000  0.16393
       6     H     0.42820  0.42820  0.00000  0.14359
       7     C     3.05128  3.05128  0.00000 -0.10256
       8     H     0.41800  0.41800  0.00000  0.16400
       9     H     0.42821  0.42821  0.00000  0.14357
      10     C     3.05197  3.05197  0.00000 -0.10394
      11     H     0.42904  0.42904  0.00000  0.14192
      12     H     0.41881  0.41881  0.00000  0.16239
      13     N     3.79539  3.79539  0.00000 -0.59078
      14     H     0.41856  0.41856  0.00000  0.16287
      15     H     0.42867  0.42867  0.00000  0.14265
      16     C     3.13803  3.13803  0.00000 -0.27605
      17     H     0.42092  0.42092  0.00000  0.15817
      18     H     0.42647  0.42647  0.00000  0.14707
      19     H     0.41701  0.41701  0.00000  0.16598

   Total alpha = 28.00000, Total beta = 28.00000, Total charge =  0.00000
