  ==> Input File <==

--------------------------------------------------------------------------
set {
	reference rhf
	basis cc-pvtz
}

set_num_threads( 4 )
memory 2 gb

molecule MOL {
0 1

H	 -1.627267	 1.836069	 -0.326994
C	 -1.860987	 0.776610	 -0.350770
O	 -0.775228	 0.000056	 -0.739966
H	 -2.636086	 0.619844	 -1.087517
H	 -2.253198	 0.486765	 0.618659
C	 0.406133	 -0.000384	 0.036994
C	 1.526415	 -0.003194	 -0.997339
C	 0.498772	 1.259027	 0.900673
C	 0.495883	 -1.257378	 0.904465
H	 1.452279	 0.872071	 -1.630204
H	 1.451276	 -0.881020	 -1.626529
H	 2.497919	 -0.002741	 -0.517601
H	 0.368981	 2.144239	 0.289753
H	 1.470064	 1.313479	 1.377660
H	 -0.248448	 1.271586	 1.684297
H	 0.363971	 -2.144195	 0.296316
H	 1.467114	 -1.312636	 1.381470
H	 -0.251246	 -1.265768	 1.688235

	symmetry c1
}
set optking {
	frozen_dihedral = ("
		2 3 6 7
	")
}

ee = optimize('scf')
oeprop('DIPOLE', 'QUADRUPOLE', 'MULLIKEN_CHARGES')
f=open( 'psi4out.xyz', 'w' )
f.write( "18  " )
f.write( str(ee) + "\n" )
f.write( MOL.save_string_xyz() )
f.close()
--------------------------------------------------------------------------

    Molecular point group: c1
  Charge       = 0
  Multiplicity = 1
  Basis Set: CC-PVTZ
  Basis Set:
  @DF-RHF Final Energy:  -271.27172744358484
    Total Energy =                       -271.2717274435846093
    Molecular point group: c1
  Basis Set: CC-PVTZ
  Basis Set:
  Basis Set: CC-PVTZ
  Basis Set:
  @DF-RHF Final Energy:  -271.27239381943104
    Total Energy =                       -271.2723938194309312
  Basis Set: CC-PVTZ
  Basis Set:
  Basis Set: CC-PVTZ
  Basis Set:
  @DF-RHF Final Energy:  -271.27359690696284
    Total Energy =                       -271.2735969069625526
  Basis Set: CC-PVTZ
  Basis Set:
  Basis Set: CC-PVTZ
  Basis Set:
  @DF-RHF Final Energy:  -271.27366345561222
    Total Energy =                       -271.2736634556120521
  Basis Set: CC-PVTZ
  Basis Set:
  Basis Set: CC-PVTZ
  Basis Set:
  @DF-RHF Final Energy:  -271.27365193231515
    Total Energy =                       -271.2736519323150333
  Basis Set: CC-PVTZ
  Basis Set:
  Basis Set: CC-PVTZ
  Basis Set:
  @DF-RHF Final Energy:  -271.27366949079737
    Total Energy =                       -271.2736694907973742
  Basis Set: CC-PVTZ
  Basis Set:
  Charge       = 0
  Multiplicity = 1
  Basis Set: CC-PVTZ
  Basis Set:

    Orbital Energies (a.u.)
    -----------------------

    Doubly Occupied:

       1A    -20.538004     2A    -11.280555     3A    -11.259314
       4A    -11.210963     5A    -11.203442     6A    -11.201922
       7A     -1.370564     8A     -1.075299     9A     -0.950585
      10A     -0.937176    11A     -0.912147    12A     -0.752481
      13A     -0.657655    14A     -0.648134    15A     -0.638734
      16A     -0.585587    17A     -0.576438    18A     -0.550670
      19A     -0.540327    20A     -0.526384    21A     -0.515388
      22A     -0.492300    23A     -0.484576    24A     -0.442321
      25A     -0.401068

  @DF-RHF Final Energy:  -271.27367007779094

   => Energetics <=

    Nuclear Repulsion Energy =            272.2670215508438787
    One-Electron Energy =                -907.5773091159489923
    Two-Electron Energy =                 364.0366174873142882
    DFT Exchange-Correlation Energy =       0.0000000000000000
    Empirical Dispersion Energy =           0.0000000000000000
    PCM Polarization Energy =               0.0000000000000000
    EFP Energy =                            0.0000000000000000
    Total Energy =                       -271.2736700777908254
    Molecular point group: c1
  Basis Set: CC-PVTZ
  Basis Set:

  -Total Gradient:
     Atom            X                  Y                   Z
    ------   -----------------  -----------------  -----------------
       1        0.000001745892    -0.000015540207    -0.000001214493
       2        0.001057242380     0.002483840812    -0.001830882760
       3       -0.001571050021    -0.002977856911     0.002777721859
       4        0.000001723753     0.000002191561    -0.000006048643
       5        0.000006804958    -0.000005205078     0.000013765525
       6        0.000583096076    -0.002100231389    -0.000874286924
       7       -0.000040212448     0.002616867395    -0.000070575723
       8       -0.000007668178     0.000003800175    -0.000001102700
       9       -0.000010147092    -0.000009063198     0.000002494974
      10        0.000011083788    -0.000001487464    -0.000022887862
      11       -0.000003581044    -0.000003045902     0.000016476847
      12       -0.000002828323     0.000012578578    -0.000000039917
      13       -0.000005273788    -0.000002967840     0.000002735738
      14        0.000000618894    -0.000002459729    -0.000011792284
      15       -0.000009107262     0.000002656016     0.000017619370
      16        0.000000570972    -0.000013259273    -0.000000038885
      17       -0.000009928645     0.000007690894    -0.000007269260
      18       -0.000003089912     0.000001491559    -0.000004674866

  **** Optimization is complete! (in 7 steps) ****
    Final optimized geometry and variables:
    Molecular point group: c1

    Geometry (in Angstrom), charge = 0, multiplicity = 1:

    H           -1.741338774975     1.661681872259    -0.360947636797
    C           -1.922714656907     0.593904298473    -0.306329820577
    O           -0.813763268757    -0.156566066511    -0.677437271077
    H           -2.709583750006     0.348455910840    -1.005589455479
    H           -2.274784158146     0.353402674976     0.693551090808
    C            0.390691022233    -0.118565294297     0.072196768880
    C            1.508530048377    -0.121259312145    -0.966094338057
    C            0.525781496602     1.128485504482     0.948674275178
    C            0.440045790798    -1.377534777110     0.935404820427
    H            1.462803700411     0.777653168002    -1.568219818540
    H            1.402459343342    -0.973346004006    -1.625642291659
    H            2.482330112571    -0.171718731065    -0.492305886610
    H            0.478994534682     2.035015272827     0.358199700464
    H            1.487666883108     1.107819582654     1.445460687357
    H           -0.236786303412     1.177250554182     1.715349668735
    H            0.355431007604    -2.258476767363     0.311876059027
    H            1.368004119475    -1.436447311526     1.493033574064
    H           -0.380389047944    -1.387052339471     1.644150298102

  Mulliken Charges: (a.u.)
   Center  Symbol    Alpha    Beta     Spin     Total
       1     H     0.46772  0.46772  0.00000  0.06455
       2     C     3.04183  3.04183  0.00000 -0.08367
       3     O     4.19777  4.19777  0.00000 -0.39553
       4     H     0.44254  0.44254  0.00000  0.11493
       5     H     0.47027  0.47027  0.00000  0.05945
       6     C     2.87240  2.87240  0.00000  0.25520
       7     C     3.14023  3.14023  0.00000 -0.28047
       8     C     3.17618  3.17618  0.00000 -0.35236
       9     C     3.14506  3.14506  0.00000 -0.29013
      10     H     0.45193  0.45193  0.00000  0.09614
      11     H     0.44760  0.44760  0.00000  0.10479
      12     H     0.45911  0.45911  0.00000  0.08178
      13     H     0.44525  0.44525  0.00000  0.10950
      14     H     0.44310  0.44310  0.00000  0.11379
      15     H     0.44438  0.44438  0.00000  0.11123
      16     H     0.44803  0.44803  0.00000  0.10394
      17     H     0.45547  0.45547  0.00000  0.08906
      18     H     0.45111  0.45111  0.00000  0.09778

   Total alpha = 25.00000, Total beta = 25.00000, Total charge = -0.00000
