  ==> Input File <==

--------------------------------------------------------------------------
set {
	reference rhf
	basis 6-31G*
}

set_num_threads( 1 )
memory 2 gb

molecule MOL {
0 1

O	 2.775749	 -0.397532	 0.057848
C	 1.705091	 0.115954	 0.001797
C	 0.381791	 -0.609817	 0.001258
O	 1.532568	 1.430065	 -0.065176
C	 -0.823008	 0.326187	 0.001381
H	 0.371250	 -1.265087	 -0.865474
H	 0.370908	 -1.265746	 0.867490
C	 -2.149452	 -0.435131	 -0.000098
H	 -0.770201	 0.977095	 -0.865636
H	 -0.771220	 0.975655	 0.869608
C	 -3.368779	 0.488503	 -0.000883
H	 -2.193746	 -1.087250	 -0.871175
H	 -2.195311	 -1.087803	 0.870418
C	 -4.693822	 -0.272754	 -0.001129
H	 -3.325798	 1.139422	 -0.871284
H	 -3.326423	 1.139959	 0.869145
H	 -4.781274	 -0.907928	 -0.878124
H	 -5.538651	 0.408946	 -0.001420
H	 -4.781694	 -0.907783	 0.875984
C	 2.699546	 2.231994	 -0.070402
H	 3.269639	 2.079291	 0.834697
H	 2.355778	 3.252960	 -0.128098
H	 3.318714	 1.996520	 -0.924034

	symmetry c1
}
set optking {
	frozen_dihedral = ("
		15 11 8 12,
		9 5 8 12,
		9 5 3 6,
		1 2 4 20
	")
}

ee = energy('scf')
oeprop('DIPOLE', 'QUADRUPOLE', 'MULLIKEN_CHARGES')
f=open( 'psi4out.xyz', 'w' )
f.write( "23  " )
f.write( str(ee) + "\n" )
f.write( MOL.save_string_xyz() )
f.close()
--------------------------------------------------------------------------

    Molecular point group: c1

    Geometry (in Angstrom), charge = 0, multiplicity = 1:

       Center              X                  Y                   Z               Mass
    ------------   -----------------  -----------------  -----------------  -----------------
           O          2.961847485966    -0.736852548811     0.066716073276    15.994914619560
           C          1.891189485966    -0.223366548811     0.010665073276    12.000000000000
           C          0.567889485966    -0.949137548811     0.010126073276    12.000000000000
           O          1.718666485966     1.090744451189    -0.056307926724    15.994914619560
           C         -0.636909514034    -0.013133548811     0.010249073276    12.000000000000
           H          0.557348485966    -1.604407548811    -0.856605926724     1.007825032070
           H          0.557006485966    -1.605066548811     0.876358073276     1.007825032070
           C         -1.963353514034    -0.774451548811     0.008770073276    12.000000000000
           H         -0.584102514034     0.637774451189    -0.856767926724     1.007825032070
           H         -0.585121514034     0.636334451189     0.878476073276     1.007825032070
           C         -3.182680514034     0.149182451189     0.007985073276    12.000000000000
           H         -2.007647514034    -1.426570548811    -0.862306926724     1.007825032070
           H         -2.009212514034    -1.427123548811     0.879286073276     1.007825032070
           C         -4.507723514034    -0.612074548811     0.007739073276    12.000000000000
           H         -3.139699514034     0.800101451189    -0.862415926724     1.007825032070
           H         -3.140324514034     0.800638451189     0.878013073276     1.007825032070
           H         -4.595175514034    -1.247248548811    -0.869255926724     1.007825032070
           H         -5.352552514034     0.069625451189     0.007448073276     1.007825032070
           H         -4.595595514034    -1.247103548811     0.884852073276     1.007825032070
           C          2.885644485966     1.892673451189    -0.061533926724    12.000000000000
           H          3.455737485966     1.739970451189     0.843565073276     1.007825032070
           H          2.541876485966     2.913639451189    -0.119229926724     1.007825032070
           H          3.504812485966     1.657199451189    -0.915165926724     1.007825032070

  Charge       = 0
  Multiplicity = 1
  Basis Set: 6-31G*
  Basis Set:

    Orbital Energies (a.u.)
    -----------------------

    Doubly Occupied:

       1A    -20.605339     2A    -20.542178     3A    -11.372622
       4A    -11.281259     5A    -11.235543     6A    -11.220833
       7A    -11.218815     8A    -11.218160     9A    -11.210965
      10A     -1.469982    11A     -1.361796    12A     -1.096339
      13A     -1.046073    14A     -0.981470    15A     -0.935308
      16A     -0.847084    17A     -0.796554    18A     -0.774069
      19A     -0.694702    20A     -0.685355    21A     -0.670288
      22A     -0.651722    23A     -0.609913    24A     -0.590593
      25A     -0.576383    26A     -0.559853    27A     -0.558350
      28A     -0.524414    29A     -0.521600    30A     -0.507040
      31A     -0.488978    32A     -0.480979    33A     -0.468989
      34A     -0.468088    35A     -0.450741    36A     -0.425006

  @DF-RHF Final Energy:  -422.97221060832248

   => Energetics <=

    Nuclear Repulsion Energy =            457.6959466154410165
    One-Electron Energy =               -1483.0410744598063957
    Two-Electron Energy =                 602.3729172360438042
    DFT Exchange-Correlation Energy =       0.0000000000000000
    Empirical Dispersion Energy =           0.0000000000000000
    PCM Polarization Energy =               0.0000000000000000
    EFP Energy =                            0.0000000000000000
    Total Energy =                       -422.9722106083215749

  Mulliken Charges: (a.u.)
   Center  Symbol    Alpha    Beta     Spin     Total
       1     O     4.28850  4.28850  0.00000 -0.57701
       2     C     2.60049  2.60049  0.00000  0.79901
       3     C     3.21644  3.21644  0.00000 -0.43287
       4     O     4.30568  4.30568  0.00000 -0.61136
       5     C     3.15026  3.15026  0.00000 -0.30052
       6     H     0.39818  0.39818  0.00000  0.20363
       7     H     0.39797  0.39797  0.00000  0.20405
       8     C     3.15329  3.15329  0.00000 -0.30659
       9     H     0.41276  0.41276  0.00000  0.17448
      10     H     0.41422  0.41422  0.00000  0.17157
      11     C     3.15134  3.15134  0.00000 -0.30267
      12     H     0.42368  0.42368  0.00000  0.15264
      13     H     0.42362  0.42362  0.00000  0.15276
      14     C     3.23954  3.23954  0.00000 -0.47907
      15     H     0.42219  0.42219  0.00000  0.15562
      16     H     0.42221  0.42221  0.00000  0.15558
      17     H     0.42147  0.42147  0.00000  0.15707
      18     H     0.41866  0.41866  0.00000  0.16267
      19     H     0.42144  0.42144  0.00000  0.15712
      20     C     3.09197  3.09197  0.00000 -0.18394
      21     H     0.40859  0.40859  0.00000  0.18283
      22     H     0.40884  0.40884  0.00000  0.18232
      23     H     0.40866  0.40866  0.00000  0.18267

   Total alpha = 36.00000, Total beta = 36.00000, Total charge = -0.00000
