  ==> Input File <==

--------------------------------------------------------------------------
set {
	reference rhf
	basis cc-pvtz
}

set_num_threads( 4 )
memory 2 gb

molecule MOL {
0 1

H	 -1.826030	 0.893579	 -0.748979
N	 -1.851927	 0.161443	 -0.071573
C	 -0.561396	 -0.500007	 0.035200
H	 -2.559421	 -0.481788	 -0.359742
C	 0.575129	 0.507849	 -0.048832
H	 -0.478089	 -1.200753	 -0.788956
H	 -0.456191	 -1.081816	 0.952176
C	 1.951750	 -0.141983	 0.035101
H	 0.478254	 1.061643	 -0.975981
H	 0.467676	 1.231891	 0.755499
H	 2.101550	 -0.848142	 -0.774949
H	 2.738260	 0.600794	 -0.026526
H	 2.078939	 -0.679792	 0.968824

	symmetry c1
}
set optking {
	frozen_dihedral = ("
		1 2 3 6
	")
}

ee = optimize('scf')
oeprop('DIPOLE', 'QUADRUPOLE', 'MULLIKEN_CHARGES')
f=open( 'psi4out.xyz', 'w' )
f.write( "13  " )
f.write( str(ee) + "\n" )
f.write( MOL.save_string_xyz() )
f.close()
--------------------------------------------------------------------------

    Molecular point group: c1
  Charge       = 0
  Multiplicity = 1
  Basis Set: CC-PVTZ
  Basis Set:
  @DF-RHF Final Energy:  -173.34975785898081
    Total Energy =                       -173.3497578589807802
    Molecular point group: c1
  Basis Set: CC-PVTZ
  Basis Set:
  Basis Set: CC-PVTZ
  Basis Set:
  @DF-RHF Final Energy:  -173.35145946813631
    Total Energy =                       -173.3514594681361416
  Basis Set: CC-PVTZ
  Basis Set:
  Basis Set: CC-PVTZ
  Basis Set:
  @DF-RHF Final Energy:  -173.35166588385798
    Total Energy =                       -173.3516658838578905
  Basis Set: CC-PVTZ
  Basis Set:
  Basis Set: CC-PVTZ
  Basis Set:
  @DF-RHF Final Energy:  -173.35166999806484
    Total Energy =                       -173.3516699980647786
  Basis Set: CC-PVTZ
  Basis Set:
  Charge       = 0
  Multiplicity = 1
  Basis Set: CC-PVTZ
  Basis Set:

    Orbital Energies (a.u.)
    -----------------------

    Doubly Occupied:

       1A    -15.524807     2A    -11.237847     3A    -11.213703
       4A    -11.208566     5A     -1.177286     6A     -1.037634
       7A     -0.899740     8A     -0.803692     9A     -0.654003
      10A     -0.641214    11A     -0.604852    12A     -0.561508
      13A     -0.538735    14A     -0.494623    15A     -0.476814
      16A     -0.470846    17A     -0.381259

  @DF-RHF Final Energy:  -173.35167048127411

   => Energetics <=

    Nuclear Repulsion Energy =            132.0883228759463748
    One-Electron Energy =                -495.0257302337273018
    Two-Electron Energy =                 189.5857368765069282
    DFT Exchange-Correlation Energy =       0.0000000000000000
    Empirical Dispersion Energy =           0.0000000000000000
    PCM Polarization Energy =               0.0000000000000000
    EFP Energy =                            0.0000000000000000
    Total Energy =                       -173.3516704812739704
    Molecular point group: c1
  Basis Set: CC-PVTZ
  Basis Set:

  -Total Gradient:
     Atom            X                  Y                   Z
    ------   -----------------  -----------------  -----------------
       1        0.000829778140     0.001667571875     0.001809750312
       2       -0.001338933674    -0.002586567893    -0.001839460347
       3        0.001465867749     0.002666843318    -0.001399313879
       4       -0.000003211056     0.000001664319    -0.000007548962
       5       -0.000050074283    -0.000043822725     0.000008367268
       6       -0.000929342038    -0.001700010153     0.001415251067
       7       -0.000000356621     0.000008618446     0.000013509484
       8        0.000031144227     0.000013348065     0.000004278376
       9       -0.000005508760    -0.000013872246     0.000009314348
      10       -0.000005775526    -0.000019476244    -0.000008001697
      11       -0.000009895161     0.000005412862    -0.000000364675
      12        0.000020996132    -0.000005258919    -0.000000514308
      13       -0.000004689127     0.000005549295    -0.000005266986

  **** Optimization is complete! (in 5 steps) ****
    Final optimized geometry and variables:
    Molecular point group: c1

    Geometry (in Angstrom), charge = 0, multiplicity = 1:

    H           -1.869106260137     0.891871547632    -0.695745766732
    N           -1.855415182408     0.160961189399    -0.016869629029
    C           -0.562813392847    -0.503997060390     0.018921141428
    H           -2.596281076188    -0.472161779144    -0.225638160796
    C            0.573604763571     0.504519403689    -0.029494578280
    H           -0.440757940086    -1.233822857388    -0.782252076467
    H           -0.497997708983    -1.063531982412     0.947380998993
    C            1.948544528760    -0.144340419300     0.081537167167
    H            0.513223818043     1.064825874750    -0.959708767782
    H            0.435415567110     1.220812978353     0.773594750643
    H            2.118258484571    -0.848618457592    -0.726013587080
    H            2.735170489139     0.599729530768     0.040617859439
    H            2.052386175132    -0.683138807528     1.017204304785

  Mulliken Charges: (a.u.)
   Center  Symbol    Alpha    Beta     Spin     Total
       1     H     0.43017  0.43017  0.00000  0.13965
       2     N     3.69233  3.69233  0.00000 -0.38467
       3     C     3.01497  3.01497  0.00000 -0.02994
       4     H     0.42946  0.42946  0.00000  0.14108
       5     C     3.08232  3.08232  0.00000 -0.16463
       6     H     0.47062  0.47062  0.00000  0.05875
       7     H     0.46059  0.46059  0.00000  0.07881
       8     C     3.15202  3.15202  0.00000 -0.30403
       9     H     0.46067  0.46067  0.00000  0.07867
      10     H     0.44857  0.44857  0.00000  0.10286
      11     H     0.45636  0.45636  0.00000  0.08729
      12     H     0.44781  0.44781  0.00000  0.10438
      13     H     0.45411  0.45411  0.00000  0.09179

   Total alpha = 17.00000, Total beta = 17.00000, Total charge = -0.00000
