                              Psi4 1.0.54 Driver

  ==> Input File <==

--------------------------------------------------------------------------
set {
	reference rhf
	basis cc-pvtz
}

set_num_threads( 4 )
memory 2 gb

molecule MOL {
0 1

H	 0.109940	 4.087392	 -1.088255
O	 -0.303355	 3.380782	 -1.549547
C	 -0.227569	 2.202053	 -0.797886
C	 1.174711	 1.626447	 -0.806816
H	 -0.549085	 2.360720	 0.226605
H	 -0.909286	 1.495607	 -1.249415
O	 1.172093	 0.457955	 -0.054438
H	 1.876509	 2.349573	 -0.387931
H	 1.480879	 1.431009	 -1.832311
C	 2.395478	 -0.199028	 -0.000366
H	 2.505946	 -0.901710	 -0.823354
H	 3.174616	 0.545641	 -0.071768
H	 2.513730	 -0.742241	 0.934223

	symmetry c1
}
set optking {
	frozen_dihedral = ("
		4 7 10 13
	")
}

ee,wfn = optimize('scf', return_wfn=True)
oeprop( wfn, 'DIPOLE', 'QUADRUPOLE', 'MULLIKEN_CHARGES')
f=open( 'psi4out.xyz', 'w' )
f.write( "13  " )
f.write( str(ee) + "\n" )
f.write( MOL.save_string_xyz() )
f.close()
--------------------------------------------------------------------------

    Molecular point group: c1
  Charge       = 0
  Multiplicity = 1
  Basis Set: CC-PVTZ
  Basis Set:
  @DF-RHF Final Energy:  -268.05956864014240
    Total Energy =                       -268.0595686401426860
    Molecular point group: c1
  Basis Set: CC-PVTZ
  Basis Set:
  Basis Set: CC-PVTZ
  Basis Set:
  @DF-RHF Final Energy:  -268.06031804707527
    Total Energy =                       -268.0603180470751568
  Basis Set: CC-PVTZ
  Basis Set:
  Basis Set: CC-PVTZ
  Basis Set:
  @DF-RHF Final Energy:  -268.06052629632768
    Total Energy =                       -268.0605262963275663
  Basis Set: CC-PVTZ
  Basis Set:
  Charge       = 0
  Multiplicity = 1
  Basis Set: CC-PVTZ
  Basis Set:

    Orbital Energies (a.u.)
    -----------------------

    Doubly Occupied:

       1A    -20.554313     2A    -20.552694     3A    -11.269504
       4A    -11.267536     5A    -11.267196     6A     -1.389952
       7A     -1.368855     8A     -1.019578     9A     -0.914105
      10A     -0.842748    11A     -0.711428    12A     -0.675450
      13A     -0.662110    14A     -0.638190    15A     -0.599170
      16A     -0.568492    17A     -0.550456    18A     -0.489825
      19A     -0.483905    20A     -0.441459    21A     -0.422319

  @DF-RHF Final Energy:  -268.06052754346217

   => Energetics <=

    Nuclear Repulsion Energy =            190.3575786304438111
    One-Electron Energy =                -743.4576486110024689
    Two-Electron Energy =                 285.0395424370964861
    DFT Exchange-Correlation Energy =       0.0000000000000000
    Empirical Dispersion Energy =           0.0000000000000000
    PCM Polarization Energy =               0.0000000000000000
    EFP Energy =                            0.0000000000000000
    Total Energy =                       -268.0605275434621149
    Molecular point group: c1
  Basis Set: CC-PVTZ
  Basis Set:

  -Total Gradient:
     Atom            X                  Y                   Z
    ------   -----------------  -----------------  -----------------
       1        0.000001909581     0.000007805874    -0.000001364695
       2        0.000052437104    -0.000034802828     0.000019625793
       3       -0.000053642750    -0.000064148354     0.000041088417
       4        0.000685461874     0.001228314296     0.001821966614
       5       -0.000010434843     0.000006212206     0.000001604989
       6       -0.000006779765    -0.000004511201     0.000003735083
       7       -0.000436406170    -0.001275626500    -0.002357582924
       8        0.000006320622    -0.000020027051     0.000013156208
       9        0.000001025610    -0.000016030929     0.000015084403
      10       -0.001279572978    -0.002164839822    -0.000712981227
      11       -0.000043151930     0.000004539310    -0.000009176132
      12       -0.000009375665     0.000018319289    -0.000003971514
      13        0.001092209312     0.002314795705     0.001168814986

  **** Optimization is complete! (in 4 steps) ****
    Final optimized geometry and variables:
    Molecular point group: c1

    Geometry (in Angstrom), charge = 0, multiplicity = 1:

    H           -0.767386356713     2.563446791486    -0.418194108624
    O           -1.171563142781     1.856595881310    -0.887139307137
    C           -1.079773967178     0.670782425876    -0.148374641977
    C            0.330006116726     0.114248403364    -0.164694984397
    H           -1.401755294028     0.814033931872     0.878281830002
    H           -1.752990021746    -0.039470733992    -0.606592561711
    O            0.342639531678    -1.056946888085     0.584204801169
    H            1.022829128070     0.843103863471     0.257454120472
    H            0.634306935967    -0.069177840543    -1.193063143289
    C            1.566612274875    -1.718484863140     0.639587854215
    H            1.668297600744    -2.429269659906    -0.175035434648
    H            2.397848405488    -1.020024534431     0.592088152777
    H            1.628442222623    -2.239174365658     1.585054987868

  Mulliken Charges: (a.u.)
   Center  Symbol    Alpha    Beta     Spin     Total
       1     H     0.39411  0.39411  0.00000  0.21179
       2     O     4.20215  4.20215  0.00000 -0.40429
       3     C     2.97439  2.97439  0.00000  0.05122
       4     C     2.96499  2.96499  0.00000  0.07003
       5     H     0.46717  0.46717  0.00000  0.06566
       6     H     0.45257  0.45257  0.00000  0.09487
       7     O     4.17791  4.17791  0.00000 -0.35583
       8     H     0.48083  0.48083  0.00000  0.03835
       9     H     0.47047  0.47047  0.00000  0.05907
      10     C     3.02912  3.02912  0.00000 -0.05825
      11     H     0.46281  0.46281  0.00000  0.07439
      12     H     0.47350  0.47350  0.00000  0.05300
      13     H     0.45000  0.45000  0.00000  0.10000

   Total alpha = 21.00000, Total beta = 21.00000, Total charge =  0.00000

*** Psi4 exiting successfully. Buy a developer a beer!
