  ==> Input File <==

--------------------------------------------------------------------------
set {
	reference rhf
	basis 6-31G*
}

set_num_threads( 1 )
memory 2 gb

molecule MOL {
0 1

H	 -2.177276	 0.597986	 2.459417
C	 -1.678770	 -0.128520	 3.098027
O	 -0.471301	 -0.546115	 2.547599
H	 -1.460230	 0.334358	 4.050459
H	 -2.355660	 -0.966111	 3.261397
C	 -0.595162	 -1.173024	 1.310307
C	 0.780252	 -1.480455	 0.766313
H	 -1.156451	 -2.102706	 1.411999
H	 -1.125580	 -0.536319	 0.605135
O	 1.392611	 -0.295398	 0.366430
H	 1.366841	 -1.978916	 1.535375
H	 0.686847	 -2.162093	 -0.080055
C	 2.706965	 -0.449871	 -0.062409
H	 2.756559	 -0.644779	 -1.131878
H	 3.305899	 0.433456	 0.155466
H	 3.125548	 -1.294566	 0.467107

	symmetry c1
}
set optking {
	frozen_dihedral = ("
		3 6 7 11,
		2 3 6 7
	")
}

ee = energy('scf')
oeprop('DIPOLE', 'QUADRUPOLE', 'MULLIKEN_CHARGES')
f=open( 'psi4out.xyz', 'w' )
f.write( "16  " )
f.write( str(ee) + "\n" )
f.write( MOL.save_string_xyz() )
f.close()
--------------------------------------------------------------------------

    Molecular point group: c1

    Geometry (in Angstrom), charge = 0, multiplicity = 1:

       Center              X                  Y                   Z               Mass
    ------------   -----------------  -----------------  -----------------  -----------------
           H         -2.535731569166     1.271111936776     1.118314015404     1.007825032070
           C         -2.037225569166     0.544605936776     1.756924015404    12.000000000000
           O         -0.829756569166     0.127010936776     1.206496015404    15.994914619560
           H         -1.818685569166     1.007483936776     2.709356015404     1.007825032070
           H         -2.714115569166    -0.292985063224     1.920294015404     1.007825032070
           C         -0.953617569166    -0.499898063224    -0.030795984596    12.000000000000
           C          0.421796430834    -0.807329063224    -0.574789984596    12.000000000000
           H         -1.514906569166    -1.429580063224     0.070896015404     1.007825032070
           H         -1.484035569166     0.136806936776    -0.735967984596     1.007825032070
           O          1.034155430834     0.377727936776    -0.974672984596    15.994914619560
           H          1.008385430834    -1.305790063224     0.194272015404     1.007825032070
           H          0.328391430834    -1.488967063224    -1.421157984596     1.007825032070
           C          2.348509430834     0.223254936776    -1.403511984596    12.000000000000
           H          2.398103430834     0.028346936776    -2.472980984596     1.007825032070
           H          2.947443430834     1.106581936776    -1.185636984596     1.007825032070
           H          2.767092430834    -0.621440063224    -0.873995984596     1.007825032070

  Charge       = 0
  Multiplicity = 1
  Basis Set: 6-31G*
  Basis Set:

    Orbital Energies (a.u.)
    -----------------------

    Doubly Occupied:

       1A    -20.553635     2A    -20.551406     3A    -11.269736
       4A    -11.268667     5A    -11.263564     6A    -11.263326
       7A     -1.388029     8A     -1.370371     9A     -1.030520
      10A     -0.935351    11A     -0.892447    12A     -0.825336
      13A     -0.683559    14A     -0.679869    15A     -0.658055
      16A     -0.635744    17A     -0.628140    18A     -0.598302
      19A     -0.552787    20A     -0.535397    21A     -0.508644
      22A     -0.476467    23A     -0.462806    24A     -0.418905
      25A     -0.408943

  @DF-RHF Final Energy:  -306.97435675535110

   => Energetics <=

    Nuclear Repulsion Energy =            258.9183987174056938
    One-Electron Energy =                -932.0654046835879853
    Two-Electron Energy =                 366.1726492108311390
    DFT Exchange-Correlation Energy =       0.0000000000000000
    Empirical Dispersion Energy =           0.0000000000000000
    PCM Polarization Energy =               0.0000000000000000
    EFP Energy =                            0.0000000000000000
    Total Energy =                       -306.9743567553511525

  Mulliken Charges: (a.u.)
   Center  Symbol    Alpha    Beta     Spin     Total
       1     H     0.42801  0.42801  0.00000  0.14399
       2     C     3.07952  3.07952  0.00000 -0.15904
       3     O     4.30090  4.30090  0.00000 -0.60179
       4     H     0.41129  0.41129  0.00000  0.17742
       5     H     0.43191  0.43191  0.00000  0.13619
       6     C     2.99328  2.99328  0.00000  0.01344
       7     C     2.99485  2.99485  0.00000  0.01030
       8     H     0.43227  0.43227  0.00000  0.13545
       9     H     0.42248  0.42248  0.00000  0.15503
      10     O     4.30271  4.30271  0.00000 -0.60543
      11     H     0.42159  0.42159  0.00000  0.15681
      12     H     0.43225  0.43225  0.00000  0.13550
      13     C     3.07591  3.07591  0.00000 -0.15182
      14     H     0.42789  0.42789  0.00000  0.14423
      15     H     0.41391  0.41391  0.00000  0.17218
      16     H     0.43123  0.43123  0.00000  0.13754

   Total alpha = 25.00000, Total beta = 25.00000, Total charge =  0.00000
