  ==> Input File <==

--------------------------------------------------------------------------
set {
	reference rhf
	basis cc-pvtz
}

set_num_threads( 4 )
memory 2 gb

molecule MOL {
0 1

H	 1.166964	 -1.062386	 0.758429
O	 1.324748	 -0.612467	 -0.052206
C	 0.706474	 0.636793	 -0.025501
C	 0.668400	 1.344650	 -1.350310
H	 1.261500	 1.238566	 0.684511
H	 -0.308165	 0.559166	 0.360740
C	 1.245885	 0.935171	 -2.458075
H	 0.110201	 2.266421	 -1.350892
H	 1.824319	 0.031756	 -2.493132
H	 1.167798	 1.502091	 -3.366130

	symmetry c1
}
set optking {
	frozen_dihedral = ("
		5 3 2 1
	")
}

ee = optimize('scf')
oeprop('DIPOLE', 'QUADRUPOLE', 'MULLIKEN_CHARGES')
f=open( 'psi4out.xyz', 'w' )
f.write( "10  " )
f.write( str(ee) + "\n" )
f.write( MOL.save_string_xyz() )
f.close()
--------------------------------------------------------------------------

    Molecular point group: c1
  Charge       = 0
  Multiplicity = 1
  Basis Set: CC-PVTZ
  Basis Set:
  @DF-RHF Final Energy:  -191.99596677131871
    Total Energy =                       -191.9959667713187343
    Molecular point group: c1
  Basis Set: CC-PVTZ
  Basis Set:
  Basis Set: CC-PVTZ
  Basis Set:
  @DF-RHF Final Energy:  -191.99733450610478
    Total Energy =                       -191.9973345061047212
  Basis Set: CC-PVTZ
  Basis Set:
  Basis Set: CC-PVTZ
  Basis Set:
  @DF-RHF Final Energy:  -191.99770058276897
    Total Energy =                       -191.9977005827689425
  Basis Set: CC-PVTZ
  Basis Set:
  Basis Set: CC-PVTZ
  Basis Set:
  @DF-RHF Final Energy:  -191.99771678766240
    Total Energy =                       -191.9977167876623128
  Basis Set: CC-PVTZ
  Basis Set:
  Basis Set: CC-PVTZ
  Basis Set:
  @DF-RHF Final Energy:  -191.99771953513812
    Total Energy =                       -191.9977195351381454
  Basis Set: CC-PVTZ
  Basis Set:
  Basis Set: CC-PVTZ
  Basis Set:
  @DF-RHF Final Energy:  -191.99772553923844
    Total Energy =                       -191.9977255392385302
  Basis Set: CC-PVTZ
  Basis Set:
  Basis Set: CC-PVTZ
  Basis Set:
  @DF-RHF Final Energy:  -191.99773141142100
    Total Energy =                       -191.9977314114210003
  Basis Set: CC-PVTZ
  Basis Set:
  Charge       = 0
  Multiplicity = 1
  Basis Set: CC-PVTZ
  Basis Set:

    Orbital Energies (a.u.)
    -----------------------

    Doubly Occupied:

       1A    -20.553916     2A    -11.278060     3A    -11.223699
       4A    -11.207676     5A     -1.374227     6A     -1.058523
       7A     -0.925919     8A     -0.756382     9A     -0.714156
      10A     -0.640245    11A     -0.618973    12A     -0.594059
      13A     -0.517898    14A     -0.487984    15A     -0.458749
      16A     -0.360301

  @DF-RHF Final Energy:  -191.99773144918680

   => Energetics <=

    Nuclear Repulsion Energy =            119.6691120667639865
    One-Electron Energy =                -497.7921559199319859
    Two-Electron Energy =                 186.1253124039811269
    DFT Exchange-Correlation Energy =       0.0000000000000000
    Empirical Dispersion Energy =           0.0000000000000000
    PCM Polarization Energy =               0.0000000000000000
    EFP Energy =                            0.0000000000000000
    Total Energy =                       -191.9977314491868583
    Molecular point group: c1
  Basis Set: CC-PVTZ
  Basis Set:

  -Total Gradient:
     Atom            X                  Y                   Z
    ------   -----------------  -----------------  -----------------
       1       -0.000447232376    -0.000222976223    -0.000229325757
       2        0.000610370885     0.000374999071     0.000179105256
       3       -0.000493975756    -0.000318163296     0.000371091627
       4        0.000056953558     0.000012224580     0.000015888446
       5        0.000288132042     0.000177932978    -0.000348656090
       6        0.000000533284    -0.000011134611     0.000015495072
       7        0.000031752123     0.000010059972    -0.000005525930
       8       -0.000013466035    -0.000006883290     0.000002135652
       9       -0.000009151718    -0.000007630500     0.000002059385
      10       -0.000023916006    -0.000008428681    -0.000002267660

  **** Optimization is complete! (in 8 steps) ****
    Final optimized geometry and variables:
    Molecular point group: c1

    Geometry (in Angstrom), charge = 0, multiplicity = 1:

    H            0.225839562790    -1.589206457608     1.589789535135
    O            0.367762292561    -1.087783610868     0.808879374552
    C           -0.315528194607     0.127169914074     0.892681001852
    C           -0.317017862391     0.831501582630    -0.429081907124
    H            0.147983601326     0.778968507214     1.631659203166
    H           -1.346379420736    -0.027856761928     1.206393477999
    C            0.217572770119     0.379150862419    -1.540335472144
    H           -0.808567579267     1.789879422148    -0.420753731160
    H            0.714172460742    -0.570193074506    -1.577624251266
    H            0.171312748873     0.953102014978    -2.446451313925

  Mulliken Charges: (a.u.)
   Center  Symbol    Alpha    Beta     Spin     Total
       1     H     0.39521  0.39521  0.00000  0.20957
       2     O     4.19055  4.19055  0.00000 -0.38109
       3     C     2.93787  2.93787  0.00000  0.12425
       4     C     3.08223  3.08223  0.00000 -0.16446
       5     H     0.47424  0.47424  0.00000  0.05151
       6     H     0.47502  0.47502  0.00000  0.04996
       7     C     3.17003  3.17003  0.00000 -0.34005
       8     H     0.42405  0.42405  0.00000  0.15189
       9     H     0.42044  0.42044  0.00000  0.15911
      10     H     0.43035  0.43035  0.00000  0.13930

   Total alpha = 16.00000, Total beta = 16.00000, Total charge =  0.00000
