  ==> Input File <==

--------------------------------------------------------------------------
set {
	reference rhf
	basis cc-pvtz
}

set_num_threads( 4 )
memory 2 gb

molecule MOL {
0 1

O	 -0.694481	 1.313155	 -0.204815
C	 -0.862519	 0.151932	 -0.046791
C	 -2.171428	 -0.477048	 0.339095
O	 0.085519	 -0.757083	 -0.192238
H	 -2.467997	 -1.191667	 -0.417688
H	 -2.923379	 0.287970	 0.444097
H	 -2.053854	 -1.015120	 1.270901
C	 1.392036	 -0.330828	 -0.560749
C	 2.089423	 -1.353625	 -1.433352
H	 1.963724	 -0.125887	 0.330872
H	 1.236998	 0.592191	 -1.099033
H	 3.051951	 -0.966494	 -1.748189
H	 2.254463	 -2.275175	 -0.892159
H	 1.501807	 -1.565832	 -2.318377

	symmetry c1
}
set optking {
	frozen_dihedral = ("
		10 8 4 2
	")
}

ee = optimize('scf')
oeprop('DIPOLE', 'QUADRUPOLE', 'MULLIKEN_CHARGES')
f=open( 'psi4out.xyz', 'w' )
f.write( "14  " )
f.write( str(ee) + "\n" )
f.write( MOL.save_string_xyz() )
f.close()
--------------------------------------------------------------------------

    Molecular point group: c1
  Charge       = 0
  Multiplicity = 1
  Basis Set: CC-PVTZ
  Basis Set:
  @DF-RHF Final Energy:  -305.98926773955975
    Total Energy =                       -305.9892677395598639
    Molecular point group: c1
  Basis Set: CC-PVTZ
  Basis Set:
  Basis Set: CC-PVTZ
  Basis Set:
  @DF-RHF Final Energy:  -305.99054023180247
    Total Energy =                       -305.9905402318025267
  Basis Set: CC-PVTZ
  Basis Set:
  Basis Set: CC-PVTZ
  Basis Set:
  @DF-RHF Final Energy:  -305.99082367687419
    Total Energy =                       -305.9908236768744700
  Basis Set: CC-PVTZ
  Basis Set:
  Basis Set: CC-PVTZ
  Basis Set:
  @DF-RHF Final Energy:  -305.99093291297015
    Total Energy =                       -305.9909329129699813
  Basis Set: CC-PVTZ
  Basis Set:
  Basis Set: CC-PVTZ
  Basis Set:
  @DF-RHF Final Energy:  -305.99098095711162
    Total Energy =                       -305.9909809571114465
  Basis Set: CC-PVTZ
  Basis Set:
  Charge       = 0
  Multiplicity = 1
  Basis Set: CC-PVTZ
  Basis Set:

    Orbital Energies (a.u.)
    -----------------------

    Doubly Occupied:

       1A    -20.594479     2A    -20.532753     3A    -11.367797
       4A    -11.282734     5A    -11.231480     6A    -11.220868
       7A     -1.470193     8A     -1.366077     9A     -1.058863
      10A     -1.000781    11A     -0.874014    12A     -0.780379
      13A     -0.696962    14A     -0.687716    15A     -0.667334
      16A     -0.612699    17A     -0.581941    18A     -0.564235
      19A     -0.558322    20A     -0.538760    21A     -0.513945
      22A     -0.501101    23A     -0.455509    24A     -0.441936

  @DF-RHF Final Energy:  -305.99098116947164

   => Energetics <=

    Nuclear Repulsion Energy =            246.0662135782069129
    One-Electron Energy =                -904.9126326284783772
    Two-Electron Energy =                 352.8554378807996841
    DFT Exchange-Correlation Energy =       0.0000000000000000
    Empirical Dispersion Energy =           0.0000000000000000
    PCM Polarization Energy =               0.0000000000000000
    EFP Energy =                            0.0000000000000000
    Total Energy =                       -305.9909811694718087
    Molecular point group: c1
  Basis Set: CC-PVTZ
  Basis Set:

  -Total Gradient:
     Atom            X                  Y                   Z
    ------   -----------------  -----------------  -----------------
       1       -0.000028002761     0.000005789950     0.000010273425
       2       -0.000359107348    -0.000101418199    -0.001395027591
       3        0.000004680589     0.000001367004    -0.000013940907
       4        0.000744709665    -0.000208346568     0.001954181529
       5        0.000004680408     0.000002381041     0.000005529111
       6       -0.000002009871     0.000001074948     0.000002917853
       7        0.000002217085     0.000003052293     0.000004616996
       8       -0.000839608937     0.001826219828    -0.000565417562
       9       -0.000042840217    -0.000017909365     0.000003943623
      10        0.000539683108    -0.001505810200     0.000007109176
      11       -0.000007521919    -0.000008983993    -0.000003297898
      12       -0.000018921228     0.000016045673     0.000013216563
      13        0.000003517769    -0.000001430205    -0.000005578500
      14       -0.000001476345    -0.000012032206    -0.000018525819

  **** Optimization is complete! (in 6 steps) ****
    Final optimized geometry and variables:
    Molecular point group: c1

    Geometry (in Angstrom), charge = 0, multiplicity = 1:

    O           -0.694604570377     1.563347139457     0.199251024678
    C           -0.837553055323     0.394339028088     0.315263045232
    C           -2.131468401503    -0.275101427431     0.683527301338
    O            0.128214284548    -0.490904269293     0.139016654701
    H           -2.417814316915    -0.967606835943    -0.097357141065
    H           -2.898051966082     0.470126916483     0.819984621870
    H           -1.998077047307    -0.844148409633     1.594536020089
    C            1.419751396799    -0.038982193252    -0.247860226160
    C            2.074594140594    -1.131025639174    -1.063608418975
    H            1.990023148987     0.159493679596     0.650522239133
    H            1.328017610538     0.877821393572    -0.806346492172
    H            3.077052875489    -0.827693603215    -1.342263907447
    H            2.140849975847    -2.050917094198    -0.496443444386
    H            1.512080744116    -1.326181513194    -1.968178508458

  Mulliken Charges: (a.u.)
   Center  Symbol    Alpha    Beta     Spin     Total
       1     O     4.19783  4.19783  0.00000 -0.39566
       2     C     2.80392  2.80392  0.00000  0.39215
       3     C     3.13946  3.13946  0.00000 -0.27892
       4     O     4.15453  4.15453  0.00000 -0.30906
       5     H     0.44625  0.44625  0.00000  0.10751
       6     H     0.43811  0.43811  0.00000  0.12378
       7     H     0.44560  0.44560  0.00000  0.10880
       8     C     2.98202  2.98202  0.00000  0.03596
       9     C     3.13254  3.13254  0.00000 -0.26507
      10     H     0.45634  0.45634  0.00000  0.08733
      11     H     0.44538  0.44538  0.00000  0.10925
      12     H     0.45462  0.45462  0.00000  0.09077
      13     H     0.45139  0.45139  0.00000  0.09723
      14     H     0.45203  0.45203  0.00000  0.09595

   Total alpha = 24.00000, Total beta = 24.00000, Total charge = -0.00000
