  ==> Input File <==

--------------------------------------------------------------------------
set {
	reference rhf
	basis 6-31G*
}

set_num_threads( 1 )
memory 2 gb

molecule MOL {
0 1

H	 5.033327	 -1.151458	 0.852176
C	 4.431661	 -1.132095	 -0.051232
C	 2.948133	 -0.968153	 0.276553
H	 4.787079	 -0.311810	 -0.667796
H	 4.616049	 -2.056751	 -0.591428
C	 2.069594	 -0.943831	 -0.976200
H	 2.804346	 -0.050164	 0.837109
H	 2.630403	 -1.784839	 0.922900
C	 0.577034	 -0.798879	 -0.678677
H	 2.380483	 -0.130801	 -1.622709
H	 2.219097	 -1.866198	 -1.532914
C	 0.169600	 0.576866	 -0.172154
H	 0.002417	 -0.977604	 -1.586225
H	 0.247148	 -1.553954	 0.031403
C	 -1.181045	 0.701995	 0.511084
O	 0.872466	 1.531203	 -0.319210
C	 -2.285934	 -0.139295	 -0.145128
H	 -1.449051	 1.751551	 0.493206
H	 -1.071135	 0.403303	 1.551943
C	 -3.651768	 0.085446	 0.506485
H	 -2.346596	 0.110469	 -1.202272
H	 -2.034737	 -1.195320	 -0.088721
C	 -4.759797	 -0.746382	 -0.137905
H	 -3.908762	 1.140117	 0.445781
H	 -3.588286	 -0.154158	 1.565709
H	 -4.868882	 -0.505166	 -1.191300
H	 -4.548009	 -1.809175	 -0.062213
H	 -5.715422	 -0.564821	 0.343442

	symmetry c1
}
set optking {
	frozen_dihedral = ("
		10 6 3 2,
		12 15 17 21
	")
}

ee = energy('scf')
oeprop('DIPOLE', 'QUADRUPOLE', 'MULLIKEN_CHARGES')
f=open( 'psi4out.xyz', 'w' )
f.write( "28  " )
f.write( str(ee) + "\n" )
f.write( MOL.save_string_xyz() )
f.close()
--------------------------------------------------------------------------

    Molecular point group: c1

    Geometry (in Angstrom), charge = 0, multiplicity = 1:

       Center              X                  Y                   Z               Mass
    ------------   -----------------  -----------------  -----------------  -----------------
           H          5.111304688202    -0.963813218253     0.971959266078     1.007825032070
           C          4.509638688202    -0.944450218253     0.068551266078    12.000000000000
           C          3.026110688202    -0.780508218253     0.396336266078    12.000000000000
           H          4.865056688202    -0.124165218253    -0.548012733922     1.007825032070
           H          4.694026688202    -1.869106218253    -0.471644733922     1.007825032070
           C          2.147571688202    -0.756186218253    -0.856416733922    12.000000000000
           H          2.882323688202     0.137480781747     0.956892266078     1.007825032070
           H          2.708380688202    -1.597194218253     1.042683266078     1.007825032070
           C          0.655011688202    -0.611234218253    -0.558893733922    12.000000000000
           H          2.458460688202     0.056843781747    -1.502925733922     1.007825032070
           H          2.297074688202    -1.678553218253    -1.413130733922     1.007825032070
           C          0.247577688202     0.764510781747    -0.052370733922    12.000000000000
           H          0.080394688202    -0.789959218253    -1.466441733922     1.007825032070
           H          0.325125688202    -1.366309218253     0.151186266078     1.007825032070
           C         -1.103067311798     0.889639781747     0.630867266078    12.000000000000
           O          0.950443688202     1.718847781747    -0.199426733922    15.994914619560
           C         -2.207956311798     0.048349781747    -0.025344733922    12.000000000000
           H         -1.371073311798     1.939195781747     0.612989266078     1.007825032070
           H         -0.993157311798     0.590947781747     1.671726266078     1.007825032070
           C         -3.573790311798     0.273090781747     0.626268266078    12.000000000000
           H         -2.268618311798     0.298113781747    -1.082488733922     1.007825032070
           H         -1.956759311798    -1.007675218253     0.031062266078     1.007825032070
           C         -4.681819311798    -0.558737218253    -0.018121733922    12.000000000000
           H         -3.830784311798     1.327761781747     0.565564266078     1.007825032070
           H         -3.510308311798     0.033486781747     1.685492266078     1.007825032070
           H         -4.790904311798    -0.317521218253    -1.071516733922     1.007825032070
           H         -4.470031311798    -1.621530218253     0.057570266078     1.007825032070
           H         -5.637444311798    -0.377176218253     0.463225266078     1.007825032070

  Charge       = 0
  Multiplicity = 1
  Basis Set: 6-31G*
  Basis Set:

    Orbital Energies (a.u.)
    -----------------------

    Doubly Occupied:

       1A    -20.547429     2A    -11.322681     3A    -11.231260
       4A    -11.229815     5A    -11.229699     6A    -11.226151
       7A    -11.216649     8A    -11.216156     9A    -11.212356
      10A    -11.205719    11A     -1.392888    12A     -1.096789
      13A     -1.076816    14A     -1.023104    15A     -0.990260
      16A     -0.905812    17A     -0.875400    18A     -0.809270
      19A     -0.800583    20A     -0.721754    21A     -0.667463
      22A     -0.657219    23A     -0.628441    24A     -0.619084
      25A     -0.609311    26A     -0.586660    27A     -0.580931
      28A     -0.574410    29A     -0.542581    30A     -0.530998
      31A     -0.519643    32A     -0.513454    33A     -0.493747
      34A     -0.486145    35A     -0.480133    36A     -0.476145
      37A     -0.469552    38A     -0.465246    39A     -0.455380
      40A     -0.392237

  @DF-RHF Final Energy:  -426.16796818221951

   => Energetics <=

    Nuclear Repulsion Energy =            533.1211018937400468
    One-Electron Energy =               -1634.4194346925639820
    Two-Electron Energy =                 675.1303646166041972
    DFT Exchange-Correlation Energy =       0.0000000000000000
    Empirical Dispersion Energy =           0.0000000000000000
    PCM Polarization Energy =               0.0000000000000000
    EFP Energy =                            0.0000000000000000
    Total Energy =                       -426.1679681822198518

  Mulliken Charges: (a.u.)
   Center  Symbol    Alpha    Beta     Spin     Total
       1     H     0.41939  0.41939  0.00000  0.16121
       2     C     3.24011  3.24011  0.00000 -0.48021
       3     C     3.15646  3.15646  0.00000 -0.31292
       4     H     0.41826  0.41826  0.00000  0.16349
       5     H     0.42362  0.42362  0.00000  0.15276
       6     C     3.14857  3.14857  0.00000 -0.29713
       7     H     0.41050  0.41050  0.00000  0.17901
       8     H     0.42787  0.42787  0.00000  0.14427
       9     C     3.21482  3.21482  0.00000 -0.42965
      10     H     0.40672  0.40672  0.00000  0.18656
      11     H     0.42203  0.42203  0.00000  0.15593
      12     C     2.72830  2.72830  0.00000  0.54340
      13     H     0.40236  0.40236  0.00000  0.19529
      14     H     0.41223  0.41223  0.00000  0.17553
      15     C     3.20329  3.20329  0.00000 -0.40658
      16     O     4.26847  4.26847  0.00000 -0.53695
      17     C     3.16494  3.16494  0.00000 -0.32988
      18     H     0.39951  0.39951  0.00000  0.20099
      19     H     0.40689  0.40689  0.00000  0.18621
      20     C     3.15150  3.15150  0.00000 -0.30300
      21     H     0.41744  0.41744  0.00000  0.16513
      22     H     0.41804  0.41804  0.00000  0.16392
      23     C     3.24006  3.24006  0.00000 -0.48012
      24     H     0.41903  0.41903  0.00000  0.16194
      25     H     0.42138  0.42138  0.00000  0.15724
      26     H     0.42018  0.42018  0.00000  0.15963
      27     H     0.42119  0.42119  0.00000  0.15762
      28     H     0.41685  0.41685  0.00000  0.16631

   Total alpha = 40.00000, Total beta = 40.00000, Total charge = -0.00000
