  ==> Input File <==

--------------------------------------------------------------------------
set {
	reference rhf
	basis 6-31G*
}

set_num_threads( 4 )
memory 2 gb

molecule MOL {
0 1

H	 2.089532	 0.554382	 -3.100174
O	 2.362758	 -0.115411	 -3.709924
C	 2.672632	 -1.294188	 -3.010983
C	 1.441309	 -2.018050	 -2.477509
H	 3.191353	 -1.928167	 -3.718566
H	 3.365659	 -1.083697	 -2.197235
C	 0.658050	 -1.224027	 -1.429225
H	 0.791395	 -2.256412	 -3.315460
H	 1.764330	 -2.964575	 -2.047260
C	 -0.540329	 -1.999035	 -0.874187
H	 0.314877	 -0.292218	 -1.870055
H	 1.322046	 -0.956351	 -0.607155
C	 -1.309753	 -1.282496	 0.241564
H	 -1.223165	 -2.233834	 -1.688712
H	 -0.187273	 -2.953918	 -0.490456
C	 -2.037799	 -0.007733	 -0.193645
H	 -2.040577	 -1.975959	 0.652443
H	 -0.626038	 -1.047323	 1.055853
C	 -3.489788	 0.042957	 0.286558
H	 -2.017067	 0.064384	 -1.280144
H	 -1.513726	 0.868678	 0.179924
C	 -4.216917	 1.317354	 -0.141063
H	 -4.025645	 -0.823308	 -0.095450
H	 -3.513059	 -0.038752	 1.371301
H	 -4.239342	 1.411634	 -1.223113
H	 -5.243387	 1.322503	 0.212445
H	 -3.726170	 2.201406	 0.256408

	symmetry c1
}
set optking {
	frozen_dihedral = ("
		10 13 16 20
	")
}

ee = optimize('scf')
oeprop('DIPOLE', 'QUADRUPOLE', 'MULLIKEN_CHARGES')
f=open( 'psi4out.xyz', 'w' )
f.write( "27  " )
f.write( str(ee) + "\n" )
f.write( MOL.save_string_xyz() )
f.close()
--------------------------------------------------------------------------

    Molecular point group: c1
  Charge       = 0
  Multiplicity = 1
  Basis Set: 6-31G*
  Basis Set:
  @DF-RHF Final Energy:  -388.27732000359782
    Total Energy =                       -388.2773200035978789
    Molecular point group: c1
  Basis Set: 6-31G*
  Basis Set:
  Basis Set: 6-31G*
  Basis Set:
  @DF-RHF Final Energy:  -388.27759380586548
    Total Energy =                       -388.2775938058653082
  Basis Set: 6-31G*
  Basis Set:
  Basis Set: 6-31G*
  Basis Set:
  @DF-RHF Final Energy:  -388.27767596043316
    Total Energy =                       -388.2776759604331573
  Basis Set: 6-31G*
  Basis Set:
  Basis Set: 6-31G*
  Basis Set:
  @DF-RHF Final Energy:  -388.27766157521131
    Total Energy =                       -388.2776615752122780
  Basis Set: 6-31G*
  Basis Set:
  Basis Set: 6-31G*
  Basis Set:
  @DF-RHF Final Energy:  -388.27767957891018
    Total Energy =                       -388.2776795789102380
  Basis Set: 6-31G*
  Basis Set:
  Basis Set: 6-31G*
  Basis Set:
  @DF-RHF Final Energy:  -388.27768201143761
    Total Energy =                       -388.2776820114377188
  Basis Set: 6-31G*
  Basis Set:
  Charge       = 0
  Multiplicity = 1
  Basis Set: 6-31G*
  Basis Set:

    Orbital Energies (a.u.)
    -----------------------

    Doubly Occupied:

       1A    -20.552178     2A    -11.266970     3A    -11.219648
       4A    -11.217373     5A    -11.216365     6A    -11.215283
       7A    -11.215152     8A    -11.214261     9A    -11.208989
      10A     -1.358939    11A     -1.094353    12A     -1.060791
      13A     -1.011211    14A     -0.947287    15A     -0.888011
      16A     -0.821200    17A     -0.802855    18A     -0.776926
      19A     -0.693625    20A     -0.653882    21A     -0.628172
      22A     -0.615892    23A     -0.603762    24A     -0.586099
      25A     -0.577645    26A     -0.554657    27A     -0.537606
      28A     -0.531211    29A     -0.505656    30A     -0.493638
      31A     -0.483898    32A     -0.477259    33A     -0.469990
      34A     -0.454274    35A     -0.452554    36A     -0.442598
      37A     -0.422427

  @DF-RHF Final Energy:  -388.27768210710451

   => Energetics <=

    Nuclear Repulsion Energy =            460.1414696890785763
    One-Electron Energy =               -1438.2930217219425231
    Two-Electron Energy =                 589.8738699257589815
    DFT Exchange-Correlation Energy =       0.0000000000000000
    Empirical Dispersion Energy =           0.0000000000000000
    PCM Polarization Energy =               0.0000000000000000
    EFP Energy =                            0.0000000000000000
    Total Energy =                       -388.2776821071049653
    Molecular point group: c1
  Basis Set: 6-31G*
  Basis Set:

  -Total Gradient:
     Atom            X                  Y                   Z
    ------   -----------------  -----------------  -----------------
       1        0.000004188607     0.000010181572    -0.000012523344
       2       -0.000003273760     0.000006488019     0.000028147390
       3        0.000014844052    -0.000022769002    -0.000026787110
       4        0.000009578377    -0.000014140578     0.000029983160
       5        0.000004854068    -0.000010884053     0.000003849009
       6       -0.000004939970     0.000006585220    -0.000001687199
       7       -0.000026404414     0.000000730305    -0.000001197946
       8        0.000008890482     0.000017155577     0.000000761309
       9       -0.000002545676    -0.000005869907    -0.000006994530
      10       -0.001794544940    -0.001244320276    -0.000416199825
      11       -0.000033280630     0.000020606922     0.000014401655
      12       -0.000002859286    -0.000001447895    -0.000035950734
      13        0.003174255689     0.002121130852     0.000656127781
      14        0.000010803306     0.000002291798    -0.000013075692
      15       -0.000004991284    -0.000004090991     0.000005417176
      16       -0.003933906108    -0.002454127513    -0.000315607561
      17        0.000022339283    -0.000012073111    -0.000001790197
      18        0.000000366355    -0.000013055803     0.000011665699
      19       -0.000022574762     0.000010911022     0.000006430088
      20        0.002586644013     0.001596084212     0.000089358340
      21       -0.000008695041    -0.000004367653    -0.000015104064
      22        0.000001706920    -0.000001884200     0.000000903122
      23       -0.000003381117     0.000000108590    -0.000002889158
      24       -0.000001764381    -0.000001937477     0.000003094450
      25       -0.000000124107     0.000000419559    -0.000002709392
      26        0.000004194462    -0.000004445126     0.000000649739
      27        0.000000619858     0.000002719936     0.000001727839

  **** Optimization is complete! (in 7 steps) ****
    Final optimized geometry and variables:
    Molecular point group: c1

    Geometry (in Angstrom), charge = 0, multiplicity = 1:

    H            2.561330228871     1.282832546246    -1.718962158806
    O            2.810020058251     0.639386107231    -2.366480517785
    C            3.112221850637    -0.577535765619    -1.732664686895
    C            1.878642074930    -1.303642026612    -1.207591292961
    H            3.603387611912    -1.185369690316    -2.481628280838
    H            3.826382329013    -0.419680129592    -0.925317044402
    C            1.131313833533    -0.545293425389    -0.108204894011
    H            1.207805381098    -1.491648711643    -2.041830027987
    H            2.192473201959    -2.274596977168    -0.827807845628
    C           -0.061756860637    -1.325458444841     0.450171016550
    H            0.786715432801     0.408936076393    -0.499221549401
    H            1.818419477291    -0.318251211691     0.706941036028
    C           -0.834368174936    -0.587150690671     1.548535159873
    H           -0.744225935361    -1.571470220955    -0.361266975954
    H            0.295988633708    -2.273252959581     0.846948192474
    C           -1.586428692134     0.673354043265     1.068313401500
    H           -1.552033404015    -1.285022576005     1.973560317562
    H           -0.156295950778    -0.331396974254     2.359091384585
    C           -3.028937520383     0.753299430466     1.570823371935
    H           -1.577188054485     0.720846099495    -0.018623912418
    H           -1.054281301605     1.564863143545     1.393563123649
    C           -3.750761900177     2.022062926541     1.120096618087
    H           -3.577698054532    -0.119134280706     1.222220747165
    H           -3.033044290281     0.700963780675     2.657681129305
    H           -3.788638602570     2.087462600144     0.036270048626
    H           -4.771716016206     2.046080779853     1.488472144916
    H           -3.246098479898     2.911728245578     1.486374168450

  Mulliken Charges: (a.u.)
   Center  Symbol    Alpha    Beta     Spin     Total
       1     H     0.27980  0.27980  0.00000  0.44040
       2     O     4.37101  4.37101  0.00000 -0.74203
       3     C     2.99737  2.99737  0.00000  0.00527
       4     C     3.16090  3.16090  0.00000 -0.32180
       5     H     0.41450  0.41450  0.00000  0.17101
       6     H     0.43202  0.43202  0.00000  0.13596
       7     C     3.16307  3.16307  0.00000 -0.32613
       8     H     0.41516  0.41516  0.00000  0.16968
       9     H     0.42429  0.42429  0.00000  0.15141
      10     C     3.15340  3.15340  0.00000 -0.30681
      11     H     0.42257  0.42257  0.00000  0.15485
      12     H     0.42545  0.42545  0.00000  0.14910
      13     C     3.15695  3.15695  0.00000 -0.31389
      14     H     0.42167  0.42167  0.00000  0.15666
      15     H     0.42210  0.42210  0.00000  0.15579
      16     C     3.15462  3.15462  0.00000 -0.30924
      17     H     0.41893  0.41893  0.00000  0.16214
      18     H     0.42155  0.42155  0.00000  0.15691
      19     C     3.15288  3.15288  0.00000 -0.30575
      20     H     0.42121  0.42121  0.00000  0.15757
      21     H     0.42289  0.42289  0.00000  0.15422
      22     C     3.24011  3.24011  0.00000 -0.48022
      23     H     0.42265  0.42265  0.00000  0.15470
      24     H     0.42247  0.42247  0.00000  0.15506
      25     H     0.42137  0.42137  0.00000  0.15725
      26     H     0.41912  0.41912  0.00000  0.16176
      27     H     0.42193  0.42193  0.00000  0.15613

   Total alpha = 37.00000, Total beta = 37.00000, Total charge = -0.00000
