                              Psi4 1.0.54 Driver

  ==> Input File <==

--------------------------------------------------------------------------
set {
	reference rhf
	basis cc-pvtz
}

set_num_threads( 4 )
memory 2 gb

molecule MOL {
0 1

H	 2.848013	 -0.421477	 0.000122
O	 2.012307	 -0.863440	 0.000222
C	 1.050374	 0.054877	 0.000135
C	 -0.318151	 -0.570512	 0.000144
O	 1.286319	 1.213453	 -0.000040
C	 -1.454884	 0.441630	 -0.000560
H	 -0.371613	 -1.223646	 -0.864985
H	 -0.371920	 -1.222758	 0.865929
C	 -2.822577	 -0.232186	 0.000063
H	 -1.359760	 1.084704	 -0.867077
H	 -1.359641	 1.085996	 0.864983
H	 -2.954352	 -0.858985	 -0.875745
H	 -3.615886	 0.505352	 0.000019
H	 -2.953878	 -0.858359	 0.876394

	symmetry c1
}
set optking {
	frozen_dihedral = ("
		1 2 3 5
	")
}

ee,wfn = optimize('scf', return_wfn=True)
oeprop( wfn, 'DIPOLE', 'QUADRUPOLE', 'MULLIKEN_CHARGES')
f=open( 'psi4out.xyz', 'w' )
f.write( "14  " )
f.write( str(ee) + "\n" )
f.write( MOL.save_string_xyz() )
f.close()
--------------------------------------------------------------------------

    Molecular point group: c1
  Charge       = 0
  Multiplicity = 1
  Basis Set: CC-PVTZ
  Basis Set:

    Orbital Energies (a.u.)
    -----------------------

    Doubly Occupied:

       1A    -20.604480     2A    -20.541064     3A    -11.374026
       4A    -11.239874     5A    -11.223888     6A    -11.215421
       7A     -1.478080     8A     -1.369619     9A     -1.084467
      10A     -0.981012    11A     -0.859289    12A     -0.792984
      13A     -0.704190    14A     -0.691931    15A     -0.670074
      16A     -0.617922    17A     -0.596887    18A     -0.574686
      19A     -0.546034    20A     -0.507068    21A     -0.492306
      22A     -0.485319    23A     -0.482029    24A     -0.447751

  @DF-RHF Final Energy:  -306.00105645947838

   => Energetics <=

    Nuclear Repulsion Energy =            240.4526653529865996
    One-Electron Energy =                -893.7466392267989477
    Two-Electron Energy =                 347.2929174143339424
    DFT Exchange-Correlation Energy =       0.0000000000000000
    Empirical Dispersion Energy =           0.0000000000000000
    PCM Polarization Energy =               0.0000000000000000
    EFP Energy =                            0.0000000000000000
    Total Energy =                       -306.0010564594783773
    Molecular point group: c1
  Basis Set: CC-PVTZ
  Basis Set:

  -Total Gradient:
     Atom            X                  Y                   Z
    ------   -----------------  -----------------  -----------------
       1        0.000002031472    -0.000030863416    -0.000002343653
       2       -0.000001004765     0.000061903244    -0.000005231140
       3        0.000023901063    -0.000046504756     0.000027570425
       4        0.000013969180     0.000021149948    -0.000004961939
       5        0.000001958418     0.000020364599    -0.000007596830
       6       -0.000007999701    -0.000007717700    -0.000014022150
       7       -0.000014054995    -0.000013815527    -0.000000681834
       8       -0.000009370966    -0.000013355526    -0.000000585606
       9       -0.000004325748     0.000002884565     0.000004784465
      10        0.000000612527     0.000004486683     0.000003877238
      11       -0.000000740428     0.000006752710    -0.000003013400
      12       -0.000001078641     0.000002731043     0.000001839341
      13       -0.000001146802    -0.000005388308     0.000002720801
      14       -0.000002750609    -0.000002627557    -0.000002355718

  **** Optimization is complete! (in 1 steps) ****
    Final optimized geometry and variables:
    Molecular point group: c1

    Geometry (in Angstrom), charge = 0, multiplicity = 1:

    H            2.848012887088    -0.421477269280     0.000122769343
    O            2.012306887088    -0.863440269280     0.000222769343
    C            1.050373887088     0.054876730720     0.000135769343
    C           -0.318151112912    -0.570512269280     0.000144769343
    O            1.286318887088     1.213452730720    -0.000039230657
    C           -1.454884112912     0.441629730720    -0.000559230657
    H           -0.371613112912    -1.223646269280    -0.864984230657
    H           -0.371920112912    -1.222758269280     0.865929769343
    C           -2.822577112912    -0.232186269280     0.000063769343
    H           -1.359760112912     1.084703730720    -0.867076230657
    H           -1.359641112912     1.085995730720     0.864983769343
    H           -2.954352112912    -0.858985269280    -0.875744230657
    H           -3.615886112912     0.505351730720     0.000019769343
    H           -2.953878112912    -0.858359269280     0.876394769343

  Mulliken Charges: (a.u.)
   Center  Symbol    Alpha    Beta     Spin     Total
       1     H     0.38231  0.38231  0.00000  0.23538
       2     O     4.16005  4.16005  0.00000 -0.32010
       3     C     2.80527  2.80527  0.00000  0.38945
       4     C     3.10547  3.10547  0.00000 -0.21093
       5     O     4.19095  4.19095  0.00000 -0.38190
       6     C     3.07933  3.07933  0.00000 -0.15865
       7     H     0.43889  0.43889  0.00000  0.12222
       8     H     0.43890  0.43890  0.00000  0.12219
       9     C     3.15031  3.15031  0.00000 -0.30061
      10     H     0.44622  0.44622  0.00000  0.10756
      11     H     0.44621  0.44621  0.00000  0.10759
      12     H     0.45550  0.45550  0.00000  0.08900
      13     H     0.44509  0.44509  0.00000  0.10981
      14     H     0.45551  0.45551  0.00000  0.08899

   Total alpha = 24.00000, Total beta = 24.00000, Total charge = -0.00000

*** Psi4 exiting successfully. Buy a developer a beer!
