  ==> Input File <==

--------------------------------------------------------------------------
set {
	reference rhf
	basis 6-31G*
}

set_num_threads( 1 )
memory 2 gb

molecule MOL {
0 1

H	 -2.477269	 0.785776	 -1.738170
C	 -1.789711	 -0.055521	 -1.677961
O	 -1.392607	 -0.295399	 -0.366433
H	 -2.291987	 -0.944261	 -2.034334
H	 -0.936822	 0.149059	 -2.323837
C	 -0.719715	 0.768384	 0.229244
C	 0.719720	 0.768376	 -0.229267
H	 -1.185038	 1.714362	 -0.050570
H	 -0.750528	 0.687237	 1.313896
O	 1.392611	 -0.295398	 0.366430
H	 0.750534	 0.687200	 -1.313918
H	 1.185043	 1.714359	 0.050526
C	 2.706965	 -0.449871	 -0.062409
H	 2.756559	 -0.644779	 -1.131878
H	 3.305899	 0.433456	 0.155466
H	 3.125548	 -1.294566	 0.467107

	symmetry c1
}
set optking {
	frozen_dihedral = ("
		3 6 7 11,
		7 10 13 14
	")
}

ee = energy('scf')
oeprop('DIPOLE', 'QUADRUPOLE', 'MULLIKEN_CHARGES')
f=open( 'psi4out.xyz', 'w' )
f.write( "16  " )
f.write( str(ee) + "\n" )
f.write( MOL.save_string_xyz() )
f.close()
--------------------------------------------------------------------------

    Molecular point group: c1

    Geometry (in Angstrom), charge = 0, multiplicity = 1:

       Center              X                  Y                   Z               Mass
    ------------   -----------------  -----------------  -----------------  -----------------
           H         -2.638439942413     0.716492421013    -1.432377248255     1.007825032070
           C         -1.950881942413    -0.124804578987    -1.372168248255    12.000000000000
           O         -1.553777942413    -0.364682578987    -0.060640248255    15.994914619560
           H         -2.453157942413    -1.013544578987    -1.728541248255     1.007825032070
           H         -1.097992942413     0.079775421013    -2.018044248255     1.007825032070
           C         -0.880885942413     0.699100421013     0.535036751745    12.000000000000
           C          0.558549057587     0.699092421013     0.076525751745    12.000000000000
           H         -1.346208942413     1.645078421013     0.255222751745     1.007825032070
           H         -0.911698942413     0.617953421013     1.619688751745     1.007825032070
           O          1.231440057587    -0.364681578987     0.672222751745    15.994914619560
           H          0.589363057587     0.617916421013    -1.008125248255     1.007825032070
           H          1.023872057587     1.645075421013     0.356318751745     1.007825032070
           C          2.545794057587    -0.519154578987     0.243383751745    12.000000000000
           H          2.595388057587    -0.714062578987    -0.826085248255     1.007825032070
           H          3.144728057587     0.364172421013     0.461258751745     1.007825032070
           H          2.964377057587    -1.363849578987     0.772899751745     1.007825032070

  Charge       = 0
  Multiplicity = 1
  Basis Set: 6-31G*
  Basis Set:

    Orbital Energies (a.u.)
    -----------------------

    Doubly Occupied:

       1A    -20.555144     2A    -20.553741     3A    -11.269640
       4A    -11.267836     5A    -11.266053     6A    -11.265177
       7A     -1.390638     8A     -1.371603     9A     -1.028098
      10A     -0.943246    11A     -0.899653    12A     -0.818253
      13A     -0.693470    14A     -0.679985    15A     -0.657923
      16A     -0.637333    17A     -0.625427    18A     -0.602542
      19A     -0.551821    20A     -0.530137    21A     -0.519481
      22A     -0.487606    23A     -0.462985    24A     -0.416997
      25A     -0.408843

  @DF-RHF Final Energy:  -306.97222108356885

   => Energetics <=

    Nuclear Repulsion Energy =            262.8749511074088900
    One-Electron Energy =                -939.8872150157093301
    Two-Electron Energy =                 370.0400428247318700
    DFT Exchange-Correlation Energy =       0.0000000000000000
    Empirical Dispersion Energy =           0.0000000000000000
    PCM Polarization Energy =               0.0000000000000000
    EFP Energy =                            0.0000000000000000
    Total Energy =                       -306.9722210835685132

  Mulliken Charges: (a.u.)
   Center  Symbol    Alpha    Beta     Spin     Total
       1     H     0.42970  0.42970  0.00000  0.14059
       2     C     3.08262  3.08262  0.00000 -0.16523
       3     O     4.29728  4.29728  0.00000 -0.59456
       4     H     0.40939  0.40939  0.00000  0.18122
       5     H     0.43181  0.43181  0.00000  0.13637
       6     C     3.00436  3.00436  0.00000 -0.00872
       7     C     2.99453  2.99453  0.00000  0.01094
       8     H     0.43126  0.43126  0.00000  0.13747
       9     H     0.40485  0.40485  0.00000  0.19030
      10     O     4.29955  4.29955  0.00000 -0.59909
      11     H     0.42995  0.42995  0.00000  0.14009
      12     H     0.43382  0.43382  0.00000  0.13236
      13     C     3.07903  3.07903  0.00000 -0.15806
      14     H     0.42988  0.42988  0.00000  0.14023
      15     H     0.43134  0.43134  0.00000  0.13732
      16     H     0.41062  0.41062  0.00000  0.17875

   Total alpha = 25.00000, Total beta = 25.00000, Total charge = -0.00000
