                              Psi4 1.0.54 Driver

  ==> Input File <==

--------------------------------------------------------------------------
set {
	reference rhf
	basis cc-pvtz
}

set_num_threads( 4 )
memory 2 gb

molecule MOL {
0 1

H	 1.559795	 2.100664	 0.000000
C	 1.051390	 1.154893	 0.000000
N	 -0.262011	 1.175074	 -0.000000
C	 1.761099	 -0.030042	 0.000000
C	 -0.892282	 0.016741	 -0.000000
H	 2.834222	 -0.033952	 0.000000
N	 1.144437	 -1.190496	 0.000000
C	 -0.169159	 -1.168214	 -0.000000
C	 -2.394059	 0.035735	 0.000000
H	 -0.674104	 -2.115583	 0.000000
H	 -2.760013	 0.560035	 -0.873724
H	 -2.803290	 -0.965428	 0.000000
H	 -2.760013	 0.560035	 0.873724

	symmetry c1
}
ee,wfn = energy('scf', return_wfn=True)
oeprop( wfn, 'DIPOLE', 'QUADRUPOLE', 'MULLIKEN_CHARGES')
oeprop( wfn, 'GRID_ESP')
f=open( 'psi4out.xyz', 'w' )
f.write( "13  " )
f.write( str(ee) + "\n" )
f.write( MOL.save_string_xyz() )
f.close()
--------------------------------------------------------------------------

    Molecular point group: c1

    Geometry (in Angstrom), charge = 0, multiplicity = 1:

       Center              X                  Y                   Z               Mass
    ------------   -----------------  -----------------  -----------------  -----------------
           H          1.559783093900     2.100664007930     0.000000000000     1.007825032070
           C          1.051378093900     1.154893007930     0.000000000000    12.000000000000
           N         -0.262022906100     1.175074007930     0.000000000000    14.003074004780
           C          1.761087093900    -0.030041992070     0.000000000000    12.000000000000
           C         -0.892293906100     0.016741007930     0.000000000000    12.000000000000
           H          2.834210093900    -0.033951992070     0.000000000000     1.007825032070
           N          1.144425093900    -1.190495992070     0.000000000000    14.003074004780
           C         -0.169170906100    -1.168213992070     0.000000000000    12.000000000000
           C         -2.394070906100     0.035735007930     0.000000000000    12.000000000000
           H         -0.674115906100    -2.115582992070     0.000000000000     1.007825032070
           H         -2.760024906100     0.560035007930    -0.873724000000     1.007825032070
           H         -2.803301906100    -0.965427992070     0.000000000000     1.007825032070
           H         -2.760024906100     0.560035007930     0.873724000000     1.007825032070

  Charge       = 0
  Multiplicity = 1
  Basis Set: CC-PVTZ
  Basis Set:

    Orbital Energies (a.u.)
    -----------------------

    Doubly Occupied:

       1A    -15.581188     2A    -15.576341     3A    -11.281784
       4A    -11.273371     5A    -11.268707     6A    -11.268522
       7A    -11.227535     8A     -1.316755     9A     -1.224546
      10A     -1.075843    11A     -0.975047    12A     -0.898023
      13A     -0.857677    14A     -0.718551    15A     -0.714105
      16A     -0.656797    17A     -0.606618    18A     -0.592656
      19A     -0.559805    20A     -0.551149    21A     -0.540132
      22A     -0.490148    23A     -0.434075    24A     -0.399490
      25A     -0.347837

  @DF-RHF Final Energy:  -301.82467528136863

   => Energetics <=

    Nuclear Repulsion Energy =            278.7648080877656867
    One-Electron Energy =                -960.3055138659552767
    Two-Electron Energy =                 379.7160304968208493
    DFT Exchange-Correlation Energy =       0.0000000000000000
    Empirical Dispersion Energy =           0.0000000000000000
    PCM Polarization Energy =               0.0000000000000000
    EFP Energy =                            0.0000000000000000
    Total Energy =                       -301.8246752813687408

  Mulliken Charges: (a.u.)
   Center  Symbol    Alpha    Beta     Spin     Total
       1     H     0.41334  0.41334  0.00000  0.17333
       2     C     3.04173  3.04173  0.00000 -0.08347
       3     N     3.59444  3.59444  0.00000 -0.18887
       4     C     3.04813  3.04813  0.00000 -0.09626
       5     C     2.93845  2.93845  0.00000  0.12310
       6     H     0.41370  0.41370  0.00000  0.17259
       7     N     3.58753  3.58753  0.00000 -0.17506
       8     C     3.07501  3.07501  0.00000 -0.15002
       9     C     3.12960  3.12960  0.00000 -0.25921
      10     H     0.41630  0.41630  0.00000  0.16740
      11     H     0.44443  0.44443  0.00000  0.11114
      12     H     0.45291  0.45291  0.00000  0.09418
      13     H     0.44443  0.44443  0.00000  0.11114

   Total alpha = 25.00000, Total beta = 25.00000, Total charge =  0.00000

*** Psi4 exiting successfully. Buy a developer a beer!
