                              Psi4 1.0.54 Driver

  ==> Input File <==

--------------------------------------------------------------------------
set {
	reference rhf
	basis cc-pvtz
}

set_num_threads( 4 )
memory 2 gb

molecule MOL {
0 1

H	 -1.941507	 0.348041	 2.787409
C	 -2.466646	 -0.171753	 1.974434
C	 -2.569847	 0.603630	 0.689124
O	 -2.907848	 -1.253914	 2.152135
C	 -1.216901	 1.136108	 0.207794
H	 -3.039037	 -0.025626	 -0.056016
H	 -3.234562	 1.442098	 0.885157
C	 -0.247837	 0.040196	 -0.230469
H	 -1.390564	 1.815603	 -0.619531
H	 -0.763075	 1.731072	 0.996625
C	 1.181757	 0.280428	 0.247371
H	 -0.259600	 -0.030819	 -1.314870
H	 -0.591284	 -0.923375	 0.136958
C	 2.151032	 -0.811012	 -0.202643
H	 1.515939	 1.247397	 -0.115449
H	 1.191514	 0.341223	 1.333422
C	 3.580021	 -0.656538	 0.320835
H	 2.170545	 -0.847575	 -1.289412
H	 1.766632	 -1.772905	 0.124928
C	 4.327657	 0.562694	 -0.213579
H	 4.138806	 -1.549270	 0.057813
H	 3.561991	 -0.620783	 1.406976
H	 4.355973	 0.557257	 -1.298551
H	 3.867136	 1.491650	 0.100501
H	 5.351524	 0.571613	 0.142204

	symmetry c1
}
set optking {
	frozen_dihedral = ("
		3 5 8 12
	")
}

ee,wfn = optimize('scf', return_wfn=True)
oeprop( wfn, 'DIPOLE', 'QUADRUPOLE', 'MULLIKEN_CHARGES')
f=open( 'psi4out.xyz', 'w' )
f.write( "25  " )
f.write( str(ee) + "\n" )
f.write( MOL.save_string_xyz() )
f.close()
--------------------------------------------------------------------------

    Molecular point group: c1
  Charge       = 0
  Multiplicity = 1
  Basis Set: CC-PVTZ
  Basis Set:
  @DF-RHF Final Energy:  -387.25590261888181
    Total Energy =                       -387.2559026188823736
    Molecular point group: c1
  Basis Set: CC-PVTZ
  Basis Set:
  Basis Set: CC-PVTZ
  Basis Set:
  @DF-RHF Final Energy:  -387.25614961190098
    Total Energy =                       -387.2561496119008098
  Basis Set: CC-PVTZ
  Basis Set:
  Basis Set: CC-PVTZ
  Basis Set:
  @DF-RHF Final Energy:  -387.25612384694239
    Total Energy =                       -387.2561238469422733
  Basis Set: CC-PVTZ
  Basis Set:
  Basis Set: CC-PVTZ
  Basis Set:
  @DF-RHF Final Energy:  -387.25609060618297
    Total Energy =                       -387.2560906061831929
  Basis Set: CC-PVTZ
  Basis Set:
  @DF-RHF Final Energy:  -387.25621952112817
    Total Energy =                       -387.2562195211280596
  Basis Set: CC-PVTZ
  Basis Set:
  @DF-RHF Final Energy:  -387.25624127177508
    Total Energy =                       -387.2562412717752522
  Basis Set: CC-PVTZ
  Basis Set:
  Basis Set: CC-PVTZ
  Basis Set:
  @DF-RHF Final Energy:  -387.25624682561175
    Total Energy =                       -387.2562468256115835
  Basis Set: CC-PVTZ
  Basis Set:
  Basis Set: CC-PVTZ
  Basis Set:
  @DF-RHF Final Energy:  -387.25624877885383
    Total Energy =                       -387.2562487788534327
  Basis Set: CC-PVTZ
  Basis Set:
  Charge       = 0
  Multiplicity = 1
  Basis Set: CC-PVTZ
  Basis Set:

    Orbital Energies (a.u.)
    -----------------------

    Doubly Occupied:

       1A    -20.552622     2A    -11.321485     3A    -11.234029
       4A    -11.232835     5A    -11.220371     6A    -11.217217
       7A    -11.215421     8A    -11.213979     9A    -11.208298
      10A     -1.407336    11A     -1.103351    12A     -1.069972
      13A     -1.013783    14A     -0.942481    15A     -0.876360
      16A     -0.818973    17A     -0.790199    18A     -0.780538
      19A     -0.669298    20A     -0.660450    21A     -0.639679
      22A     -0.621960    23A     -0.611102    24A     -0.585437
      25A     -0.574580    26A     -0.558312    27A     -0.534883
      28A     -0.523637    29A     -0.511214    30A     -0.500582
      31A     -0.487085    32A     -0.477312    33A     -0.463529
      34A     -0.458306    35A     -0.441740    36A     -0.412626

  @DF-RHF Final Energy:  -387.25624973031563

   => Energetics <=

    Nuclear Repulsion Energy =            443.3418883283486593
    One-Electron Energy =               -1403.2943131362026179
    Two-Electron Energy =                 572.6961750775385553
    DFT Exchange-Correlation Energy =       0.0000000000000000
    Empirical Dispersion Energy =           0.0000000000000000
    PCM Polarization Energy =               0.0000000000000000
    EFP Energy =                            0.0000000000000000
    Total Energy =                       -387.2562497303154032
    Molecular point group: c1
  Basis Set: CC-PVTZ
  Basis Set:

  -Total Gradient:
     Atom            X                  Y                   Z
    ------   -----------------  -----------------  -----------------
       1        0.000029032581     0.000036937747     0.000030297524
       2        0.000014675380    -0.000026824179     0.000074289708
       3        0.000991646970    -0.000132521665     0.002326280334
       4       -0.000029014162    -0.000055510928    -0.000004394261
       5       -0.000733688229     0.000774189265    -0.003421278711
       6       -0.000038534476    -0.000026228731    -0.000048411710
       7       -0.000047571484     0.000051110050     0.000009419785
       8       -0.002888174242    -0.002992488238     0.001168893801
       9        0.000020232770    -0.000012250535     0.000013432772
      10        0.000010768414     0.000015378407     0.000013412501
      11        0.000029041943    -0.000000554018     0.000018107063
      12        0.002628124364     0.002345989571    -0.000205779935
      13        0.000004862470     0.000021678041     0.000022196013
      14       -0.000007821388    -0.000000668603     0.000001872954
      15        0.000004507909     0.000021583595    -0.000001065254
      16        0.000005719032    -0.000001385373     0.000016025633
      17        0.000010013269    -0.000006442701    -0.000016889584
      18        0.000001837516    -0.000010164624    -0.000010448762
      19       -0.000003531363    -0.000006372154     0.000007225257
      20       -0.000001950777    -0.000002324546     0.000007486369
      21        0.000009685249    -0.000004627129    -0.000003511613
      22       -0.000000878409    -0.000002637295     0.000003519747
      23        0.000000458423    -0.000002512705    -0.000005214513
      24       -0.000011359648     0.000012337060     0.000003082887
      25        0.000001917892     0.000004309685     0.000001451995

  **** Optimization is complete! (in 9 steps) ****
    Final optimized geometry and variables:
    Molecular point group: c1

    Geometry (in Angstrom), charge = 0, multiplicity = 1:

    H           -2.237452453657     0.484057024367     2.287750671628
    C           -2.696197840803    -0.088864449523     1.470446774433
    C           -2.800229110663     0.647083631073     0.162423080859
    O           -3.065687694866    -1.195986701659     1.658932412505
    C           -1.438502664776     1.155991790688    -0.324568957350
    H           -3.267794813076    -0.004442943472    -0.564755964367
    H           -3.461140046066     1.494759320597     0.329537508397
    C           -0.471358451168     0.038082883827    -0.756021224478
    H           -1.595546642709     1.848507944121    -1.142008732137
    H           -0.987409814858     1.738876469052     0.474238957355
    C            0.970973092059     0.290094794036    -0.316414842996
    H           -0.481916927890    -0.043773323240    -1.838250508277
    H           -0.800629686051    -0.919082627945    -0.366265025526
    C            1.937792941714    -0.786363454113    -0.804549923145
    H            1.283637697475     1.264803496153    -0.678837984853
    H            1.010746667766     0.340908756235     0.769594272590
    C            3.377092495785    -0.628831961237    -0.311033222588
    H            1.933292704755    -0.806329220395    -1.892058478447
    H            1.567610960787    -1.755845938715    -0.482942474663
    C            4.101312095647     0.607109933050    -0.839289434474
    H            3.937485578686    -1.511394262881    -0.603362803177
    H            3.383534401895    -0.613550049130     0.775645781018
    H            4.104452474206     0.622399405423    -1.924581277970
    H            3.639891809036     1.525685376111    -0.497102151675
    H            5.133068580097     0.618961072463    -0.507132251844

  Mulliken Charges: (a.u.)
   Center  Symbol    Alpha    Beta     Spin     Total
       1     H     0.46456  0.46456  0.00000  0.07088
       2     C     2.90306  2.90306  0.00000  0.19388
       3     C     3.08815  3.08815  0.00000 -0.17631
       4     O     4.16606  4.16606  0.00000 -0.33213
       5     C     3.11709  3.11709  0.00000 -0.23417
       6     H     0.44234  0.44234  0.00000  0.11532
       7     H     0.44228  0.44228  0.00000  0.11544
       8     C     3.10177  3.10177  0.00000 -0.20354
       9     H     0.43993  0.43993  0.00000  0.12015
      10     H     0.45124  0.45124  0.00000  0.09752
      11     C     3.09106  3.09106  0.00000 -0.18212
      12     H     0.44622  0.44622  0.00000  0.10756
      13     H     0.44239  0.44239  0.00000  0.11522
      14     C     3.09685  3.09685  0.00000 -0.19370
      15     H     0.45134  0.45134  0.00000  0.09733
      16     H     0.45509  0.45509  0.00000  0.08981
      17     C     3.09069  3.09069  0.00000 -0.18139
      18     H     0.45366  0.45366  0.00000  0.09267
      19     H     0.44662  0.44662  0.00000  0.10676
      20     C     3.15240  3.15240  0.00000 -0.30480
      21     H     0.44773  0.44773  0.00000  0.10454
      22     H     0.45414  0.45414  0.00000  0.09171
      23     H     0.45487  0.45487  0.00000  0.09027
      24     H     0.45447  0.45447  0.00000  0.09105
      25     H     0.44598  0.44598  0.00000  0.10805

   Total alpha = 36.00000, Total beta = 36.00000, Total charge = -0.00000

*** Psi4 exiting successfully. Buy a developer a beer!
