  ==> Input File <==

--------------------------------------------------------------------------
set {
	reference rhf
	basis 6-31G*
}

set_num_threads( 1 )
memory 2 gb

molecule MOL {
0 1

H	 -3.161837	 0.500524	 -0.000234
C	 -2.367097	 -0.232926	 -0.000000
O	 -1.158440	 0.455814	 -0.000122
H	 -2.468853	 -0.861886	 -0.882833
H	 -2.468942	 -0.861421	 0.883154
C	 -0.029776	 -0.365156	 0.000148
C	 -0.165010	 -1.384789	 -1.117314
H	 0.067700	 -0.869003	 0.962715
H	 0.870511	 0.234348	 -0.141226
C	 1.031998	 -2.331567	 -1.192569
H	 -1.079512	 -1.948407	 -0.960204
H	 -0.282264	 -0.852839	 -2.056452
H	 1.152548	 -2.892322	 -0.269831
H	 0.909277	 -3.047599	 -1.998225
H	 1.955714	 -1.788862	 -1.373188

	symmetry c1
}
set optking {
	frozen_dihedral = ("
		6 3 2 4,
		11 7 6 8
	")
}

ee = energy('scf')
oeprop('DIPOLE', 'QUADRUPOLE', 'MULLIKEN_CHARGES')
f=open( 'psi4out.xyz', 'w' )
f.write( "15  " )
f.write( str(ee) + "\n" )
f.write( MOL.save_string_xyz() )
f.close()
--------------------------------------------------------------------------

    Molecular point group: c1

    Geometry (in Angstrom), charge = 0, multiplicity = 1:

       Center              X                  Y                   Z               Mass
    ------------   -----------------  -----------------  -----------------  -----------------
           H         -2.602542904174     1.269587254690     0.453381892195     1.007825032070
           C         -1.807802904174     0.536137254690     0.453615892195    12.000000000000
           O         -0.599145904174     1.224877254690     0.453493892195    15.994914619560
           H         -1.909558904174    -0.092822745310    -0.429217107805     1.007825032070
           H         -1.909647904174    -0.092357745310     1.336769892195     1.007825032070
           C          0.529518095826     0.403907254690     0.453763892195    12.000000000000
           C          0.394284095826    -0.615725745310    -0.663698107805    12.000000000000
           H          0.626994095826    -0.099939745310     1.416330892195     1.007825032070
           H          1.429805095826     1.003411254690     0.312389892195     1.007825032070
           C          1.591292095826    -1.562503745310    -0.738953107805    12.000000000000
           H         -0.520217904174    -1.179343745310    -0.506588107805     1.007825032070
           H          0.277030095826    -0.083775745310    -1.602836107805     1.007825032070
           H          1.711842095826    -2.123258745310     0.183784892195     1.007825032070
           H          1.468571095826    -2.278535745310    -1.544609107805     1.007825032070
           H          2.515008095826    -1.019798745310    -0.919572107805     1.007825032070

  Charge       = 0
  Multiplicity = 1
  Basis Set: 6-31G*
  Basis Set:

    Orbital Energies (a.u.)
    -----------------------

    Doubly Occupied:

       1A    -20.551862     2A    -11.267098     3A    -11.262027
       4A    -11.215698     5A    -11.214692     6A     -1.379153
       7A     -1.056285     8A     -0.960183     9A     -0.890851
      10A     -0.801069    11A     -0.674390    12A     -0.662335
      13A     -0.630567    14A     -0.604199    15A     -0.566110
      16A     -0.532303    17A     -0.527938    18A     -0.501080
      19A     -0.484879    20A     -0.447669    21A     -0.406085

  @DF-RHF Final Energy:  -232.12653602129942

   => Energetics <=

    Nuclear Repulsion Energy =            194.6431567605112889
    One-Electron Energy =                -700.2664508939582220
    Two-Electron Energy =                 273.4967581121485409
    DFT Exchange-Correlation Energy =       0.0000000000000000
    Empirical Dispersion Energy =           0.0000000000000000
    PCM Polarization Energy =               0.0000000000000000
    EFP Energy =                            0.0000000000000000
    Total Energy =                       -232.1265360212984206

  Mulliken Charges: (a.u.)
   Center  Symbol    Alpha    Beta     Spin     Total
       1     H     0.41114  0.41114  0.00000  0.17772
       2     C     3.08722  3.08722  0.00000 -0.17444
       3     O     4.30423  4.30423  0.00000 -0.60846
       4     H     0.42524  0.42524  0.00000  0.14951
       5     H     0.43101  0.43101  0.00000  0.13798
       6     C     2.98288  2.98288  0.00000  0.03424
       7     C     3.17797  3.17797  0.00000 -0.35594
       8     H     0.43191  0.43191  0.00000  0.13617
       9     H     0.41541  0.41541  0.00000  0.16917
      10     C     3.24466  3.24466  0.00000 -0.48933
      11     H     0.41690  0.41690  0.00000  0.16619
      12     H     0.41376  0.41376  0.00000  0.17248
      13     H     0.42071  0.42071  0.00000  0.15858
      14     H     0.41664  0.41664  0.00000  0.16671
      15     H     0.42030  0.42030  0.00000  0.15940

   Total alpha = 21.00000, Total beta = 21.00000, Total charge = -0.00000
