                              Psi4 1.0.54 Driver

  ==> Input File <==

--------------------------------------------------------------------------
set {
	reference rhf
	basis cc-pvtz
}

set_num_threads( 4 )
memory 2 gb

molecule MOL {
0 1

H	 3.889604	 0.356866	 -0.089510
N	 3.091268	 -0.241216	 -0.065538
C	 1.860978	 0.530248	 0.016256
H	 3.192566	 -0.835836	 0.730398
C	 0.644130	 -0.381765	 -0.031064
H	 1.835721	 1.204666	 -0.833114
H	 1.808789	 1.151975	 0.911067
C	 -0.678115	 0.376691	 0.025731
H	 0.693998	 -0.977147	 -0.936845
H	 0.693309	 -1.082142	 0.800523
C	 -1.700498	 -0.260285	 0.962853
H	 -1.101059	 0.437275	 -0.974470
H	 -0.496127	 1.401653	 0.340702
C	 -3.023138	 0.497270	 1.011921
H	 -1.883359	 -1.284536	 0.650179
H	 -1.281759	 -0.318533	 1.963871
H	 -3.484746	 0.542750	 0.031060
H	 -3.725286	 0.019153	 1.685270
H	 -2.878249	 1.516501	 1.354720

	symmetry c1
}
set optking {
	frozen_dihedral = ("
		12 8 5 9
	")
}

ee,wfn = optimize('scf', return_wfn=True)
oeprop( wfn, 'DIPOLE', 'QUADRUPOLE', 'MULLIKEN_CHARGES')
f=open( 'psi4out.xyz', 'w' )
f.write( "19  " )
f.write( str(ee) + "\n" )
f.write( MOL.save_string_xyz() )
f.close()
--------------------------------------------------------------------------

    Molecular point group: c1
  Charge       = 0
  Multiplicity = 1
  Basis Set: CC-PVTZ
  Basis Set:
  @DF-RHF Final Energy:  -251.44387750294399
    Total Energy =                       -251.4438775029438489
    Molecular point group: c1
  Basis Set: CC-PVTZ
  Basis Set:
  Basis Set: CC-PVTZ
  Basis Set:
  @DF-RHF Final Energy:  -251.44410797006711
    Total Energy =                       -251.4441079700673072
  Basis Set: CC-PVTZ
  Basis Set:
  Basis Set: CC-PVTZ
  Basis Set:
  @DF-RHF Final Energy:  -251.44417546948335
    Total Energy =                       -251.4441754694834117
  Basis Set: CC-PVTZ
  Basis Set:
  Basis Set: CC-PVTZ
  Basis Set:
  @DF-RHF Final Energy:  -251.44417659426995
    Total Energy =                       -251.4441765942699476
  Basis Set: CC-PVTZ
  Basis Set:
  Basis Set: CC-PVTZ
  Basis Set:
  @DF-RHF Final Energy:  -251.44417793040651
    Total Energy =                       -251.4441779304064539
  Basis Set: CC-PVTZ
  Basis Set:
  Charge       = 0
  Multiplicity = 1
  Basis Set: CC-PVTZ
  Basis Set:

    Orbital Energies (a.u.)
    -----------------------

    Doubly Occupied:

       1A    -15.526357     2A    -11.238197     3A    -11.212462
       4A    -11.210428     5A    -11.207504     6A    -11.205523
       7A     -1.178324     8A     -1.073032     9A     -0.998764
      10A     -0.900928    11A     -0.814744    12A     -0.789489
      13A     -0.663923    14A     -0.642321    15A     -0.616488
      16A     -0.594845    17A     -0.562367    18A     -0.548643
      19A     -0.536587    20A     -0.490664    21A     -0.488372
      22A     -0.465395    23A     -0.457775    24A     -0.448602
      25A     -0.383947

  @DF-RHF Final Energy:  -251.44417802648198

   => Energetics <=

    Nuclear Repulsion Energy =            246.2975515708133969
    One-Electron Energy =                -826.9721022217750033
    Two-Electron Energy =                 329.2303726244797417
    DFT Exchange-Correlation Energy =       0.0000000000000000
    Empirical Dispersion Energy =           0.0000000000000000
    PCM Polarization Energy =               0.0000000000000000
    EFP Energy =                            0.0000000000000000
    Total Energy =                       -251.4441780264818362
    Molecular point group: c1
  Basis Set: CC-PVTZ
  Basis Set:

  -Total Gradient:
     Atom            X                  Y                   Z
    ------   -----------------  -----------------  -----------------
       1       -0.000003617979     0.000003498478    -0.000001877844
       2       -0.000003794408    -0.000008756717    -0.000001798925
       3       -0.000004471583     0.000019235743     0.000007207833
       4       -0.000000969493     0.000000867796     0.000001159859
       5       -0.002106117165    -0.003741581652     0.002044157386
       6        0.000001819662    -0.000000702518    -0.000001639826
       7        0.000003461315    -0.000003573424     0.000000907267
       8        0.002312271091     0.004002907030    -0.000976426654
       9        0.001387351284     0.002476748012    -0.001547730512
      10       -0.000005386326     0.000003898422    -0.000002929848
      11        0.000008189574    -0.000006702417     0.000001425646
      12       -0.001591836312    -0.002745315743     0.000481511013
      13        0.000004005405    -0.000005172123    -0.000000058610
      14       -0.000000917109     0.000003803193    -0.000002546684
      15        0.000001820344     0.000000949879     0.000001714868
      16       -0.000001422499     0.000001239922    -0.000002939686
      17       -0.000000310105     0.000000756925     0.000000922330
      18        0.000000620912    -0.000000025950    -0.000000155748
      19       -0.000000696611    -0.000002074855    -0.000000901865

  **** Optimization is complete! (in 6 steps) ****
    Final optimized geometry and variables:
    Molecular point group: c1

    Geometry (in Angstrom), charge = 0, multiplicity = 1:

    H            3.832573117874     0.258197734004    -0.482030130041
    N            3.033697905598    -0.338477269195    -0.444326463542
    C            1.809078673609     0.431759932249    -0.304088176908
    H            3.160341757442    -0.951943293965     0.333558161530
    C            0.587077690461    -0.477745497824    -0.319639834664
    H            1.751383916547     1.120500228989    -1.140745979703
    H            1.789425781453     1.039046713924     0.602155751966
    C           -0.737341768341     0.300858051486    -0.265728366342
    H            0.640008609736    -1.072876427067    -1.223514079526
    H            0.651318399130    -1.165019157482     0.519663346070
    C           -1.784172127812    -0.343369596296     0.641952383875
    H           -1.156870151254     0.369547951490    -1.264662574880
    H           -0.559961594570     1.318435484547     0.070935557200
    C           -3.112696867332     0.404443910427     0.652155348423
    H           -1.949778194484    -1.369313582973     0.323960923902
    H           -1.393270640298    -0.399012499405     1.654474701143
    H           -3.548295025515     0.442254827052    -0.340837187400
    H           -3.829345780486    -0.075225534397     1.309021440444
    H           -2.983832501946     1.426404870072     0.993533233966

  Mulliken Charges: (a.u.)
   Center  Symbol    Alpha    Beta     Spin     Total
       1     H     0.43014  0.43014  0.00000  0.13972
       2     N     3.68992  3.68992  0.00000 -0.37985
       3     C     3.02427  3.02427  0.00000 -0.04853
       4     H     0.43094  0.43094  0.00000  0.13812
       5     C     3.08555  3.08555  0.00000 -0.17110
       6     H     0.45624  0.45624  0.00000  0.08752
       7     H     0.46941  0.46941  0.00000  0.06119
       8     C     3.09682  3.09682  0.00000 -0.19363
       9     H     0.44705  0.44705  0.00000  0.10589
      10     H     0.45947  0.45947  0.00000  0.08105
      11     C     3.08384  3.08384  0.00000 -0.16769
      12     H     0.45146  0.45146  0.00000  0.09708
      13     H     0.45653  0.45653  0.00000  0.08693
      14     C     3.14995  3.14995  0.00000 -0.29989
      15     H     0.45317  0.45317  0.00000  0.09365
      16     H     0.45591  0.45591  0.00000  0.08818
      17     H     0.45503  0.45503  0.00000  0.08994
      18     H     0.44875  0.44875  0.00000  0.10249
      19     H     0.45554  0.45554  0.00000  0.08892

   Total alpha = 25.00000, Total beta = 25.00000, Total charge = -0.00000

*** Psi4 exiting successfully. Buy a developer a beer!
