  ==> Input File <==

--------------------------------------------------------------------------
set {
	reference rhf
	basis 6-31G*
}

set_num_threads( 4 )
memory 2 gb

molecule MOL {
0 1

H	 -3.420663	 1.227371	 -1.044276
O	 -3.452007	 0.283848	 -0.965577
C	 -3.181085	 -0.079926	 0.364119
C	 -1.765924	 0.277073	 0.805136
H	 -3.327791	 -1.152017	 0.410903
H	 -3.905698	 0.375695	 1.036898
C	 -1.289820	 -0.511191	 2.025989
H	 -1.082423	 0.112040	 -0.028262
H	 -1.732549	 1.344362	 1.017276
C	 0.139264	 -0.161649	 2.446370
H	 -1.360029	 -1.573650	 1.813947
H	 -1.967068	 -0.320591	 2.856892
C	 0.606652	 -0.950338	 3.672585
H	 0.808877	 -0.344852	 1.609427
H	 0.203183	 0.904439	 2.660786
C	 2.000442	 -0.571270	 4.186214
H	 0.586017	 -2.014921	 3.444698
H	 -0.110107	 -0.799410	 4.477130
C	 3.143950	 -0.902083	 3.225299
H	 2.174055	 -1.090568	 5.125616
H	 2.020924	 0.491414	 4.419639
H	 3.140880	 -1.956991	 2.963961
H	 4.104979	 -0.677715	 3.677980
H	 3.078335	 -0.332800	 2.304009

	symmetry c1
}
set optking {
	frozen_dihedral = ("
		7 4 3 2
	")
}

ee = optimize('scf')
oeprop('DIPOLE', 'QUADRUPOLE', 'MULLIKEN_CHARGES')
f=open( 'psi4out.xyz', 'w' )
f.write( "24  " )
f.write( str(ee) + "\n" )
f.write( MOL.save_string_xyz() )
f.close()
--------------------------------------------------------------------------

    Molecular point group: c1
  Charge       = 0
  Multiplicity = 1
  Basis Set: 6-31G*
  Basis Set:
  @DF-RHF Final Energy:  -349.24603523069720
    Total Energy =                       -349.2460352306970321
    Molecular point group: c1
  Basis Set: 6-31G*
  Basis Set:
  Basis Set: 6-31G*
  Basis Set:
  @DF-RHF Final Energy:  -349.24632274532138
    Total Energy =                       -349.2463227453213221
  Basis Set: 6-31G*
  Basis Set:
  Basis Set: 6-31G*
  Basis Set:
  @DF-RHF Final Energy:  -349.24634328887009
    Total Energy =                       -349.2463432888701504
  Basis Set: 6-31G*
  Basis Set:
  Charge       = 0
  Multiplicity = 1
  Basis Set: 6-31G*
  Basis Set:

    Orbital Energies (a.u.)
    -----------------------

    Doubly Occupied:

       1A    -20.552150     2A    -11.266484     3A    -11.219247
       4A    -11.216204     5A    -11.215798     6A    -11.215610
       7A    -11.214621     8A    -11.208706     9A     -1.358607
      10A     -1.092329    11A     -1.050962    12A     -0.986131
      13A     -0.914194    14A     -0.850706    15A     -0.805331
      16A     -0.778709    17A     -0.692483    18A     -0.648872
      19A     -0.626337    20A     -0.607221    21A     -0.602452
      22A     -0.589043    23A     -0.561408    24A     -0.533367
      25A     -0.522950    26A     -0.516387    27A     -0.487316
      28A     -0.481506    29A     -0.469324    30A     -0.461665
      31A     -0.459156    32A     -0.454364    33A     -0.418991

  @DF-RHF Final Energy:  -349.24634395653328

   => Energetics <=

    Nuclear Repulsion Energy =            379.9132524262908532
    One-Electron Energy =               -1226.1619275630209813
    Two-Electron Energy =                 497.0023311801967338
    DFT Exchange-Correlation Energy =       0.0000000000000000
    Empirical Dispersion Energy =           0.0000000000000000
    PCM Polarization Energy =               0.0000000000000000
    EFP Energy =                            0.0000000000000000
    Total Energy =                       -349.2463439565333374
    Molecular point group: c1
  Basis Set: 6-31G*
  Basis Set:

  -Total Gradient:
     Atom            X                  Y                   Z
    ------   -----------------  -----------------  -----------------
       1       -0.000016062228     0.000030691609    -0.000107525153
       2        0.000815771503    -0.002390825725    -0.000740852208
       3       -0.000723769899     0.002695083079     0.000531206162
       4       -0.000814045198     0.001726717262     0.001651485624
       5        0.000191385055    -0.000012666616     0.000199949375
       6       -0.000124876225     0.000024818000    -0.000093927772
       7        0.000721584642    -0.001856967211    -0.001568730679
       8       -0.000111183854    -0.000048300775     0.000046442321
       9       -0.000070246054    -0.000068329485     0.000017501855
      10        0.000142052743    -0.000029824086     0.000033686717
      11       -0.000050206599    -0.000075214961    -0.000092779505
      12        0.000038156857    -0.000087984221     0.000066362147
      13       -0.000038395634     0.000116249245     0.000049919347
      14        0.000105834151    -0.000020736119    -0.000002495495
      15        0.000029633113    -0.000030363561     0.000004017434
      16        0.000017383858    -0.000058026322     0.000052779360
      17       -0.000021122168     0.000021246765     0.000024825233
      18       -0.000045252841     0.000039014549    -0.000018097277
      19       -0.000044183976     0.000035618954    -0.000025739459
      20        0.000039915111    -0.000030735278    -0.000027000279
      21        0.000003444066    -0.000021517640     0.000052962910
      22        0.000001189520     0.000015787848     0.000025435626
      23        0.000004664096     0.000023395305    -0.000013476707
      24       -0.000051670032     0.000002869381    -0.000065949562

  **** Optimization is complete! (in 4 steps) ****
    Final optimized geometry and variables:
    Molecular point group: c1

    Geometry (in Angstrom), charge = 0, multiplicity = 1:

    H           -2.892673370544     1.536588557303    -2.968223422215
    O           -2.954780431892     0.597356140348    -2.861663404397
    C           -2.668912864697     0.255825541954    -1.529739431893
    C           -1.229591770354     0.573910038225    -1.132744516937
    H           -2.837483729076    -0.812015584624    -1.465908909353
    H           -3.371173065271     0.732903124287    -0.848066350278
    C           -0.763691641078    -0.207044185759     0.097774261193
    H           -0.593880300475     0.325652293541    -1.978304708196
    H           -1.120205876481     1.643923893982    -0.960517571200
    C            0.661952798359     0.143400317841     0.529630802567
    H           -0.823702271770    -1.272127329534    -0.117352742106
    H           -1.444058286757    -0.025442761799     0.928927489343
    C            1.125384674825    -0.652115626486     1.752747046403
    H            1.335400040341    -0.030654780167    -0.305578003910
    H            0.718522808133     1.207867958265     0.752272245997
    C            2.514032910902    -0.268967942107     2.277149649702
    H            1.112854580090    -1.715019414193     1.516547433457
    H            0.402904056395    -0.511387704436     2.554233377812
    C            3.662376850301    -0.567657139389     1.311594838753
    H            2.691207826374    -0.805602725803     3.205987537778
    H            2.522479491891     0.788829107830     2.532370894536
    H            3.673080944201    -1.617527646647     1.031125895965
    H            4.619909222896    -0.339316964824     1.769543342311
    H            3.590325965027     0.017312329314     0.400729397180

  Mulliken Charges: (a.u.)
   Center  Symbol    Alpha    Beta     Spin     Total
       1     H     0.28349  0.28349  0.00000  0.43303
       2     O     4.37048  4.37048  0.00000 -0.74096
       3     C     2.98905  2.98905  0.00000  0.02190
       4     C     3.17135  3.17135  0.00000 -0.34271
       5     H     0.41693  0.41693  0.00000  0.16615
       6     H     0.43069  0.43069  0.00000  0.13861
       7     C     3.15913  3.15913  0.00000 -0.31827
       8     H     0.41299  0.41299  0.00000  0.17401
       9     H     0.42652  0.42652  0.00000  0.14697
      10     C     3.15328  3.15328  0.00000 -0.30656
      11     H     0.42027  0.42027  0.00000  0.15946
      12     H     0.42354  0.42354  0.00000  0.15293
      13     C     3.15264  3.15264  0.00000 -0.30527
      14     H     0.42004  0.42004  0.00000  0.15992
      15     H     0.42424  0.42424  0.00000  0.15153
      16     C     3.15236  3.15236  0.00000 -0.30471
      17     H     0.42373  0.42373  0.00000  0.15253
      18     H     0.42247  0.42247  0.00000  0.15505
      19     C     3.24136  3.24136  0.00000 -0.48272
      20     H     0.42080  0.42080  0.00000  0.15839
      21     H     0.42355  0.42355  0.00000  0.15290
      22     H     0.42200  0.42200  0.00000  0.15600
      23     H     0.41915  0.41915  0.00000  0.16170
      24     H     0.41994  0.41994  0.00000  0.16012

   Total alpha = 33.00000, Total beta = 33.00000, Total charge =  0.00000
