  ==> Input File <==

--------------------------------------------------------------------------
set {
	reference rhf
	basis 6-31G*
}

set_num_threads( 4 )
memory 2 gb

molecule MOL {
0 1

O	 2.862325	 1.357334	 0.000267
C	 2.843464	 0.164689	 -0.000222
C	 1.546494	 -0.624492	 -0.000609
C	 4.124123	 -0.644674	 -0.000428
C	 0.291004	 0.242674	 0.000989
H	 1.557904	 -1.283758	 -0.867573
H	 1.558622	 -1.285963	 0.864672
C	 -0.994322	 -0.586602	 0.000262
H	 0.309117	 0.896430	 -0.865270
H	 0.309661	 0.894078	 0.869017
C	 -2.259874	 0.272531	 0.000494
H	 -1.004862	 -1.240012	 -0.870939
H	 -1.005220	 -1.241071	 0.870675
C	 -1.975732	 1.768886	 0.142609
H	 -2.911655	 -0.047856	 0.811390
H	 -2.812981	 0.097928	 -0.920692
C	 -3.244795	 2.620452	 0.142238
H	 -1.423910	 1.944809	 1.063677
H	 -1.325508	 2.090648	 -0.668278
H	 -3.901422	 2.345685	 0.962904
H	 -3.011008	 3.675673	 0.244973
H	 -3.801743	 2.493467	 -0.781791
H	 4.165367	 -1.288615	 -0.874074
H	 4.976217	 0.020734	 -0.001915
H	 4.166763	 -1.286207	 0.874930

	symmetry c1
}
set optking {
	frozen_dihedral = ("
		15 11 8 12
	")
}

ee = optimize('scf')
oeprop('DIPOLE', 'QUADRUPOLE', 'MULLIKEN_CHARGES')
f=open( 'psi4out.xyz', 'w' )
f.write( "25  " )
f.write( str(ee) + "\n" )
f.write( MOL.save_string_xyz() )
f.close()
--------------------------------------------------------------------------

    Molecular point group: c1
  Charge       = 0
  Multiplicity = 1
  Basis Set: 6-31G*
  Basis Set:
  @DF-RHF Final Energy:  -387.12200812044307
    Total Energy =                       -387.1220081204426151
    Molecular point group: c1
  Basis Set: 6-31G*
  Basis Set:
  Basis Set: 6-31G*
  Basis Set:
  @DF-RHF Final Energy:  -387.12180004275842
    Total Energy =                       -387.1218000427586503
  Basis Set: 6-31G*
  Basis Set:
  Basis Set: 6-31G*
  Basis Set:
  @DF-RHF Final Energy:  -387.12594149418300
    Total Energy =                       -387.1259414941828254
  Basis Set: 6-31G*
  Basis Set:
  Basis Set: 6-31G*
  Basis Set:
  @DF-RHF Final Energy:  -387.12654564110755
    Total Energy =                       -387.1265456411072137
  Basis Set: 6-31G*
  Basis Set:
  @DF-RHF Final Energy:  -387.12660072948250
    Total Energy =                       -387.1266007294827887
  @DF-RHF Final Energy:  -387.12583373366704
    Total Energy =                       -387.1258337336668092
  @DF-RHF Final Energy:  -387.12662909004672
    Total Energy =                       -387.1266290900459808
  Basis Set: 6-31G*
  Basis Set:
  @DF-RHF Final Energy:  -387.12663452503932
    Total Energy =                       -387.1266345250398899
  Basis Set: 6-31G*
  Basis Set:
  Basis Set: 6-31G*
  Basis Set:
  @DF-RHF Final Energy:  -387.12663237207653
    Total Energy =                       -387.1266323720766422
  Basis Set: 6-31G*
  Basis Set:
  Basis Set: 6-31G*
  Basis Set:
  @DF-RHF Final Energy:  -387.12663555102648
    Total Energy =                       -387.1266355510265385
  Basis Set: 6-31G*
  Basis Set:
  Charge       = 0
  Multiplicity = 1
  Basis Set: 6-31G*
  Basis Set:

    Orbital Energies (a.u.)
    -----------------------

    Doubly Occupied:

       1A    -20.550408     2A    -11.326261     3A    -11.231668
       4A    -11.228307     5A    -11.217657     6A    -11.216223
       7A    -11.214257     8A    -11.212398     9A    -11.206498
      10A     -1.395706    11A     -1.090769    12A     -1.053483
      13A     -1.012550    14A     -0.966795    15A     -0.888980
      16A     -0.834743    17A     -0.767334    18A     -0.730845
      19A     -0.660159    20A     -0.650894    21A     -0.629860
      22A     -0.624672    23A     -0.594775    24A     -0.580097
      25A     -0.568214    26A     -0.560828    27A     -0.552336
      28A     -0.513661    29A     -0.505152    30A     -0.495448
      31A     -0.489898    32A     -0.484752    33A     -0.459325
      34A     -0.447357    35A     -0.444892    36A     -0.399848

  @DF-RHF Final Energy:  -387.12663552965216

   => Energetics <=

    Nuclear Repulsion Energy =            445.9326618971566631
    One-Electron Energy =               -1408.5044907441078976
    Two-Electron Energy =                 575.4451933172992995
    DFT Exchange-Correlation Energy =       0.0000000000000000
    Empirical Dispersion Energy =           0.0000000000000000
    PCM Polarization Energy =               0.0000000000000000
    EFP Energy =                            0.0000000000000000
    Total Energy =                       -387.1266355296519350
    Molecular point group: c1
  Basis Set: 6-31G*
  Basis Set:

  -Total Gradient:
     Atom            X                  Y                   Z
    ------   -----------------  -----------------  -----------------
       1       -0.000001105040     0.000000395620     0.000003156708
       2        0.000000983390     0.000000103557    -0.000004430262
       3        0.000002009101     0.000002533809    -0.000009945185
       4        0.000000782301    -0.000000546694     0.000000160462
       5       -0.000004885837    -0.000001803117     0.000016769467
       6       -0.000002722697    -0.000001976374     0.000001271805
       7        0.000000746900     0.000004030279     0.000001427669
       8       -0.000915174328    -0.001430728641     0.001548416497
       9        0.000001021707     0.000000847737    -0.000000952116
      10        0.000000311275     0.000000365271    -0.000001083377
      11       -0.000810874109    -0.001294680666    -0.001715897400
      12        0.000895749256     0.001410200949    -0.001044116862
      13       -0.000001057339    -0.000000213781     0.000002805888
      14        0.000003086845    -0.000002935129    -0.000026033146
      15        0.000825224615     0.001311770366     0.001214947060
      16        0.000003251662    -0.000000662289    -0.000003422223
      17        0.000000254452     0.000002758345     0.000011436759
      18        0.000005551954    -0.000000279478     0.000000395183
      19       -0.000004953239     0.000002329179     0.000001167094
      20       -0.000002526941    -0.000001249821    -0.000000191590
      21       -0.000001091193    -0.000000067058     0.000003234207
      22        0.000004876283     0.000000383408     0.000000134809
      23        0.000001081044    -0.000000715280    -0.000000179724
      24       -0.000000024793    -0.000000262482     0.000000924526
      25       -0.000000515272     0.000000402291     0.000000003750

  **** Optimization is complete! (in 11 steps) ****
    Final optimized geometry and variables:
    Molecular point group: c1

    Geometry (in Angstrom), charge = 0, multiplicity = 1:

    O            2.649851032933     0.753165764005    -0.044858457861
    C            2.563137661603    -0.436492939188    -0.038866705390
    C            1.223666155503    -1.151260579986    -0.031016199811
    C            3.795887689613    -1.317186605014    -0.038649390516
    C            0.019331448703    -0.213381228067    -0.028182846501
    H            1.195040194180    -1.813846047078    -0.895104744146
    H            1.202300420215    -1.809060410066     0.836929527223
    C           -1.299460985907    -0.996102926184    -0.024178253551
    H            0.077480996580     0.431706950319    -0.897512867156
    H            0.085316492857     0.436554807634     0.836364945933
    C           -2.612777494993    -0.164181438898    -0.028407650962
    H           -1.297495402385    -1.643308998082    -0.897801929970
    H           -1.301155688621    -1.657768048669     0.838198856689
    C           -2.483420844477     1.356889932387     0.120665580613
    H           -3.246836765676    -0.514023333346     0.782101799313
    H           -3.159346740173    -0.367234615906    -0.945335928183
    C           -3.848068571819     2.046181184042     0.109185411191
    H           -1.972671035586     1.598624058312     1.048560750398
    H           -1.874088438853     1.764610968128    -0.680243834894
    H           -4.475437890967     1.690886430910     0.922029214199
    H           -3.744585479686     3.121408816334     0.217273485091
    H           -4.376278869117     1.856723686004    -0.821207488944
    H            3.797300428035    -1.967548737359    -0.908498641445
    H            4.684318177547    -0.701192490103    -0.047065908979
    H            3.805408934070    -1.954979771073     0.840427794981

  Mulliken Charges: (a.u.)
   Center  Symbol    Alpha    Beta     Spin     Total
       1     O     4.26132  4.26132  0.00000 -0.52264
       2     C     2.73541  2.73541  0.00000  0.52918
       3     C     3.21062  3.21062  0.00000 -0.42124
       4     C     3.28671  3.28671  0.00000 -0.57343
       5     C     3.15102  3.15102  0.00000 -0.30204
       6     H     0.41025  0.41025  0.00000  0.17950
       7     H     0.41026  0.41026  0.00000  0.17949
       8     C     3.15782  3.15782  0.00000 -0.31564
       9     H     0.41125  0.41125  0.00000  0.17751
      10     H     0.41066  0.41066  0.00000  0.17868
      11     C     3.15418  3.15418  0.00000 -0.30836
      12     H     0.42271  0.42271  0.00000  0.15457
      13     H     0.42264  0.42264  0.00000  0.15472
      14     C     3.15516  3.15516  0.00000 -0.31032
      15     H     0.42167  0.42167  0.00000  0.15666
      16     H     0.42147  0.42147  0.00000  0.15706
      17     C     3.23944  3.23944  0.00000 -0.47889
      18     H     0.42084  0.42084  0.00000  0.15832
      19     H     0.41922  0.41922  0.00000  0.16155
      20     H     0.42259  0.42259  0.00000  0.15481
      21     H     0.41840  0.41840  0.00000  0.16320
      22     H     0.42241  0.42241  0.00000  0.15518
      23     H     0.40875  0.40875  0.00000  0.18249
      24     H     0.39650  0.39650  0.00000  0.20701
      25     H     0.40870  0.40870  0.00000  0.18261

   Total alpha = 36.00000, Total beta = 36.00000, Total charge =  0.00000
