                              Psi4 1.0.54 Driver

  ==> Input File <==

--------------------------------------------------------------------------
set {
	reference rhf
	basis cc-pvtz
}

set_num_threads( 4 )
memory 2 gb

molecule MOL {
0 1

H	 2.734697	 0.257746	 0.920878
C	 1.948180	 -0.217873	 0.320185
C	 0.692262	 0.592428	 0.156232
O	 2.123764	 -1.292845	 -0.139424
C	 -0.554654	 -0.292621	 0.086567
H	 0.791858	 1.203694	 -0.731051
H	 0.617379	 1.254358	 1.016534
C	 -1.846385	 0.513195	 -0.016346
H	 -0.473986	 -0.956115	 -0.769708
H	 -0.597929	 -0.929215	 0.966651
C	 -3.089953	 -0.365049	 -0.098564
H	 -1.798267	 1.154820	 -0.891143
H	 -1.925398	 1.173265	 0.842889
H	 -3.055079	 -1.012299	 -0.968245
H	 -3.988403	 0.236438	 -0.170014
H	 -3.183055	 -0.995885	 0.779079

	symmetry c1
}
set optking {
	frozen_dihedral = ("
		4 2 3 6
	")
}

ee,wfn = optimize('scf', return_wfn=True)
oeprop( wfn, 'DIPOLE', 'QUADRUPOLE', 'MULLIKEN_CHARGES')
f=open( 'psi4out.xyz', 'w' )
f.write( "16  " )
f.write( str(ee) + "\n" )
f.write( MOL.save_string_xyz() )
f.close()
--------------------------------------------------------------------------

    Molecular point group: c1
  Charge       = 0
  Multiplicity = 1
  Basis Set: CC-PVTZ
  Basis Set:
  @DF-RHF Final Energy:  -270.11799298428627
    Total Energy =                       -270.1179929842860474
    Molecular point group: c1
  Basis Set: CC-PVTZ
  Basis Set:
  Basis Set: CC-PVTZ
  Basis Set:
  @DF-RHF Final Energy:  -270.11794770831773
    Total Energy =                       -270.1179477083175016
  Basis Set: CC-PVTZ
  Basis Set:
  Basis Set: CC-PVTZ
  Basis Set:
  @DF-RHF Final Energy:  -270.11791740714955
    Total Energy =                       -270.1179174071496618
  Basis Set: CC-PVTZ
  Basis Set:
  Basis Set: CC-PVTZ
  Basis Set:
  @DF-RHF Final Energy:  -270.11878762444377
    Total Energy =                       -270.1187876244438257
  Basis Set: CC-PVTZ
  Basis Set:
  Basis Set: CC-PVTZ
  Basis Set:
  @DF-RHF Final Energy:  -270.11878352096903
    Total Energy =                       -270.1187835209690320
  Basis Set: CC-PVTZ
  Basis Set:
  Basis Set: CC-PVTZ
  Basis Set:
  @DF-RHF Final Energy:  -270.11879884290943
    Total Energy =                       -270.1187988429093139
  Basis Set: CC-PVTZ
  Basis Set:
  Charge       = 0
  Multiplicity = 1
  Basis Set: CC-PVTZ
  Basis Set:

    Orbital Energies (a.u.)
    -----------------------

    Doubly Occupied:

       1A    -20.552434     2A    -11.322848     3A    -11.235571
       4A    -11.222310     5A    -11.221337     6A    -11.211221
       7A     -1.408077     8A     -1.090608     9A     -1.016029
      10A     -0.908534    11A     -0.814454    12A     -0.774533
      13A     -0.681171    14A     -0.653400    15A     -0.632574
      16A     -0.600499    17A     -0.584723    18A     -0.540935
      19A     -0.529199    20A     -0.501386    21A     -0.483956
      22A     -0.479382    23A     -0.473380    24A     -0.411959

  @DF-RHF Final Energy:  -270.11879918554268

   => Energetics <=

    Nuclear Repulsion Energy =            231.9395464033628116
    One-Electron Energy =                -825.4156466504039145
    Two-Electron Energy =                 323.3573010614986174
    DFT Exchange-Correlation Energy =       0.0000000000000000
    Empirical Dispersion Energy =           0.0000000000000000
    PCM Polarization Energy =               0.0000000000000000
    EFP Energy =                            0.0000000000000000
    Total Energy =                       -270.1187991855425139
    Molecular point group: c1
  Basis Set: CC-PVTZ
  Basis Set:

  -Total Gradient:
     Atom            X                  Y                   Z
    ------   -----------------  -----------------  -----------------
       1       -0.000024675776    -0.000014583436    -0.000026035200
       2       -0.001198792178    -0.001812267388     0.002552889961
       3        0.001292510596     0.002358875171     0.000577350649
       4        0.000712745336     0.001080456732    -0.001895489464
       5        0.000004337275    -0.000001126955    -0.000009369988
       6       -0.000820094113    -0.001574566997    -0.001174393678
       7        0.000028630691    -0.000011627341    -0.000003402089
       8        0.000006117338    -0.000002850725    -0.000026753293
       9       -0.000016407866     0.000000163400    -0.000002552774
      10       -0.000011566256     0.000000195771    -0.000011859839
      11        0.000001296732    -0.000013978642     0.000020770113
      12        0.000007595589    -0.000007189095    -0.000000790705
      13        0.000017455106    -0.000002614445    -0.000007421907
      14       -0.000001677579     0.000008695448     0.000002329166
      15        0.000008108303    -0.000001452699     0.000008872836
      16       -0.000005583198    -0.000006128802    -0.000004143786

  **** Optimization is complete! (in 7 steps) ****
    Final optimized geometry and variables:
    Molecular point group: c1

    Geometry (in Angstrom), charge = 0, multiplicity = 1:

    H            2.901589742125     0.524067438282     0.819791210277
    C            2.094455364093     0.014986663934     0.279471614843
    C            0.792045819295     0.770851922347     0.193723294998
    O            2.294619520700    -1.034652260596    -0.226734959563
    C           -0.438256191906    -0.123474715574     0.071290787321
    H            0.874377996528     1.401407121452    -0.690478377422
    H            0.714635845300     1.438216850363     1.045803337112
    C           -1.730567927657     0.672109486542    -0.086226464556
    H           -0.308170371988    -0.788611536623    -0.773264139780
    H           -0.507063164812    -0.757774442246     0.950199927081
    C           -2.963983112744    -0.217719444369    -0.195492380271
    H           -1.660330087333     1.300278789166    -0.970234644902
    H           -1.847081637397     1.346562942596     0.757988193662
    H           -2.892607119164    -0.880484963843    -1.051052281620
    H           -3.864953798268     0.373885018176    -0.308580333680
    H           -3.081293067218    -0.833862535532     0.689555560542

  Mulliken Charges: (a.u.)
   Center  Symbol    Alpha    Beta     Spin     Total
       1     H     0.45273  0.45273  0.00000  0.09453
       2     C     2.92215  2.92215  0.00000  0.15570
       3     C     3.09012  3.09012  0.00000 -0.18024
       4     O     4.16578  4.16578  0.00000 -0.33156
       5     C     3.08574  3.08574  0.00000 -0.17147
       6     H     0.44553  0.44553  0.00000  0.10894
       7     H     0.44726  0.44726  0.00000  0.10547
       8     C     3.08441  3.08441  0.00000 -0.16881
       9     H     0.44084  0.44084  0.00000  0.11832
      10     H     0.45113  0.45113  0.00000  0.09775
      11     C     3.14903  3.14903  0.00000 -0.29806
      12     H     0.45425  0.45425  0.00000  0.09150
      13     H     0.45551  0.45551  0.00000  0.08897
      14     H     0.45310  0.45310  0.00000  0.09379
      15     H     0.44816  0.44816  0.00000  0.10367
      16     H     0.45426  0.45426  0.00000  0.09149

   Total alpha = 24.00000, Total beta = 24.00000, Total charge =  0.00000

*** Psi4 exiting successfully. Buy a developer a beer!
