  ==> Input File <==

--------------------------------------------------------------------------
set {
	reference rhf
	basis 6-31G*
}

set_num_threads( 1 )
memory 2 gb

molecule MOL {
0 1

H	 1.133904	 -1.163084	 0.500809
O	 1.306321	 -0.606375	 -0.246319
C	 0.709265	 0.639550	 -0.033818
C	 -0.793441	 0.596080	 0.058728
H	 1.004705	 1.263007	 -0.870011
H	 1.108753	 1.112234	 0.862845
C	 -1.530462	 -0.493172	 -0.025500
H	 -1.268471	 1.554324	 0.202247
H	 -1.092586	 -1.461565	 -0.186463
H	 -2.602122	 -0.450675	 0.050101

	symmetry c1
}
set optking {
	frozen_dihedral = ("
		5 3 2 1,
		3 4 7 9
	")
}

ee = energy('scf')
oeprop('DIPOLE', 'QUADRUPOLE', 'MULLIKEN_CHARGES')
f=open( 'psi4out.xyz', 'w' )
f.write( "10  " )
f.write( str(ee) + "\n" )
f.write( MOL.save_string_xyz() )
f.close()
--------------------------------------------------------------------------

    Molecular point group: c1

    Geometry (in Angstrom), charge = 0, multiplicity = 1:

       Center              X                  Y                   Z               Mass
    ------------   -----------------  -----------------  -----------------  -----------------
           H          1.137529081017    -1.164315957502     0.559094946887     1.007825032070
           O          1.309946081017    -0.607606957502    -0.188033053113    15.994914619560
           C          0.712890081017     0.638318042498     0.024467946887    12.000000000000
           C         -0.789815918983     0.594848042498     0.117013946887    12.000000000000
           H          1.008330081017     1.261775042498    -0.811725053113     1.007825032070
           H          1.112378081017     1.111002042498     0.921130946887     1.007825032070
           C         -1.526836918983    -0.494403957502     0.032785946887    12.000000000000
           H         -1.264845918983     1.553092042498     0.260532946887     1.007825032070
           H         -1.088960918983    -1.462796957502    -0.128177053113     1.007825032070
           H         -2.598496918983    -0.451906957502     0.108386946887     1.007825032070

  Charge       = 0
  Multiplicity = 1
  Basis Set: 6-31G*
  Basis Set:

    Orbital Energies (a.u.)
    -----------------------

    Doubly Occupied:

       1A    -20.560952     2A    -11.278787     3A    -11.231859
       4A    -11.220012     5A     -1.369646     6A     -1.058421
       7A     -0.929420     8A     -0.768173     9A     -0.690043
      10A     -0.662040    11A     -0.618068    12A     -0.568861
      13A     -0.536100    14A     -0.496118    15A     -0.447471
      16A     -0.365201

  @DF-RHF Final Energy:  -191.91688807947585

   => Energetics <=

    Nuclear Repulsion Energy =            119.4384423383849878
    One-Electron Energy =                -497.1082065569233919
    Two-Electron Energy =                 185.7528761390625505
    DFT Exchange-Correlation Energy =       0.0000000000000000
    Empirical Dispersion Energy =           0.0000000000000000
    PCM Polarization Energy =               0.0000000000000000
    EFP Energy =                            0.0000000000000000
    Total Energy =                       -191.9168880794758252

  Mulliken Charges: (a.u.)
   Center  Symbol    Alpha    Beta     Spin     Total
       1     H     0.28053  0.28053  0.00000  0.43893
       2     O     4.36635  4.36635  0.00000 -0.73271
       3     C     3.00188  3.00188  0.00000 -0.00376
       4     C     3.08935  3.08935  0.00000 -0.17869
       5     H     0.40881  0.40881  0.00000  0.18239
       6     H     0.42478  0.42478  0.00000  0.15044
       7     C     3.19831  3.19831  0.00000 -0.39663
       8     H     0.40992  0.40992  0.00000  0.18017
       9     H     0.40964  0.40964  0.00000  0.18073
      10     H     0.41044  0.41044  0.00000  0.17912

   Total alpha = 16.00000, Total beta = 16.00000, Total charge = -0.00000
