  ==> Input File <==

--------------------------------------------------------------------------
set {
	reference rhf
	basis cc-pvtz
}

set_num_threads( 4 )
memory 2 gb

molecule MOL {
0 1

H	 0.735294	 1.362874	 -0.806803
O	 0.057669	 1.301365	 -0.158528
C	 0.004145	 -0.005141	 0.363049
C	 1.199168	 -0.827145	 -0.096690
C	 -1.316386	 -0.602081	 -0.083515
H	 0.012026	 0.043363	 1.450619
H	 1.216685	 -0.896776	 -1.178167
H	 2.129940	 -0.372354	 0.228035
H	 1.160783	 -1.829622	 0.314294
H	 -1.357882	 -0.655920	 -1.165207
H	 -2.140147	 0.011735	 0.257253
H	 -1.440790	 -1.601175	 0.317669

	symmetry c1
}
set optking {
	frozen_dihedral = ("
		1 2 3 4
	")
}

ee = optimize('scf')
oeprop('DIPOLE', 'QUADRUPOLE', 'MULLIKEN_CHARGES')
f=open( 'psi4out.xyz', 'w' )
f.write( "12  " )
f.write( str(ee) + "\n" )
f.write( MOL.save_string_xyz() )
f.close()
--------------------------------------------------------------------------

    Molecular point group: c1
  Charge       = 0
  Multiplicity = 1
  Basis Set: CC-PVTZ
  Basis Set:
  @DF-RHF Final Energy:  -193.19318208475840
    Total Energy =                       -193.1931820847584049
    Molecular point group: c1
  Basis Set: CC-PVTZ
  Basis Set:
  Basis Set: CC-PVTZ
  Basis Set:
  @DF-RHF Final Energy:  -193.19370385885884
    Total Energy =                       -193.1937038588588109
  Basis Set: CC-PVTZ
  Basis Set:
  Basis Set: CC-PVTZ
  Basis Set:
  @DF-RHF Final Energy:  -193.19391444405380
    Total Energy =                       -193.1939144440538030
  Basis Set: CC-PVTZ
  Basis Set:
  Charge       = 0
  Multiplicity = 1
  Basis Set: CC-PVTZ
  Basis Set:

    Orbital Energies (a.u.)
    -----------------------

    Doubly Occupied:

       1A    -20.542125     2A    -11.274084     3A    -11.217863
       4A    -11.205091     5A     -1.362761     6A     -1.044109
       7A     -0.943493     8A     -0.815396     9A     -0.668402
      10A     -0.650833    11A     -0.608041    12A     -0.559068
      13A     -0.546013    14A     -0.517715    15A     -0.515604
      16A     -0.467789    17A     -0.431342

  @DF-RHF Final Energy:  -193.19391544876541

   => Energetics <=

    Nuclear Repulsion Energy =            135.6373625917953234
    One-Electron Energy =                -530.9230955509610794
    Two-Electron Energy =                 202.0918175104004035
    DFT Exchange-Correlation Energy =       0.0000000000000000
    Empirical Dispersion Energy =           0.0000000000000000
    PCM Polarization Energy =               0.0000000000000000
    EFP Energy =                            0.0000000000000000
    Total Energy =                       -193.1939154487653809
    Molecular point group: c1
  Basis Set: CC-PVTZ
  Basis Set:

  -Total Gradient:
     Atom            X                  Y                   Z
    ------   -----------------  -----------------  -----------------
       1        0.000311202439     0.000115845194     0.000352351430
       2       -0.000428401355    -0.000145685399    -0.000548962538
       3        0.000278837756     0.000123155462     0.000392874420
       4       -0.000151426671    -0.000063200760    -0.000242210556
       5       -0.000059676317    -0.000028954372     0.000009389792
       6        0.000039654558    -0.000030939394    -0.000025104300
       7       -0.000009960479     0.000018249274     0.000043510771
       8        0.000037453751     0.000000453440     0.000007284810
       9       -0.000015301512     0.000002417630     0.000008172326
      10        0.000006883139     0.000006973610     0.000007132809
      11       -0.000008734456    -0.000000731321     0.000001930259
      12       -0.000000530852     0.000002416638    -0.000006369225

  **** Optimization is complete! (in 4 steps) ****
    Final optimized geometry and variables:
    Molecular point group: c1

    Geometry (in Angstrom), charge = 0, multiplicity = 1:

    H            0.765801850495     1.410511524952    -0.750454192883
    O            0.075796661936     1.324514438370    -0.120225564533
    C            0.000147309340     0.000267499768     0.360077545511
    C            1.195344256089    -0.823091241150    -0.092101020570
    C           -1.322360404694    -0.613822014052    -0.069067781794
    H            0.016442622160     0.063013155051     1.443487308536
    H            1.217309223663    -0.905361463424    -1.175144132054
    H            2.122816573442    -0.367592434884     0.237321984608
    H            1.150401200332    -1.825121452386     0.316525886636
    H           -1.366529718761    -0.709856033029    -1.148688366833
    H           -2.144047749544     0.016163740638     0.246687994586
    H           -1.454536496556    -1.596867461187     0.369958143752

  Mulliken Charges: (a.u.)
   Center  Symbol    Alpha    Beta     Spin     Total
       1     H     0.39212  0.39212  0.00000  0.21576
       2     O     4.21113  4.21113  0.00000 -0.42227
       3     C     2.92090  2.92090  0.00000  0.15819
       4     C     3.15958  3.15958  0.00000 -0.31916
       5     C     3.13700  3.13700  0.00000 -0.27400
       6     H     0.45936  0.45936  0.00000  0.08129
       7     H     0.45592  0.45592  0.00000  0.08815
       8     H     0.44656  0.44656  0.00000  0.10688
       9     H     0.45107  0.45107  0.00000  0.09785
      10     H     0.45976  0.45976  0.00000  0.08048
      11     H     0.44662  0.44662  0.00000  0.10677
      12     H     0.45997  0.45997  0.00000  0.08005

   Total alpha = 17.00000, Total beta = 17.00000, Total charge =  0.00000
