  ==> Input File <==

--------------------------------------------------------------------------
set {
	reference rhf
	basis 6-31G*
}

set_num_threads( 4 )
memory 2 gb

molecule MOL {
0 1

H	 -2.903897	 -0.644390	 0.669052
C	 -2.817158	 -0.125470	 -0.283491
O	 -1.486969	 0.023370	 -0.662677
H	 -3.310404	 -0.710834	 -1.047166
H	 -3.319871	 0.837114	 -0.198992
C	 -0.719715	 0.768384	 0.229244
C	 0.719720	 0.768376	 -0.229267
H	 -1.082064	 1.796251	 0.272703
H	 -0.776594	 0.349928	 1.232071
O	 1.392611	 -0.295398	 0.366430
H	 0.750534	 0.687200	 -1.313918
H	 1.185043	 1.714359	 0.050526
C	 2.706965	 -0.449871	 -0.062409
H	 2.756559	 -0.644779	 -1.131878
H	 3.305899	 0.433456	 0.155466
H	 3.125548	 -1.294566	 0.467107

	symmetry c1
}
set optking {
	frozen_dihedral = ("
		3 6 7 11
	")
}

ee = optimize('scf')
oeprop('DIPOLE', 'QUADRUPOLE', 'MULLIKEN_CHARGES')
f=open( 'psi4out.xyz', 'w' )
f.write( "16  " )
f.write( str(ee) + "\n" )
f.write( MOL.save_string_xyz() )
f.close()
--------------------------------------------------------------------------

    Molecular point group: c1
  Charge       = 0
  Multiplicity = 1
  Basis Set: 6-31G*
  Basis Set:
  @DF-RHF Final Energy:  -306.97614241499548
    Total Energy =                       -306.9761424149954792
    Molecular point group: c1
  Basis Set: 6-31G*
  Basis Set:
  Basis Set: 6-31G*
  Basis Set:
  @DF-RHF Final Energy:  -306.97630661125072
    Total Energy =                       -306.9763066112508909
  Basis Set: 6-31G*
  Basis Set:
  Basis Set: 6-31G*
  Basis Set:
  @DF-RHF Final Energy:  -306.97634806020312
    Total Energy =                       -306.9763480602029517
  Basis Set: 6-31G*
  Basis Set:
  Charge       = 0
  Multiplicity = 1
  Basis Set: 6-31G*
  Basis Set:

    Orbital Energies (a.u.)
    -----------------------

    Doubly Occupied:

       1A    -20.554798     2A    -20.553979     3A    -11.268523
       4A    -11.267873     5A    -11.264188     6A    -11.263815
       7A     -1.387059     8A     -1.371660     9A     -1.029477
      10A     -0.937054    11A     -0.889043    12A     -0.827260
      13A     -0.682545    14A     -0.681461    15A     -0.656258
      16A     -0.634728    17A     -0.631863    18A     -0.598081
      19A     -0.543779    20A     -0.541385    21A     -0.508563
      22A     -0.478482    23A     -0.463438    24A     -0.421371
      25A     -0.410258

  @DF-RHF Final Energy:  -306.97634914652991

   => Energetics <=

    Nuclear Repulsion Energy =            257.5016732270988200
    One-Electron Energy =                -929.2221653766857798
    Two-Electron Energy =                 364.7441430030571610
    DFT Exchange-Correlation Energy =       0.0000000000000000
    Empirical Dispersion Energy =           0.0000000000000000
    PCM Polarization Energy =               0.0000000000000000
    EFP Energy =                            0.0000000000000000
    Total Energy =                       -306.9763491465298557
    Molecular point group: c1
  Basis Set: 6-31G*
  Basis Set:

  -Total Gradient:
     Atom            X                  Y                   Z
    ------   -----------------  -----------------  -----------------
       1        0.000003061524     0.000007608630    -0.000006199376
       2       -0.000033742874    -0.000037792297    -0.000056529816
       3       -0.000424526501     0.002231369089    -0.001403024175
       4       -0.000040834489    -0.000007228560     0.000013125077
       5        0.000001130529     0.000001055979     0.000010900273
       6        0.000596712457    -0.003633813717     0.001965772152
       7       -0.000153826128     0.004856196595    -0.000765811608
       8       -0.000017062905     0.000016995901     0.000024889888
       9       -0.000019319555    -0.000020709044    -0.000022222851
      10       -0.000054252295     0.000108146691    -0.000046132467
      11        0.000087958831    -0.003463583649     0.000281985728
      12       -0.000003495039    -0.000011554824     0.000000814789
      13        0.000050234877    -0.000053986817     0.000011022330
      14        0.000005946810     0.000004456856     0.000002342433
      15       -0.000011687916    -0.000001043158    -0.000002234678
      16        0.000013702676     0.000003882326    -0.000008697699

  **** Optimization is complete! (in 4 steps) ****
    Final optimized geometry and variables:
    Molecular point group: c1

    Geometry (in Angstrom), charge = 0, multiplicity = 1:

    H           -2.861892160512    -0.762044049260     0.777740652252
    C           -2.775525858030    -0.246944797990    -0.176825879378
    O           -1.444952922300    -0.088287271997    -0.551797999429
    H           -3.261703159859    -0.839248873577    -0.939757009617
    H           -3.285262005099     0.712309480585    -0.098312019819
    C           -0.688569782615     0.673951192685     0.339202141180
    C            0.758618868285     0.679038708455    -0.113480911047
    H           -1.072338296655     1.694179039960     0.363196057423
    H           -0.744542083356     0.270856008328     1.346899606522
    O            1.420601234110    -0.403222159848     0.471984905761
    H            0.785721137365     0.585935758809    -1.195939221299
    H            1.243351734899     1.611367661247     0.172950053048
    C            2.732401976027    -0.568727467581     0.039150102407
    H            2.778381544051    -0.752888531972    -1.032429819807
    H            3.341240851040     0.305697225230     0.264784105926
    H            3.142927613939    -1.423301391803     0.559217183659

  Mulliken Charges: (a.u.)
   Center  Symbol    Alpha    Beta     Spin     Total
       1     H     0.42769  0.42769  0.00000  0.14461
       2     C     3.07993  3.07993  0.00000 -0.15987
       3     O     4.30415  4.30415  0.00000 -0.60830
       4     H     0.41153  0.41153  0.00000  0.17695
       5     H     0.43143  0.43143  0.00000  0.13713
       6     C     2.99538  2.99538  0.00000  0.00924
       7     C     2.99604  2.99604  0.00000  0.00792
       8     H     0.43185  0.43185  0.00000  0.13630
       9     H     0.41782  0.41782  0.00000  0.16435
      10     O     4.30477  4.30477  0.00000 -0.60955
      11     H     0.41759  0.41759  0.00000  0.16482
      12     H     0.43071  0.43071  0.00000  0.13858
      13     C     3.07979  3.07979  0.00000 -0.15957
      14     H     0.42806  0.42806  0.00000  0.14387
      15     H     0.43161  0.43161  0.00000  0.13677
      16     H     0.41164  0.41164  0.00000  0.17672

   Total alpha = 25.00000, Total beta = 25.00000, Total charge =  0.00000
