  ==> Input File <==

--------------------------------------------------------------------------
set {
	reference rhf
	basis cc-pvtz
}

set_num_threads( 4 )
memory 2 gb

molecule MOL {
0 1

H	 2.218374	 1.768207	 -1.513109
C	 1.498368	 1.595179	 -0.723849
C	 1.322304	 0.099773	 -0.484271
H	 1.856183	 2.097751	 0.167644
H	 0.564387	 2.059775	 -1.019098
C	 0.308557	 -0.162619	 0.622645
H	 2.268737	 -0.347430	 -0.206769
H	 0.984958	 -0.386028	 -1.391538
N	 -1.069352	 -0.004081	 0.085342
H	 0.371632	 -1.172932	 0.991288
H	 0.400391	 0.548875	 1.426218
O	 -1.584901	 -0.965470	 -0.377818
O	 -1.548033	 1.079343	 0.130056

	symmetry c1
}
set optking {
	frozen_dihedral = ("
		7 3 6 9
	")
}

ee = optimize('scf')
oeprop('DIPOLE', 'QUADRUPOLE', 'MULLIKEN_CHARGES')
f=open( 'psi4out.xyz', 'w' )
f.write( "13  " )
f.write( str(ee) + "\n" )
f.write( MOL.save_string_xyz() )
f.close()
--------------------------------------------------------------------------

    Molecular point group: c1
  Charge       = 0
  Multiplicity = 1
  Basis Set: CC-PVTZ
  Basis Set:
  @DF-RHF Final Energy:  -321.85906187746923
    Total Energy =                       -321.8590618774691166
    Molecular point group: c1
  Basis Set: CC-PVTZ
  Basis Set:
  Basis Set: CC-PVTZ
  Basis Set:
  @DF-RHF Final Energy:  -321.85982573390970
    Total Energy =                       -321.8598257339093607
  Basis Set: CC-PVTZ
  Basis Set:
  Basis Set: CC-PVTZ
  Basis Set:
  @DF-RHF Final Energy:  -321.85302594389111
    Total Energy =                       -321.8530259438911116
  Basis Set: CC-PVTZ
  Basis Set:
  Basis Set: CC-PVTZ
  Basis Set:
  @DF-RHF Final Energy:  -321.85987500605529
    Total Energy =                       -321.8598750060554039
  Basis Set: CC-PVTZ
  Basis Set:
  @DF-RHF Final Energy:  -321.86012856604464
    Total Energy =                       -321.8601285660445228
  @DF-RHF Final Energy:  -321.86019738763991
    Total Energy =                       -321.8601973876397437
  @DF-RHF Final Energy:  -321.86030206373744
    Total Energy =                       -321.8603020637376062
  Basis Set: CC-PVTZ
  Basis Set:
  @DF-RHF Final Energy:  -321.86034410788432
    Total Energy =                       -321.8603441078844298
  Basis Set: CC-PVTZ
  Basis Set:
  Basis Set: CC-PVTZ
  Basis Set:
  @DF-RHF Final Energy:  -321.86035040483398
    Total Energy =                       -321.8603504048340938
  Basis Set: CC-PVTZ
  Basis Set:
  Basis Set: CC-PVTZ
  Basis Set:
  @DF-RHF Final Energy:  -321.86035347041633
    Total Energy =                       -321.8603534704162712
  Basis Set: CC-PVTZ
  Basis Set:
  Charge       = 0
  Multiplicity = 1
  Basis Set: CC-PVTZ
  Basis Set:

    Orbital Energies (a.u.)
    -----------------------

    Doubly Occupied:

       1A    -20.592758     2A    -20.589249     3A    -15.837266
       4A    -11.297703     5A    -11.252446     6A    -11.230120
       7A     -1.636491     8A     -1.420715     9A     -1.132304
      10A     -1.022513    11A     -0.892601    12A     -0.826092
      13A     -0.762410    14A     -0.740622    15A     -0.728719
      16A     -0.645389    17A     -0.625258    18A     -0.596286
      19A     -0.531359    20A     -0.519739    21A     -0.513720
      22A     -0.487349    23A     -0.474987    24A     -0.453452

  @DF-RHF Final Energy:  -321.86035402451057

   => Energetics <=

    Nuclear Repulsion Energy =            252.0284066457998904
    One-Electron Energy =                -938.1584291093095089
    Two-Electron Energy =                 364.2696684389989059
    DFT Exchange-Correlation Energy =       0.0000000000000000
    Empirical Dispersion Energy =           0.0000000000000000
    PCM Polarization Energy =               0.0000000000000000
    EFP Energy =                            0.0000000000000000
    Total Energy =                       -321.8603540245106842
    Molecular point group: c1
  Basis Set: CC-PVTZ
  Basis Set:

  -Total Gradient:
     Atom            X                  Y                   Z
    ------   -----------------  -----------------  -----------------
       1       -0.000000106267     0.000001598782    -0.000000682280
       2       -0.000010120109     0.000005008848     0.000005236276
       3        0.000991108888     0.002425445137     0.001487485342
       4        0.000001224728     0.000001298060    -0.000000742835
       5        0.000001446198    -0.000002636637     0.000000671318
       6       -0.000137677190     0.002471810577     0.000445253136
       7       -0.000816084911    -0.002656976346    -0.001394955987
       8        0.000000286269     0.000001996850     0.000008316707
       9       -0.000045663400    -0.002187270575    -0.000505423065
      10        0.000002814651    -0.000002964647    -0.000006200799
      11       -0.000004267433    -0.000006785705     0.000001635840
      12       -0.000015813049    -0.000031239492    -0.000007657130
      13        0.000032851621    -0.000019284858    -0.000032936524

  **** Optimization is complete! (in 11 steps) ****
    Final optimized geometry and variables:
    Molecular point group: c1

    Geometry (in Angstrom), charge = 0, multiplicity = 1:

    H            2.485174644346     1.421593866846    -1.458277658965
    C            1.749363032535     1.306253709540    -0.672517215917
    C            1.547308127540    -0.168486186066    -0.346290687023
    H            2.096683711780     1.856455343067     0.194600963351
    H            0.828591135304     1.766385304618    -1.010802216382
    C            0.518623822423    -0.423409694335     0.750263654319
    H            2.475468108368    -0.624538567036    -0.021893668395
    H            1.243086771236    -0.715036240031    -1.229440256351
    N           -0.869653831623    -0.277236053972     0.224279974835
    H            0.572319258875    -1.442200032726     1.100350860890
    H            0.602266461999     0.264899390710     1.573400386380
    O           -1.232031843745    -1.081561709240    -0.567776251584
    O           -1.518212836412     0.629075751206     0.626585624385

  Mulliken Charges: (a.u.)
   Center  Symbol    Alpha    Beta     Spin     Total
       1     H     0.44515  0.44515  0.00000  0.10969
       2     C     3.14307  3.14307  0.00000 -0.28614
       3     C     3.09833  3.09833  0.00000 -0.19666
       4     H     0.45382  0.45382  0.00000  0.09237
       5     H     0.44603  0.44603  0.00000  0.10794
       6     C     3.04769  3.04769  0.00000 -0.09539
       7     H     0.44592  0.44592  0.00000  0.10816
       8     H     0.43621  0.43621  0.00000  0.12758
       9     N     3.27773  3.27773  0.00000  0.44453
      10     H     0.42819  0.42819  0.00000  0.14363
      11     H     0.43362  0.43362  0.00000  0.13277
      12     O     4.17447  4.17447  0.00000 -0.34894
      13     O     4.16977  4.16977  0.00000 -0.33955

   Total alpha = 24.00000, Total beta = 24.00000, Total charge =  0.00000
