                              Psi4 1.0.54 Driver

  ==> Input File <==

--------------------------------------------------------------------------
set {
	reference rhf
	basis cc-pvtz
}

set_num_threads( 4 )
memory 2 gb

molecule MOL {
0 1

H	 2.640531	 1.234427	 -1.287119
N	 1.830882	 0.651658	 -1.308043
C	 1.263552	 0.494993	 0.021953
H	 2.112589	 -0.230669	 -1.681510
C	 -0.016533	 -0.325589	 -0.026925
H	 1.039267	 1.484846	 0.405206
H	 1.957103	 0.035959	 0.727828
C	 -1.280353	 0.525521	 0.047747
H	 -0.016686	 -0.912532	 -0.939714
H	 -0.014099	 -1.037598	 0.796369
C	 -2.560681	 -0.301323	 -0.007747
H	 -1.279957	 1.241025	 -0.770189
H	 -1.270445	 1.110526	 0.963468
H	 -2.617064	 -0.872870	 -0.928010
H	 -3.439525	 0.331102	 0.043462
H	 -2.609427	 -1.002736	 0.818585

	symmetry c1
}
set optking {
	frozen_dihedral = ("
		6 3 5 9
	")
}

ee,wfn = optimize('scf', return_wfn=True)
oeprop( wfn, 'DIPOLE', 'QUADRUPOLE', 'MULLIKEN_CHARGES')
f=open( 'psi4out.xyz', 'w' )
f.write( "16  " )
f.write( str(ee) + "\n" )
f.write( MOL.save_string_xyz() )
f.close()
--------------------------------------------------------------------------

    Molecular point group: c1
  Charge       = 0
  Multiplicity = 1
  Basis Set: CC-PVTZ
  Basis Set:
  @DF-RHF Final Energy:  -212.39555595840915
    Total Energy =                       -212.3955559584090338
    Molecular point group: c1
  Basis Set: CC-PVTZ
  Basis Set:
  Basis Set: CC-PVTZ
  Basis Set:
  @DF-RHF Final Energy:  -212.39606279566436
    Total Energy =                       -212.3960627956644771
  Basis Set: CC-PVTZ
  Basis Set:
  Basis Set: CC-PVTZ
  Basis Set:
  @DF-RHF Final Energy:  -212.39617047335790
    Total Energy =                       -212.3961704733578699
  Basis Set: CC-PVTZ
  Basis Set:
  Basis Set: CC-PVTZ
  Basis Set:
  @DF-RHF Final Energy:  -212.39617372415393
    Total Energy =                       -212.3961737241538685
  Basis Set: CC-PVTZ
  Basis Set:
  Charge       = 0
  Multiplicity = 1
  Basis Set: CC-PVTZ
  Basis Set:

    Orbital Energies (a.u.)
    -----------------------

    Doubly Occupied:

       1A    -15.527032     2A    -11.238471     3A    -11.208256
       4A    -11.207625     5A    -11.202669     6A     -1.177677
       7A     -1.056417     8A     -0.956998     9A     -0.845049
      10A     -0.789403    11A     -0.661578    12A     -0.641762
      13A     -0.599044    14A     -0.575721    15A     -0.567878
      16A     -0.515328    17A     -0.503846    18A     -0.468405
      19A     -0.462743    20A     -0.461949    21A     -0.382265

  @DF-RHF Final Energy:  -212.39617410799255

   => Energetics <=

    Nuclear Repulsion Energy =            187.8528839437603040
    One-Electron Energy =                -658.3978874817191809
    Two-Electron Energy =                 258.1488294299663266
    DFT Exchange-Correlation Energy =       0.0000000000000000
    Empirical Dispersion Energy =           0.0000000000000000
    PCM Polarization Energy =               0.0000000000000000
    EFP Energy =                            0.0000000000000000
    Total Energy =                       -212.3961741079925787
    Molecular point group: c1
  Basis Set: CC-PVTZ
  Basis Set:

  -Total Gradient:
     Atom            X                  Y                   Z
    ------   -----------------  -----------------  -----------------
       1       -0.000001083230    -0.000012282977    -0.000034837880
       2        0.000062122036     0.000015698520     0.000020132653
       3        0.000393835693    -0.000881577495     0.004290725545
       4       -0.000003549109     0.000024506425     0.000022679614
       5        0.002171831629    -0.003466163426     0.001502757266
       6       -0.000712864803     0.001249569046    -0.003855663370
       7       -0.000027843418    -0.000017724976    -0.000034202495
       8        0.000017270111     0.000029725088     0.000061419151
       9       -0.001863335631     0.003027555231    -0.001976157557
      10        0.000007597223     0.000037814438     0.000012043112
      11       -0.000018581056    -0.000000512772    -0.000019906171
      12        0.000015164029    -0.000000569063     0.000018417810
      13       -0.000021813678    -0.000001818919     0.000001727238
      14       -0.000004482430    -0.000010734173     0.000007331708
      15       -0.000017098534    -0.000005895740    -0.000008659511
      16        0.000002831169     0.000012410792    -0.000007807116

  **** Optimization is complete! (in 5 steps) ****
    Final optimized geometry and variables:
    Molecular point group: c1

    Geometry (in Angstrom), charge = 0, multiplicity = 1:

    H            2.710577724680     1.067843547990    -1.016144752131
    N            1.931829112281     0.443661591532    -1.012250001196
    C            1.402660134139     0.272432595008     0.335966283169
    H            2.250412120725    -0.427045314438    -1.383090401464
    C            0.107481775330    -0.548923491577     0.306440603538
    H            1.189265404394     1.268998063998     0.704924402802
    H            2.121982148110    -0.182079054959     1.014388602206
    C           -1.150599273180     0.318316525889     0.296472164604
    H            0.101037062071    -1.148884364097    -0.598445411239
    H            0.071501653946    -1.229381951356     1.151190652685
    C           -2.435790919967    -0.490808952573     0.162953731330
    H           -1.078951027930     1.026554823674    -0.523041730699
    H           -1.188276728555     0.905252938326     1.210420443878
    H           -2.446898209626    -1.056936231872    -0.762548247630
    H           -3.307943574423     0.153048516522     0.166355267346
    H           -2.542684299425    -1.195793015331     0.981213069003

  Mulliken Charges: (a.u.)
   Center  Symbol    Alpha    Beta     Spin     Total
       1     H     0.42879  0.42879  0.00000  0.14242
       2     N     3.69327  3.69327  0.00000 -0.38655
       3     C     3.03525  3.03525  0.00000 -0.07050
       4     H     0.43058  0.43058  0.00000  0.13884
       5     C     3.08138  3.08138  0.00000 -0.16277
       6     H     0.45847  0.45847  0.00000  0.08306
       7     H     0.45934  0.45934  0.00000  0.08131
       8     C     3.08396  3.08396  0.00000 -0.16791
       9     H     0.45936  0.45936  0.00000  0.08128
      10     H     0.45164  0.45164  0.00000  0.09672
      11     C     3.15106  3.15106  0.00000 -0.30212
      12     H     0.44934  0.44934  0.00000  0.10132
      13     H     0.45694  0.45694  0.00000  0.08612
      14     H     0.45472  0.45472  0.00000  0.09057
      15     H     0.44910  0.44910  0.00000  0.10180
      16     H     0.45680  0.45680  0.00000  0.08640

   Total alpha = 21.00000, Total beta = 21.00000, Total charge = -0.00000

*** Psi4 exiting successfully. Buy a developer a beer!
