  ==> Input File <==

--------------------------------------------------------------------------
set {
	reference rhf
	basis cc-pvtz
}

set_num_threads( 4 )
memory 2 gb

molecule MOL {
0 1

H	 2.627905	 0.060166	 -0.984643
O	 1.782022	 -0.359528	 -1.030195
C	 1.050374	 0.054877	 0.000135
C	 -0.318151	 -0.570512	 0.000144
O	 1.464480	 0.823599	 0.797350
C	 -1.454884	 0.441630	 -0.000560
H	 -0.371613	 -1.223646	 -0.864985
H	 -0.371920	 -1.222758	 0.865929
C	 -2.822577	 -0.232186	 0.000063
H	 -1.359760	 1.084704	 -0.867077
H	 -1.359641	 1.085996	 0.864983
H	 -2.954352	 -0.858985	 -0.875745
H	 -3.615886	 0.505352	 0.000019
H	 -2.953878	 -0.858359	 0.876394

	symmetry c1
}
set optking {
	frozen_dihedral = ("
		2 3 4 7
	")
}

ee = optimize('scf')
oeprop('DIPOLE', 'QUADRUPOLE', 'MULLIKEN_CHARGES')
f=open( 'psi4out.xyz', 'w' )
f.write( "14  " )
f.write( str(ee) + "\n" )
f.write( MOL.save_string_xyz() )
f.close()
--------------------------------------------------------------------------

    Molecular point group: c1
  Charge       = 0
  Multiplicity = 1
  Basis Set: CC-PVTZ
  Basis Set:
  @DF-RHF Final Energy:  -305.99881765868668
    Total Energy =                       -305.9988176586868462
    Molecular point group: c1
  Basis Set: CC-PVTZ
  Basis Set:
  Basis Set: CC-PVTZ
  Basis Set:
  @DF-RHF Final Energy:  -305.99938264674438
    Total Energy =                       -305.9993826467442659
  Basis Set: CC-PVTZ
  Basis Set:
  Basis Set: CC-PVTZ
  Basis Set:
  @DF-RHF Final Energy:  -305.99901559062636
    Total Energy =                       -305.9990155906260725
  Basis Set: CC-PVTZ
  Basis Set:
  Basis Set: CC-PVTZ
  Basis Set:
  @DF-RHF Final Energy:  -305.99943706625970
    Total Energy =                       -305.9994370662598726
  Basis Set: CC-PVTZ
  Basis Set:
  Basis Set: CC-PVTZ
  Basis Set:
  @DF-RHF Final Energy:  -305.99944083793741
    Total Energy =                       -305.9994408379372999
  Basis Set: CC-PVTZ
  Basis Set:
  Charge       = 0
  Multiplicity = 1
  Basis Set: CC-PVTZ
  Basis Set:

    Orbital Energies (a.u.)
    -----------------------

    Doubly Occupied:

       1A    -20.606687     2A    -20.538208     3A    -11.373682
       4A    -11.238496     5A    -11.230086     6A    -11.217492
       7A     -1.478516     8A     -1.368599     9A     -1.085625
      10A     -0.980341    11A     -0.857262    12A     -0.802671
      13A     -0.706259    14A     -0.690673    15A     -0.654479
      16A     -0.629536    17A     -0.596594    18A     -0.572721
      19A     -0.550955    20A     -0.513286    21A     -0.496201
      22A     -0.488137    23A     -0.475233    24A     -0.444409

  @DF-RHF Final Energy:  -305.99944103238329

   => Energetics <=

    Nuclear Repulsion Energy =            240.4907409743222217
    One-Electron Energy =                -893.7880743238846435
    Two-Electron Energy =                 347.2978923171790484
    DFT Exchange-Correlation Energy =       0.0000000000000000
    Empirical Dispersion Energy =           0.0000000000000000
    PCM Polarization Energy =               0.0000000000000000
    EFP Energy =                            0.0000000000000000
    Total Energy =                       -305.9994410323834018
    Molecular point group: c1
  Basis Set: CC-PVTZ
  Basis Set:

  -Total Gradient:
     Atom            X                  Y                   Z
    ------   -----------------  -----------------  -----------------
       1       -0.000012797853     0.000000005889     0.000010855782
       2       -0.000150650460     0.000263430650    -0.000225644025
       3        0.000219969536    -0.000438462085     0.000378428751
       4       -0.000241156624     0.000518117287    -0.000396685866
       5        0.000003202862     0.000010484288     0.000004601231
       6        0.000014702078     0.000007111363    -0.000007182790
       7        0.000150483010    -0.000362896709     0.000229377059
       8        0.000003747741     0.000007499301    -0.000012077228
       9        0.000007340014    -0.000009941896     0.000013925125
      10        0.000003635070    -0.000011747501     0.000005849229
      11       -0.000010316243     0.000009108307    -0.000000061117
      12        0.000006572978     0.000004840847    -0.000001184765
      13        0.000005973184     0.000006269943     0.000002735144
      14       -0.000000705294    -0.000003819686    -0.000002936532

  **** Optimization is complete! (in 6 steps) ****
    Final optimized geometry and variables:
    Molecular point group: c1

    Geometry (in Angstrom), charge = 0, multiplicity = 1:

    H            2.663417119879     0.092836060848    -0.882303039781
    O            1.830535325817    -0.346969636490    -0.969228452372
    C            1.056849398875     0.019323873421     0.046151238692
    C           -0.302768781646    -0.629163421067     0.019289866627
    O            1.423943331308     0.781025806717     0.873944681107
    C           -1.428506293391     0.406666641344     0.032987795306
    H           -0.378458087614    -1.278372768087    -0.841564184256
    H           -0.366908092967    -1.247731064051     0.908097057519
    C           -2.806295731862    -0.243493551174     0.072598231094
    H           -1.348055023950     1.034333926559    -0.849039821577
    H           -1.297138373964     1.054687356940     0.889834829947
    H           -2.966674495419    -0.881818668216    -0.789627230749
    H           -3.586815060924     0.507668960080     0.077886908804
    H           -2.925952489586    -0.852009224463     0.962547318151

  Mulliken Charges: (a.u.)
   Center  Symbol    Alpha    Beta     Spin     Total
       1     H     0.38046  0.38046  0.00000  0.23908
       2     O     4.15790  4.15790  0.00000 -0.31579
       3     C     2.80840  2.80840  0.00000  0.38320
       4     C     3.09026  3.09026  0.00000 -0.18053
       5     O     4.19867  4.19867  0.00000 -0.39735
       6     C     3.08887  3.08887  0.00000 -0.17775
       7     H     0.43849  0.43849  0.00000  0.12303
       8     H     0.44338  0.44338  0.00000  0.11323
       9     C     3.14992  3.14992  0.00000 -0.29983
      10     H     0.45054  0.45054  0.00000  0.09891
      11     H     0.43935  0.43935  0.00000  0.12130
      12     H     0.45468  0.45468  0.00000  0.09063
      13     H     0.44552  0.44552  0.00000  0.10895
      14     H     0.45355  0.45355  0.00000  0.09290

   Total alpha = 24.00000, Total beta = 24.00000, Total charge = -0.00000
