                              Psi4 1.0.54 Driver

  ==> Input File <==

--------------------------------------------------------------------------
set {
	reference rhf
	basis cc-pvtz
}

set_num_threads( 4 )
memory 2 gb

molecule MOL {
0 1

H	 3.459101	 0.139266	 -0.762951
C	 2.749156	 -0.051729	 0.031265
C	 1.322304	 0.099773	 -0.484271
H	 2.929445	 -1.053887	 0.403481
H	 2.954281	 0.646699	 0.834672
C	 0.308557	 -0.162619	 0.622645
H	 1.143368	 -0.594400	 -1.295960
H	 1.169532	 1.100095	 -0.870217
N	 -1.069352	 -0.004081	 0.085342
H	 0.371632	 -1.172932	 0.991288
H	 0.400391	 0.548875	 1.426218
O	 -1.784830	 -0.947294	 0.140263
O	 -1.349902	 1.045790	 -0.387949

	symmetry c1
}
set optking {
	frozen_dihedral = ("
		12 9 6 3
	")
}

ee,wfn = optimize('scf', return_wfn=True)
oeprop( wfn, 'DIPOLE', 'QUADRUPOLE', 'MULLIKEN_CHARGES')
f=open( 'psi4out.xyz', 'w' )
f.write( "13  " )
f.write( str(ee) + "\n" )
f.write( MOL.save_string_xyz() )
f.close()
--------------------------------------------------------------------------

    Molecular point group: c1
  Charge       = 0
  Multiplicity = 1
  Basis Set: CC-PVTZ
  Basis Set:
  @DF-RHF Final Energy:  -321.86097794785098
    Total Energy =                       -321.8609779478508699
    Molecular point group: c1
  Basis Set: CC-PVTZ
  Basis Set:
  Basis Set: CC-PVTZ
  Basis Set:
  @DF-RHF Final Energy:  -321.85619832237614
    Total Energy =                       -321.8561983223761445
  Basis Set: CC-PVTZ
  Basis Set:
  Basis Set: CC-PVTZ
  Basis Set:
  @DF-RHF Final Energy:  -321.86065061303651
    Total Energy =                       -321.8606506130365119
  Basis Set: CC-PVTZ
  Basis Set:
  Basis Set: CC-PVTZ
  Basis Set:
  @DF-RHF Final Energy:  -321.86125105247322
    Total Energy =                       -321.8612510524733352
  Basis Set: CC-PVTZ
  Basis Set:
  Basis Set: CC-PVTZ
  Basis Set:
  @DF-RHF Final Energy:  -321.86124095952789
    Total Energy =                       -321.8612409595276631
  Basis Set: CC-PVTZ
  Basis Set:
  Basis Set: CC-PVTZ
  Basis Set:
  @DF-RHF Final Energy:  -321.86126020925451
    Total Energy =                       -321.8612602092542829
  Basis Set: CC-PVTZ
  Basis Set:
  Charge       = 0
  Multiplicity = 1
  Basis Set: CC-PVTZ
  Basis Set:

    Orbital Energies (a.u.)
    -----------------------

    Doubly Occupied:

       1A    -20.592565     2A    -20.588980     3A    -15.837414
       4A    -11.297723     5A    -11.251960     6A    -11.236451
       7A     -1.636430     8A     -1.420672     9A     -1.133318
      10A     -1.027574    11A     -0.884337    12A     -0.832376
      13A     -0.762686    14A     -0.741276    15A     -0.728865
      16A     -0.669709    17A     -0.604680    18A     -0.585624
      19A     -0.551358    20A     -0.521709    21A     -0.511989
      22A     -0.487669    23A     -0.474656    24A     -0.453811

  @DF-RHF Final Energy:  -321.86126036103605

   => Energetics <=

    Nuclear Repulsion Energy =            247.8310298815346755
    One-Electron Energy =                -929.7169188211244091
    Two-Electron Energy =                 360.0246285785535747
    DFT Exchange-Correlation Energy =       0.0000000000000000
    Empirical Dispersion Energy =           0.0000000000000000
    PCM Polarization Energy =               0.0000000000000000
    EFP Energy =                            0.0000000000000000
    Total Energy =                       -321.8612603610361020
    Molecular point group: c1
  Basis Set: CC-PVTZ
  Basis Set:

  -Total Gradient:
     Atom            X                  Y                   Z
    ------   -----------------  -----------------  -----------------
       1        0.000005779311    -0.000005009272    -0.000000933016
       2       -0.000006343783    -0.000014229153    -0.000006125941
       3       -0.000007190311     0.000348997000     0.000087847996
       4        0.000002053928    -0.000001018938     0.000005911387
       5       -0.000002336089     0.000004002438    -0.000005584918
       6       -0.000069197533    -0.000415177232     0.000051316332
       7        0.000002238930     0.000001852697     0.000000180984
       8       -0.000002688654     0.000014604302     0.000004751074
       9        0.000130329214    -0.000104830459    -0.000605217373
      10       -0.000004609031    -0.000012315171     0.000005622057
      11       -0.000000939376     0.000005068419    -0.000007594553
      12       -0.000083710132     0.000095202831     0.000472575519
      13        0.000036613521     0.000082852540    -0.000002749551

  **** Optimization is complete! (in 7 steps) ****
    Final optimized geometry and variables:
    Molecular point group: c1

    Geometry (in Angstrom), charge = 0, multiplicity = 1:

    H            3.462523411409     0.176898980540    -0.815010525593
    C            2.759569343337    -0.016981798545    -0.015321235076
    C            1.327894779010     0.129258192616    -0.520046850265
    H            2.949061100688    -1.017309437365     0.357318616523
    H            2.967726982269     0.683710129189     0.785638860162
    C            0.328606750575    -0.145460058217     0.593612143682
    H            1.150377449629    -0.564866688589    -1.334022127448
    H            1.163812645517     1.126013400544    -0.904224771176
    N           -1.071005174224    -0.021985135737     0.098582165527
    H            0.414488523542    -1.141990900488     0.990561025372
    H            0.414912869364     0.581834190887     1.387471394337
    O           -1.766348694497    -0.977573690754     0.176979503088
    O           -1.398180911611     1.031527852848    -0.336453599321

  Mulliken Charges: (a.u.)
   Center  Symbol    Alpha    Beta     Spin     Total
       1     H     0.44158  0.44158  0.00000  0.11685
       2     C     3.15132  3.15132  0.00000 -0.30264
       3     C     3.09619  3.09619  0.00000 -0.19237
       4     H     0.45198  0.45198  0.00000  0.09604
       5     H     0.45204  0.45204  0.00000  0.09592
       6     C     3.04010  3.04010  0.00000 -0.08019
       7     H     0.44284  0.44284  0.00000  0.11431
       8     H     0.43364  0.43364  0.00000  0.13273
       9     N     3.27683  3.27683  0.00000  0.44634
      10     H     0.43267  0.43267  0.00000  0.13466
      11     H     0.43709  0.43709  0.00000  0.12581
      12     O     4.16904  4.16904  0.00000 -0.33809
      13     O     4.17469  4.17469  0.00000 -0.34938

   Total alpha = 24.00000, Total beta = 24.00000, Total charge =  0.00000

*** Psi4 exiting successfully. Buy a developer a beer!
