                              Psi4 1.0.54 Driver

  ==> Input File <==

--------------------------------------------------------------------------
set {
	reference rhf
	basis cc-pvtz
}

set_num_threads( 4 )
memory 2 gb

molecule MOL {
0 1

H	 -3.144994	 -1.202467	 -0.018751
O	 -2.321472	 -0.864941	 -0.318626
C	 -2.021813	 0.336996	 0.342658
C	 -0.669613	 0.837286	 -0.127252
H	 -2.780861	 1.084746	 0.127159
H	 -2.006390	 0.184138	 1.420053
C	 0.490865	 -0.082543	 0.241244
H	 -0.708709	 0.967192	 -1.204587
H	 -0.507562	 1.822272	 0.303070
C	 1.630124	 0.646905	 0.947362
H	 0.866697	 -0.559284	 -0.656823
H	 0.124200	 -0.880512	 0.883836
C	 2.786993	 -0.273089	 1.322929
H	 1.997866	 1.442577	 0.305198
H	 1.249955	 1.130730	 1.843506
H	 3.211673	 -0.745035	 0.443252
H	 3.579758	 0.274252	 1.820167
H	 2.458908	 -1.061107	 1.992879

	symmetry c1
}
set optking {
	frozen_dihedral = ("
		10 7 4 8
	")
}

ee,wfn = optimize('scf', return_wfn=True)
oeprop( wfn, 'DIPOLE', 'QUADRUPOLE', 'MULLIKEN_CHARGES')
f=open( 'psi4out.xyz', 'w' )
f.write( "18  " )
f.write( str(ee) + "\n" )
f.write( MOL.save_string_xyz() )
f.close()
--------------------------------------------------------------------------

    Molecular point group: c1
  Charge       = 0
  Multiplicity = 1
  Basis Set: CC-PVTZ
  Basis Set:
  @DF-RHF Final Energy:  -271.28186676763022
    Total Energy =                       -271.2818667676299356
    Molecular point group: c1
  Basis Set: CC-PVTZ
  Basis Set:
  Basis Set: CC-PVTZ
  Basis Set:
  @DF-RHF Final Energy:  -271.28208710521068
    Total Energy =                       -271.2820871052108487
  Basis Set: CC-PVTZ
  Basis Set:
  Basis Set: CC-PVTZ
  Basis Set:
  @DF-RHF Final Energy:  -271.28215743450846
    Total Energy =                       -271.2821574345083491
  Basis Set: CC-PVTZ
  Basis Set:
  Basis Set: CC-PVTZ
  Basis Set:
  @DF-RHF Final Energy:  -271.28215850873221
    Total Energy =                       -271.2821585087320955
  Basis Set: CC-PVTZ
  Basis Set:
  Charge       = 0
  Multiplicity = 1
  Basis Set: CC-PVTZ
  Basis Set:

    Orbital Energies (a.u.)
    -----------------------

    Doubly Occupied:

       1A    -20.546146     2A    -11.265910     3A    -11.210451
       4A    -11.210151     5A    -11.205586     6A    -11.203390
       7A     -1.364173     8A     -1.075229     9A     -1.009967
      10A     -0.914217    11A     -0.821283    12A     -0.784325
      13A     -0.705492    14A     -0.652046    15A     -0.620069
      16A     -0.578976    17A     -0.574009    18A     -0.559543
      19A     -0.524857    20A     -0.507840    21A     -0.484982
      22A     -0.468729    23A     -0.457207    24A     -0.449829
      25A     -0.431107

  @DF-RHF Final Energy:  -271.28215890381853

   => Energetics <=

    Nuclear Repulsion Energy =            249.5274451542163945
    One-Electron Energy =                -862.3681821491397841
    Two-Electron Energy =                 341.5585780911050620
    DFT Exchange-Correlation Energy =       0.0000000000000000
    Empirical Dispersion Energy =           0.0000000000000000
    PCM Polarization Energy =               0.0000000000000000
    EFP Energy =                            0.0000000000000000
    Total Energy =                       -271.2821589038183561
    Molecular point group: c1
  Basis Set: CC-PVTZ
  Basis Set:

  -Total Gradient:
     Atom            X                  Y                   Z
    ------   -----------------  -----------------  -----------------
       1        0.000000553646     0.000011259711     0.000002966821
       2        0.000021066005    -0.000031088421    -0.000008625426
       3       -0.000027015356     0.000049604440     0.000000215258
       4        0.001118839656     0.001630289515     0.000618393341
       5       -0.000003211054     0.000001239518     0.000008593099
       6        0.000015358891    -0.000002467382    -0.000021347933
       7        0.000512441308     0.000000691565    -0.001620594137
       8       -0.001082876439    -0.001414415684    -0.000113689772
       9        0.000002454788    -0.000009157310     0.000006229296
      10       -0.000562028800    -0.000238586221     0.001121193988
      11        0.000003049892     0.000013941477    -0.000006425478
      12        0.000001125534     0.000002378743     0.000005744007
      13        0.000007825208    -0.000006103067     0.000012882832
      14       -0.000005870628    -0.000009869064    -0.000003089903
      15       -0.000007930451     0.000002333508    -0.000009206090
      16       -0.000004142200     0.000004553043     0.000004312859
      17        0.000008058225    -0.000004806810     0.000005314770
      18        0.000002301772     0.000000202437    -0.000002867531

  **** Optimization is complete! (in 5 steps) ****
    Final optimized geometry and variables:
    Molecular point group: c1

    Geometry (in Angstrom), charge = 0, multiplicity = 1:

    H           -3.052688166171    -1.294843363378    -0.407313470762
    O           -2.237800413622    -0.941231290344    -0.712078997686
    C           -1.964987553161     0.274672222478    -0.065650707416
    C           -0.610416583667     0.778199283652    -0.524069672170
    H           -2.729781954191     1.009785275553    -0.304126031055
    H           -1.962926651278     0.138601737512     1.014308930374
    C            0.557597677830    -0.151362241973    -0.144551293116
    H           -0.656825907717     0.904778410866    -1.599863436550
    H           -0.461007626444     1.763998696025    -0.094530153919
    C            1.705324805497     0.571835414724     0.556341501941
    H            0.934084024751    -0.650468346689    -1.030203525582
    H            0.194109234132    -0.941748553223     0.504205562728
    C            2.863294473509    -0.351581546098     0.917925538986
    H            2.069724498760     1.374041025791    -0.080444117204
    H            1.328736963462     1.048338266489     1.457929951203
    H            3.285456579424    -0.814063964135     0.031974741818
    H            3.657741566242     0.190117593099     1.418688344627
    H            2.536802682959    -1.147154611154     1.579585564425

  Mulliken Charges: (a.u.)
   Center  Symbol    Alpha    Beta     Spin     Total
       1     H     0.39586  0.39586  0.00000  0.20828
       2     O     4.19935  4.19935  0.00000 -0.39869
       3     C     2.97253  2.97253  0.00000  0.05493
       4     C     3.09597  3.09597  0.00000 -0.19193
       5     H     0.46507  0.46507  0.00000  0.06987
       6     H     0.47427  0.47427  0.00000  0.05146
       7     C     3.08831  3.08831  0.00000 -0.17662
       8     H     0.44917  0.44917  0.00000  0.10166
       9     H     0.45407  0.45407  0.00000  0.09186
      10     C     3.08456  3.08456  0.00000 -0.16912
      11     H     0.44849  0.44849  0.00000  0.10302
      12     H     0.45151  0.45151  0.00000  0.09699
      13     C     3.14972  3.14972  0.00000 -0.29944
      14     H     0.45465  0.45465  0.00000  0.09069
      15     H     0.45694  0.45694  0.00000  0.08613
      16     H     0.45471  0.45471  0.00000  0.09058
      17     H     0.44949  0.44949  0.00000  0.10103
      18     H     0.45535  0.45535  0.00000  0.08931

   Total alpha = 25.00000, Total beta = 25.00000, Total charge =  0.00000

*** Psi4 exiting successfully. Buy a developer a beer!
