                              Psi4 1.0.54 Driver

  ==> Input File <==

--------------------------------------------------------------------------
set {
	reference rhf
	basis cc-pvtz
}

set_num_threads( 4 )
memory 2 gb

molecule MOL {
0 1

H	 -2.498963	 -0.741158	 -0.729149
O	 -2.346257	 -0.289210	 0.080372
C	 -1.183935	 0.486039	 -0.009831
C	 0.062853	 -0.375310	 0.027457
H	 -1.178881	 1.094526	 -0.908634
H	 -1.184406	 1.155156	 0.838676
O	 1.165942	 0.443496	 -0.182787
H	 0.006011	 -1.145898	 -0.743166
H	 0.127477	 -0.879811	 0.989162
C	 2.390332	 -0.212693	 -0.143965
H	 2.454655	 -0.979813	 -0.912511
H	 3.164402	 0.520185	 -0.318296
H	 2.560389	 -0.679502	 0.823346

	symmetry c1
}
set optking {
	frozen_dihedral = ("
		8 4 3 5
	")
}

ee,wfn = optimize('scf', return_wfn=True)
oeprop( wfn, 'DIPOLE', 'QUADRUPOLE', 'MULLIKEN_CHARGES')
f=open( 'psi4out.xyz', 'w' )
f.write( "13  " )
f.write( str(ee) + "\n" )
f.write( MOL.save_string_xyz() )
f.close()
--------------------------------------------------------------------------

    Molecular point group: c1
  Charge       = 0
  Multiplicity = 1
  Basis Set: CC-PVTZ
  Basis Set:
  @DF-RHF Final Energy:  -268.06217106999350
    Total Energy =                       -268.0621710699934965
    Molecular point group: c1
  Basis Set: CC-PVTZ
  Basis Set:
  Basis Set: CC-PVTZ
  Basis Set:
  @DF-RHF Final Energy:  -268.06219161857484
    Total Energy =                       -268.0621916185748432
  Basis Set: CC-PVTZ
  Basis Set:
  Basis Set: CC-PVTZ
  Basis Set:
  @DF-RHF Final Energy:  -268.06219776125738
    Total Energy =                       -268.0621977612575506
  Basis Set: CC-PVTZ
  Basis Set:
  Charge       = 0
  Multiplicity = 1
  Basis Set: CC-PVTZ
  Basis Set:

    Orbital Energies (a.u.)
    -----------------------

    Doubly Occupied:

       1A    -20.556447     2A    -20.553081     3A    -11.269493
       4A    -11.268032     5A    -11.267488     6A     -1.392450
       7A     -1.369581     8A     -1.019764     9A     -0.914334
      10A     -0.843114    11A     -0.711893    12A     -0.677301
      13A     -0.663154    14A     -0.638302    15A     -0.600211
      16A     -0.570708    17A     -0.546216    18A     -0.491739
      19A     -0.483592    20A     -0.441728    21A     -0.424813

  @DF-RHF Final Energy:  -268.06219793136472

   => Energetics <=

    Nuclear Repulsion Energy =            190.4985049581661940
    One-Electron Energy =                -743.7145176544320293
    Two-Electron Energy =                 285.1538147649011989
    DFT Exchange-Correlation Energy =       0.0000000000000000
    Empirical Dispersion Energy =           0.0000000000000000
    PCM Polarization Energy =               0.0000000000000000
    EFP Energy =                            0.0000000000000000
    Total Energy =                       -268.0621979313646079
    Molecular point group: c1
  Basis Set: CC-PVTZ
  Basis Set:

  -Total Gradient:
     Atom            X                  Y                   Z
    ------   -----------------  -----------------  -----------------
       1        0.000008220221     0.000016106888    -0.000001952504
       2       -0.000024356859    -0.000014549746     0.000023994461
       3       -0.000810243784    -0.001247602696    -0.000577777955
       4        0.000741587147     0.001115551464    -0.000803211802
       5        0.000574224919     0.000860891714     0.000594916825
       6       -0.000015504390    -0.000007251771    -0.000004512697
       7        0.000021125731    -0.000002756849    -0.000009562607
       8       -0.000521049658    -0.000723555295     0.000778952238
       9        0.000010397148    -0.000005048890    -0.000003579488
      10        0.000002750558     0.000013407637     0.000000905593
      11       -0.000002116458     0.000002006303     0.000002241618
      12        0.000012719686    -0.000004717997    -0.000000134240
      13        0.000002245734    -0.000002480763    -0.000000279440

  **** Optimization is complete! (in 4 steps) ****
    Final optimized geometry and variables:
    Molecular point group: c1

    Geometry (in Angstrom), charge = 0, multiplicity = 1:

    H           -2.499949185385    -0.744246183366    -0.660335565062
    O           -2.344433545470    -0.285173814863     0.144699464145
    C           -1.183181803865     0.488801692934     0.042502475484
    C            0.065665347878    -0.370813128423     0.067131890351
    H           -1.181477582325     1.102000973334    -0.853150089838
    H           -1.177311192454     1.158415961508     0.890904106098
    O            1.168144666799     0.450288387105    -0.133252690690
    H            0.004248138777    -1.135759181470    -0.708753833309
    H            0.133449646671    -0.888782120629     1.021750291573
    C            2.393962165077    -0.202505991252    -0.081332888702
    H            2.466887075312    -0.972166523450    -0.846537814560
    H            3.167546011009     0.531821693900    -0.251568951669
    H            2.556744822555    -0.665438180991     0.889042415606

  Mulliken Charges: (a.u.)
   Center  Symbol    Alpha    Beta     Spin     Total
       1     H     0.39391  0.39391  0.00000  0.21218
       2     O     4.20226  4.20226  0.00000 -0.40453
       3     C     2.97293  2.97293  0.00000  0.05413
       4     C     2.96422  2.96422  0.00000  0.07157
       5     H     0.46705  0.46705  0.00000  0.06590
       6     H     0.45329  0.45329  0.00000  0.09342
       7     O     4.17532  4.17532  0.00000 -0.35065
       8     H     0.48233  0.48233  0.00000  0.03533
       9     H     0.47023  0.47023  0.00000  0.05954
      10     C     3.03161  3.03161  0.00000 -0.06323
      11     H     0.47119  0.47119  0.00000  0.05763
      12     H     0.44592  0.44592  0.00000  0.10816
      13     H     0.46973  0.46973  0.00000  0.06053

   Total alpha = 21.00000, Total beta = 21.00000, Total charge = -0.00000

*** Psi4 exiting successfully. Buy a developer a beer!
