  ==> Input File <==

--------------------------------------------------------------------------
set {
	reference rhf
	basis cc-pvtz
}

set_num_threads( 4 )
memory 2 gb

molecule MOL {
0 1

H	 1.134428	 -0.024332	 1.359926
C	 1.114652	 -0.021444	 0.261546
C	 0.062554	 0.862911	 -0.350953
O	 1.889045	 -0.676048	 -0.345878
C	 -1.339253	 0.577611	 0.196911
H	 0.099615	 0.748449	 -1.426601
H	 0.338114	 1.887736	 -0.112469
C	 -1.813142	 -0.849710	 -0.061612
H	 -2.032833	 1.276441	 -0.256032
H	 -1.357249	 0.782269	 1.263793
H	 -1.839268	 -1.063526	 -1.124230
H	 -2.810118	 -1.001930	 0.334000
H	 -1.159274	 -1.579980	 0.402282

	symmetry c1
}
set optking {
	frozen_dihedral = ("
		6 3 5 9
	")
}

ee = optimize('scf')
oeprop('DIPOLE', 'QUADRUPOLE', 'MULLIKEN_CHARGES')
f=open( 'psi4out.xyz', 'w' )
f.write( "13  " )
f.write( str(ee) + "\n" )
f.write( MOL.save_string_xyz() )
f.close()
--------------------------------------------------------------------------

    Molecular point group: c1
  Charge       = 0
  Multiplicity = 1
  Basis Set: CC-PVTZ
  Basis Set:
  @DF-RHF Final Energy:  -231.07056003592305
    Total Energy =                       -231.0705600359230232
    Molecular point group: c1
  Basis Set: CC-PVTZ
  Basis Set:
  Basis Set: CC-PVTZ
  Basis Set:
  @DF-RHF Final Energy:  -231.07058163113473
    Total Energy =                       -231.0705816311348997
  Basis Set: CC-PVTZ
  Basis Set:
  Basis Set: CC-PVTZ
  Basis Set:
  @DF-RHF Final Energy:  -231.07026135567202
    Total Energy =                       -231.0702613556719598
  Basis Set: CC-PVTZ
  Basis Set:
  Basis Set: CC-PVTZ
  Basis Set:
  @DF-RHF Final Energy:  -231.07060097111952
    Total Energy =                       -231.0706009711193758
  Basis Set: CC-PVTZ
  Basis Set:
  Basis Set: CC-PVTZ
  Basis Set:
  @DF-RHF Final Energy:  -231.07060442802796
    Total Energy =                       -231.0706044280278206
  Basis Set: CC-PVTZ
  Basis Set:
  Charge       = 0
  Multiplicity = 1
  Basis Set: CC-PVTZ
  Basis Set:

    Orbital Energies (a.u.)
    -----------------------

    Doubly Occupied:

       1A    -20.552382     2A    -11.321989     3A    -11.236971
       4A    -11.234815     5A    -11.219722     6A     -1.407368
       7A     -1.088076     8A     -0.974042     9A     -0.849430
      10A     -0.788757    11A     -0.668473    12A     -0.651429
      13A     -0.629910    14A     -0.597631    15A     -0.559954
      16A     -0.535874    17A     -0.508941    18A     -0.493150
      19A     -0.483976    20A     -0.412956

  @DF-RHF Final Energy:  -231.07060461190414

   => Energetics <=

    Nuclear Repulsion Energy =            174.2212961511962988
    One-Electron Energy =                -658.1521131416609478
    Two-Electron Energy =                 252.8602123785604476
    DFT Exchange-Correlation Energy =       0.0000000000000000
    Empirical Dispersion Energy =           0.0000000000000000
    PCM Polarization Energy =               0.0000000000000000
    EFP Energy =                            0.0000000000000000
    Total Energy =                       -231.0706046119042298
    Molecular point group: c1
  Basis Set: CC-PVTZ
  Basis Set:

  -Total Gradient:
     Atom            X                  Y                   Z
    ------   -----------------  -----------------  -----------------
       1        0.000005931935     0.000004579351    -0.000001555249
       2       -0.000013324816     0.000006436910    -0.000016261344
       3        0.000418130930    -0.001869852064    -0.000040140511
       4       -0.000002940938    -0.000016686760     0.000009634234
       5        0.000166438802     0.001412869991     0.001207456088
       6       -0.000336139152     0.001342114755    -0.000152738311
       7       -0.000019294750     0.000001542226     0.000012109844
       8        0.000005440562    -0.000005833960     0.000001881621
       9       -0.000223212897    -0.000879009850    -0.001017606111
      10       -0.000000316185    -0.000001825569    -0.000003239106
      11       -0.000000960045     0.000000540705     0.000000406604
      12       -0.000000463891     0.000004193492     0.000003172668
      13        0.000000710449     0.000000930772    -0.000003120427

  **** Optimization is complete! (in 6 steps) ****
    Final optimized geometry and variables:
    Molecular point group: c1

    Geometry (in Angstrom), charge = 0, multiplicity = 1:

    H            1.154880404370     0.024578696728     1.423151138836
    C            1.136570123901     0.024023909424     0.324762316745
    C            0.073845168757     0.891596932540    -0.291563236059
    O            1.922600071277    -0.619408624506    -0.279665381886
    C           -1.325079728749     0.610584627172     0.265835391789
    H            0.103443608489     0.775018672708    -1.367179759750
    H            0.344142628176     1.921143416282    -0.065829185226
    C           -1.812263751732    -0.811049489761    -0.003237254401
    H           -2.016366754536     1.312146551329    -0.186401497322
    H           -1.337664706393     0.807426867726     1.333711582273
    H           -1.830325613441    -1.020401543875    -1.066962128964
    H           -2.814840251968    -0.952973143042     0.381863550235
    H           -1.172723824175    -1.551714881728     0.464132057894

  Mulliken Charges: (a.u.)
   Center  Symbol    Alpha    Beta     Spin     Total
       1     H     0.46406  0.46406  0.00000  0.07187
       2     C     2.90585  2.90585  0.00000  0.18830
       3     C     3.08804  3.08804  0.00000 -0.17608
       4     O     4.16481  4.16481  0.00000 -0.32962
       5     C     3.10359  3.10359  0.00000 -0.20719
       6     H     0.44228  0.44228  0.00000  0.11545
       7     H     0.44331  0.44331  0.00000  0.11338
       8     C     3.14439  3.14439  0.00000 -0.28877
       9     H     0.44379  0.44379  0.00000  0.11241
      10     H     0.45029  0.45029  0.00000  0.09942
      11     H     0.45035  0.45035  0.00000  0.09930
      12     H     0.44680  0.44680  0.00000  0.10640
      13     H     0.45244  0.45244  0.00000  0.09511

   Total alpha = 20.00000, Total beta = 20.00000, Total charge = -0.00000
