  ==> Input File <==

--------------------------------------------------------------------------
set {
	reference rhf
	basis cc-pvtz
}

set_num_threads( 4 )
memory 2 gb

molecule MOL {
0 1

H	 -0.939693	 0.000281	 1.681345
O	 -0.046262	 -0.000157	 1.387678
C	 -0.000837	 0.000006	 -0.025491
C	 -1.336497	 -0.491486	 -0.580105
C	 0.307914	 1.409363	 -0.527020
C	 1.121558	 -0.960710	 -0.393518
H	 -1.319701	 -0.536637	 -1.662913
H	 -2.142784	 0.175010	 -0.288979
H	 -1.561035	 -1.479160	 -0.197292
H	 0.384966	 1.433777	 -1.607879
H	 -0.475764	 2.102025	 -0.235233
H	 1.241871	 1.760908	 -0.106775
H	 1.234965	 -1.028733	 -1.469064
H	 0.910998	 -1.949168	 -0.005154
H	 2.058173	 -0.623146	 0.031944

	symmetry c1
}
set optking {
	frozen_dihedral = ("
		4 3 2 1
	")
}

ee = optimize('scf')
oeprop('DIPOLE', 'QUADRUPOLE', 'MULLIKEN_CHARGES')
f=open( 'psi4out.xyz', 'w' )
f.write( "15  " )
f.write( str(ee) + "\n" )
f.write( MOL.save_string_xyz() )
f.close()
--------------------------------------------------------------------------

    Molecular point group: c1
  Charge       = 0
  Multiplicity = 1
  Basis Set: CC-PVTZ
  Basis Set:
  @DF-RHF Final Energy:  -232.24498971130535
    Total Energy =                       -232.2449897113053225
    Molecular point group: c1
  Basis Set: CC-PVTZ
  Basis Set:
  Basis Set: CC-PVTZ
  Basis Set:
  @DF-RHF Final Energy:  -232.24516078941869
    Total Energy =                       -232.2451607894184917
  Basis Set: CC-PVTZ
  Basis Set:
  Basis Set: CC-PVTZ
  Basis Set:
  @DF-RHF Final Energy:  -232.24523483156565
    Total Energy =                       -232.2452348315655399
  Basis Set: CC-PVTZ
  Basis Set:
  Charge       = 0
  Multiplicity = 1
  Basis Set: CC-PVTZ
  Basis Set:

    Orbital Energies (a.u.)
    -----------------------

    Doubly Occupied:

       1A    -20.540704     2A    -11.281060     3A    -11.215436
       4A    -11.204067     5A    -11.203490     6A     -1.363317
       7A     -1.065643     8A     -0.945837     9A     -0.937087
      10A     -0.778598    11A     -0.672078    12A     -0.624624
      13A     -0.622739    14A     -0.576391    15A     -0.557319
      16A     -0.534453    17A     -0.517071    18A     -0.511399
      19A     -0.503435    20A     -0.458638    21A     -0.426834

  @DF-RHF Final Energy:  -232.24523524302853

   => Energetics <=

    Nuclear Repulsion Energy =            200.6012670011639614
    One-Electron Energy =                -712.6125640389184355
    Two-Electron Energy =                 279.7660617947261130
    DFT Exchange-Correlation Energy =       0.0000000000000000
    Empirical Dispersion Energy =           0.0000000000000000
    PCM Polarization Energy =               0.0000000000000000
    EFP Energy =                            0.0000000000000000
    Total Energy =                       -232.2452352430283895
    Molecular point group: c1
  Basis Set: CC-PVTZ
  Basis Set:

  -Total Gradient:
     Atom            X                  Y                   Z
    ------   -----------------  -----------------  -----------------
       1       -0.000005549809    -0.001605668861     0.000020992361
       2       -0.000113505882     0.002312869634    -0.000100294491
       3        0.000443606024    -0.001610254005     0.000089502053
       4       -0.000376293354     0.001008422315    -0.000013684147
       5       -0.000022738823    -0.000030593321    -0.000030517120
       6       -0.000002008599    -0.000032360099     0.000015496126
       7        0.000019258184     0.000012228324     0.000026268574
       8       -0.000022348066    -0.000021800903     0.000033046961
       9        0.000054577978    -0.000031548953    -0.000025290471
      10        0.000032893048     0.000021891523    -0.000045842495
      11        0.000015429861    -0.000042792640     0.000002263946
      12       -0.000008609762     0.000019189262     0.000002164233
      13       -0.000011805222     0.000029104203     0.000017845548
      14       -0.000002664217    -0.000021151157    -0.000007279336
      15       -0.000000241364    -0.000007535322     0.000015328262

  **** Optimization is complete! (in 4 steps) ****
    Final optimized geometry and variables:
    Molecular point group: c1

    Geometry (in Angstrom), charge = 0, multiplicity = 1:

    H           -0.928095442328     0.047731274135     1.695496257311
    O           -0.040394465067     0.030972793684     1.390888066130
    C            0.002808622419    -0.000197983325    -0.025063943910
    C           -1.334173262584    -0.487603151414    -0.576245095622
    C            0.305831879880     1.409907830949    -0.527782033013
    C            1.127233004836    -0.957420168738    -0.400728052216
    H           -1.316620251349    -0.529984440820    -1.658237577997
    H           -2.137522422921     0.182576123467    -0.285145199925
    H           -1.562530540326    -1.479513924058    -0.202680273442
    H            0.394990071952     1.433643388957    -1.608303900789
    H           -0.482567746743     2.094501958163    -0.236072592302
    H            1.233736918427     1.765740532098    -0.098092632014
    H            1.263755843102    -0.996357188563    -1.475378426625
    H            0.908812821772    -1.955783646755    -0.042392081517
    H            2.056202833610    -0.633643321179     0.051697710806

  Mulliken Charges: (a.u.)
   Center  Symbol    Alpha    Beta     Spin     Total
       1     H     0.39276  0.39276  0.00000  0.21448
       2     O     4.21440  4.21440  0.00000 -0.42881
       3     C     2.87971  2.87971  0.00000  0.24058
       4     C     3.16039  3.16039  0.00000 -0.32079
       5     C     3.14207  3.14207  0.00000 -0.28414
       6     C     3.14010  3.14010  0.00000 -0.28020
       7     H     0.45119  0.45119  0.00000  0.09763
       8     H     0.45281  0.45281  0.00000  0.09438
       9     H     0.44609  0.44609  0.00000  0.10782
      10     H     0.45882  0.45882  0.00000  0.08236
      11     H     0.45476  0.45476  0.00000  0.09047
      12     H     0.44824  0.44824  0.00000  0.10352
      13     H     0.45940  0.45940  0.00000  0.08121
      14     H     0.45196  0.45196  0.00000  0.09607
      15     H     0.44729  0.44729  0.00000  0.10542

   Total alpha = 21.00000, Total beta = 21.00000, Total charge = -0.00000
