  ==> Input File <==

--------------------------------------------------------------------------
set {
	reference rhf
	basis 6-31G*
}

set_num_threads( 4 )
memory 2 gb

molecule MOL {
0 1

O	 1.350872	 1.081631	 -0.663075
C	 1.122059	 0.121804	 -0.000188
C	 -0.170150	 -0.657997	 -0.000612
O	 1.998333	 -0.400571	 0.848484
C	 -1.412532	 0.227344	 -0.000452
H	 -0.153702	 -1.313099	 -0.867402
H	 -0.153924	 -1.313811	 0.865644
C	 -2.706999	 -0.587347	 -0.000541
H	 -1.388000	 0.879466	 -0.868000
H	 -1.387972	 0.879138	 0.867341
C	 -3.956778	 0.291888	 0.000910
H	 -2.726114	 -1.239230	 -0.871609
H	 -2.725217	 -1.240844	 0.869333
H	 -3.985213	 0.933254	 -0.875158
H	 -4.860123	 -0.309979	 0.000519
H	 -3.984618	 0.931166	 0.878514
C	 3.258012	 0.238798	 0.946242
H	 3.765194	 0.227048	 -0.007758
H	 3.819271	 -0.324847	 1.675105
H	 3.140538	 1.261844	 1.273478

	symmetry c1
}
set optking {
	frozen_dihedral = ("
		1 2 3 6
	")
}

ee = optimize('scf')
oeprop('DIPOLE', 'QUADRUPOLE', 'MULLIKEN_CHARGES')
f=open( 'psi4out.xyz', 'w' )
f.write( "20  " )
f.write( str(ee) + "\n" )
f.write( MOL.save_string_xyz() )
f.close()
--------------------------------------------------------------------------

    Molecular point group: c1
  Charge       = 0
  Multiplicity = 1
  Basis Set: 6-31G*
  Basis Set:
  @DF-RHF Final Energy:  -383.94012837259220
    Total Energy =                       -383.9401283725924259
    Molecular point group: c1
  Basis Set: 6-31G*
  Basis Set:
  Basis Set: 6-31G*
  Basis Set:
  @DF-RHF Final Energy:  -383.94014858118106
    Total Energy =                       -383.9401485811813473
  Basis Set: 6-31G*
  Basis Set:
  Basis Set: 6-31G*
  Basis Set:
  @DF-RHF Final Energy:  -383.93991462925408
    Total Energy =                       -383.9399146292540763
  Basis Set: 6-31G*
  Basis Set:
  Basis Set: 6-31G*
  Basis Set:
  @DF-RHF Final Energy:  -383.94063756520183
    Total Energy =                       -383.9406375652022234
  Basis Set: 6-31G*
  Basis Set:
  Basis Set: 6-31G*
  Basis Set:
  @DF-RHF Final Energy:  -383.94064095506360
    Total Energy =                       -383.9406409550638273
  Basis Set: 6-31G*
  Basis Set:
  Charge       = 0
  Multiplicity = 1
  Basis Set: 6-31G*
  Basis Set:

    Orbital Energies (a.u.)
    -----------------------

    Doubly Occupied:

       1A    -20.605693     2A    -20.543343     3A    -11.372168
       4A    -11.280972     5A    -11.234774     6A    -11.222670
       7A    -11.221197     8A    -11.211597     9A     -1.469918
      10A     -1.362064    11A     -1.089366    12A     -1.024088
      13A     -0.969619    14A     -0.886730    15A     -0.804629
      16A     -0.770136    17A     -0.695970    18A     -0.682189
      19A     -0.672332    20A     -0.646710    21A     -0.597701
      22A     -0.592606    23A     -0.576237    24A     -0.547411
      25A     -0.534149    26A     -0.523105    27A     -0.502248
      28A     -0.478184    29A     -0.475524    30A     -0.471235
      31A     -0.455296    32A     -0.434451

  @DF-RHF Final Energy:  -383.94064188360295

   => Energetics <=

    Nuclear Repulsion Energy =            381.2589886002851358
    One-Electron Energy =               -1278.4906369148256999
    Two-Electron Energy =                 513.2910064309376139
    DFT Exchange-Correlation Energy =       0.0000000000000000
    Empirical Dispersion Energy =           0.0000000000000000
    PCM Polarization Energy =               0.0000000000000000
    EFP Energy =                            0.0000000000000000
    Total Energy =                       -383.9406418836028934
    Molecular point group: c1
  Basis Set: 6-31G*
  Basis Set:

  -Total Gradient:
     Atom            X                  Y                   Z
    ------   -----------------  -----------------  -----------------
       1        0.000307308828    -0.000620925497    -0.000682241557
       2       -0.000577978600     0.000998534211     0.000844400291
       3        0.000681876108    -0.001033241350     0.000256686946
       4       -0.000018833829    -0.000031337305     0.000032710315
       5        0.000001830052     0.000033118362     0.000044916884
       6       -0.000394840066     0.000663542379    -0.000505693819
       7        0.000014489810     0.000021751163     0.000002210238
       8        0.000001721834    -0.000013895624     0.000001958713
       9       -0.000011159750    -0.000007236191     0.000015237310
      10        0.000017214887    -0.000003668390     0.000006079120
      11        0.000007947085     0.000002486796    -0.000025443294
      12        0.000004558139    -0.000019144988     0.000008854093
      13       -0.000008782037     0.000013616294     0.000011445308
      14       -0.000004917058     0.000009428557    -0.000000644940
      15        0.000000913621    -0.000000544904    -0.000008148571
      16        0.000002982211    -0.000007952623    -0.000001405315
      17       -0.000042213563    -0.000018380983    -0.000006867146
      18        0.000007461697     0.000005035181     0.000000115441
      19        0.000008316479     0.000004546179     0.000003074087
      20        0.000002104145     0.000004268732     0.000002755898

  **** Optimization is complete! (in 6 steps) ****
    Final optimized geometry and variables:
    Molecular point group: c1

    Geometry (in Angstrom), charge = 0, multiplicity = 1:

    O            1.323607113944     1.045154062751    -0.755174853381
    C            1.140319973678     0.073720338412    -0.093460234482
    C           -0.142794416020    -0.722578716826    -0.075426396042
    O            2.067992781938    -0.452801115131     0.693146762605
    C           -1.385419890438     0.169364730575    -0.117321489297
    H           -0.121234376751    -1.358247570104    -0.957971332572
    H           -0.148181420204    -1.373448197277     0.789788981334
    C           -2.681535729935    -0.639570644743    -0.181385929652
    H           -1.316347764802     0.829281578887    -0.974818371436
    H           -1.399964189663     0.807585920725     0.763284575887
    C           -3.926704347227     0.245123923087    -0.224850157142
    H           -2.663451375216    -1.280179282426    -1.060682886267
    H           -2.739889114958    -1.303060377297     0.678867046210
    H           -3.912841154853     0.897866665458    -1.092745578963
    H           -4.831138607279    -0.353011343633    -0.274124167524
    H           -3.992542876821     0.872756156847     0.659222529820
    C            3.330484955664     0.188923860199     0.714739649717
    H            3.773554700630     0.188551165035    -0.270709307799
    H            3.939208520420    -0.380874471276     1.399337858988
    H            3.231936155026     1.208082838070     1.059513444164

  Mulliken Charges: (a.u.)
   Center  Symbol    Alpha    Beta     Spin     Total
       1     O     4.28691  4.28691  0.00000 -0.57382
       2     C     2.60466  2.60466  0.00000  0.79067
       3     C     3.20819  3.20819  0.00000 -0.41638
       4     O     4.30543  4.30543  0.00000 -0.61086
       5     C     3.15740  3.15740  0.00000 -0.31480
       6     H     0.40064  0.40064  0.00000  0.19871
       7     H     0.40035  0.40035  0.00000  0.19929
       8     C     3.15365  3.15365  0.00000 -0.30731
       9     H     0.40379  0.40379  0.00000  0.19242
      10     H     0.41781  0.41781  0.00000  0.16438
      11     C     3.23968  3.23968  0.00000 -0.47937
      12     H     0.42187  0.42187  0.00000  0.15626
      13     H     0.42238  0.42238  0.00000  0.15525
      14     H     0.41924  0.41924  0.00000  0.16152
      15     H     0.41837  0.41837  0.00000  0.16326
      16     H     0.42057  0.42057  0.00000  0.15885
      17     C     3.09347  3.09347  0.00000 -0.18695
      18     H     0.40882  0.40882  0.00000  0.18236
      19     H     0.40834  0.40834  0.00000  0.18333
      20     H     0.40841  0.40841  0.00000  0.18318

   Total alpha = 32.00000, Total beta = 32.00000, Total charge = -0.00000
