  ==> Input File <==

--------------------------------------------------------------------------
set {
	reference rhf
	basis 6-31G*
}

set_num_threads( 4 )
memory 2 gb

molecule MOL {
0 1

H	 -1.910849	 0.935312	 0.563793
N	 -1.852125	 0.165761	 -0.074816
C	 -0.563778	 -0.502042	 0.037919
H	 -1.972672	 0.543498	 -0.995435
C	 0.575259	 0.508231	 -0.048326
H	 -0.482092	 -1.204004	 -0.786564
H	 -0.460411	 -1.085169	 0.956626
C	 1.954651	 -0.143624	 0.035137
H	 0.475158	 1.060484	 -0.977307
H	 0.469181	 1.234488	 0.755973
H	 2.103292	 -0.853109	 -0.774172
H	 2.742821	 0.599562	 -0.030094
H	 2.083613	 -0.679371	 0.971560

	symmetry c1
}
set optking {
	frozen_dihedral = ("
		1 2 3 6
	")
}

ee = optimize('scf')
oeprop('DIPOLE', 'QUADRUPOLE', 'MULLIKEN_CHARGES')
f=open( 'psi4out.xyz', 'w' )
f.write( "13  " )
f.write( str(ee) + "\n" )
f.write( MOL.save_string_xyz() )
f.close()
--------------------------------------------------------------------------

    Molecular point group: c1
  Charge       = 0
  Multiplicity = 1
  Basis Set: 6-31G*
  Basis Set:
  @DF-RHF Final Energy:  -173.28002085273371
    Total Energy =                       -173.2800208527337702
    Molecular point group: c1
  Basis Set: 6-31G*
  Basis Set:
  Basis Set: 6-31G*
  Basis Set:
  @DF-RHF Final Energy:  -173.28180450354367
    Total Energy =                       -173.2818045035436683
  Basis Set: 6-31G*
  Basis Set:
  Basis Set: 6-31G*
  Basis Set:
  @DF-RHF Final Energy:  -173.28205934847833
    Total Energy =                       -173.2820593484783558
  Basis Set: 6-31G*
  Basis Set:
  Basis Set: 6-31G*
  Basis Set:
  @DF-RHF Final Energy:  -173.28206202283269
    Total Energy =                       -173.2820620228326902
  Basis Set: 6-31G*
  Basis Set:
  Charge       = 0
  Multiplicity = 1
  Basis Set: 6-31G*
  Basis Set:

    Orbital Energies (a.u.)
    -----------------------

    Doubly Occupied:

       1A    -15.533506     2A    -11.240390     3A    -11.216972
       4A    -11.212707     5A     -1.178022     6A     -1.037555
       7A     -0.899715     8A     -0.807742     9A     -0.676749
      10A     -0.607994    11A     -0.605746    12A     -0.561060
      13A     -0.525411    14A     -0.515429    15A     -0.487104
      16A     -0.472050    17A     -0.378325

  @DF-RHF Final Energy:  -173.28206240886374

   => Energetics <=

    Nuclear Repulsion Energy =            131.6008408472926021
    One-Electron Energy =                -493.8528563239965479
    Two-Electron Energy =                 188.9699530678401516
    DFT Exchange-Correlation Energy =       0.0000000000000000
    Empirical Dispersion Energy =           0.0000000000000000
    PCM Polarization Energy =               0.0000000000000000
    EFP Energy =                            0.0000000000000000
    Total Energy =                       -173.2820624088637942
    Molecular point group: c1
  Basis Set: 6-31G*
  Basis Set:

  -Total Gradient:
     Atom            X                  Y                   Z
    ------   -----------------  -----------------  -----------------
       1        0.000603503953     0.001163163096    -0.001364784166
       2       -0.000548745656    -0.001197021425     0.001442204232
       3       -0.000645397950    -0.001199693240     0.000929155173
       4        0.000015813646    -0.000006367744     0.000000894920
       5       -0.000096206407    -0.000027406744     0.000003671278
       6        0.000593757826     0.001248082077    -0.001025676826
       7       -0.000001903639    -0.000004292710     0.000018018256
       8        0.000026174789     0.000017171558    -0.000024720797
       9        0.000011143860     0.000011070946     0.000023467601
      10        0.000002846292    -0.000002164817    -0.000002643612
      11       -0.000005669382    -0.000000062140     0.000019103121
      12        0.000047542661    -0.000014227532    -0.000007566894
      13       -0.000002859994     0.000011748675    -0.000011122286

  **** Optimization is complete! (in 5 steps) ****
    Final optimized geometry and variables:
    Molecular point group: c1

    Geometry (in Angstrom), charge = 0, multiplicity = 1:

    H           -1.980423359042     0.885222660672     0.583982658705
    N           -1.901982411664     0.104734480688    -0.040843539877
    C           -0.573307072088    -0.484138380889     0.040455348974
    H           -2.065291662028     0.465891263547    -0.961528928197
    C            0.591647241337     0.506709501277    -0.033528613055
    H           -0.481845980509    -1.199355295270    -0.771583077589
    H           -0.508981753739    -1.050540938084     0.964967707848
    C            1.957275877931    -0.174311147447     0.053043912249
    H            0.521699023670     1.070520646818    -0.962095306309
    H            0.495013506946     1.231306725142     0.773487427450
    H            2.095308048602    -0.881450457494    -0.760074549544
    H            2.763427904357     0.550328724905     0.000294923533
    H            2.064582285079    -0.720398383430     0.985983359571

  Mulliken Charges: (a.u.)
   Center  Symbol    Alpha    Beta     Spin     Total
       1     H     0.33565  0.33565  0.00000  0.32870
       2     N     3.91684  3.91684  0.00000 -0.83369
       3     C     3.06017  3.06017  0.00000 -0.12034
       4     H     0.33537  0.33537  0.00000  0.32926
       5     C     3.15875  3.15875  0.00000 -0.31750
       6     H     0.42049  0.42049  0.00000  0.15902
       7     H     0.41882  0.41882  0.00000  0.16236
       8     C     3.24359  3.24359  0.00000 -0.48718
       9     H     0.42592  0.42592  0.00000  0.14816
      10     H     0.42599  0.42599  0.00000  0.14801
      11     H     0.42069  0.42069  0.00000  0.15862
      12     H     0.41759  0.41759  0.00000  0.16482
      13     H     0.42012  0.42012  0.00000  0.15976

   Total alpha = 17.00000, Total beta = 17.00000, Total charge = -0.00000
