  ==> Input File <==

--------------------------------------------------------------------------
set {
	reference rhf
	basis 6-31G*
}

set_num_threads( 4 )
memory 2 gb

molecule MOL {
0 1

H	 -2.646374	 -0.642757	 1.268656
C	 -2.083525	 -0.384536	 0.393091
O	 -0.807605	 -0.127164	 0.768327
F	 -2.118945	 -1.383102	 -0.486752
F	 -2.621877	 0.670592	 -0.209486
C	 0.084052	 0.273579	 -0.209957
C	 1.353033	 -0.546803	 -0.018071
Cl	 0.433844	 2.004619	 -0.074457
H	 -0.288836	 0.092657	 -1.202930
F	 1.845811	 -0.355870	 1.187273
F	 2.252402	 -0.148749	 -0.895640
F	 1.143913	 -1.829190	 -0.190481

	symmetry c1
}
set optking {
	frozen_dihedral = ("
		10 7 6 9
	")
}

ee = optimize('scf')
oeprop('DIPOLE', 'QUADRUPOLE', 'MULLIKEN_CHARGES')
f=open( 'psi4out.xyz', 'w' )
f.write( "12  " )
f.write( str(ee) + "\n" )
f.write( MOL.save_string_xyz() )
f.close()
--------------------------------------------------------------------------

    Molecular point group: c1
  Charge       = 0
  Multiplicity = 1
  Basis Set: 6-31G*
  Basis Set:
  @DF-RHF Final Energy: -1146.31348161097048
    Total Energy =                      -1146.3134816109707117
    Molecular point group: c1
  Basis Set: 6-31G*
  Basis Set:
  Basis Set: 6-31G*
  Basis Set:
  @DF-RHF Final Energy: -1146.31415593068937
    Total Energy =                      -1146.3141559306877753
  Basis Set: 6-31G*
  Basis Set:
  Basis Set: 6-31G*
  Basis Set:
  @DF-RHF Final Energy: -1146.31437735464760
    Total Energy =                      -1146.3143773546480588
  Basis Set: 6-31G*
  Basis Set:
  Basis Set: 6-31G*
  Basis Set:
  @DF-RHF Final Energy: -1146.31438638006011
    Total Energy =                      -1146.3143863800607960
  Basis Set: 6-31G*
  Basis Set:
  Charge       = 0
  Multiplicity = 1
  Basis Set: 6-31G*
  Basis Set:

    Orbital Energies (a.u.)
    -----------------------

    Doubly Occupied:

       1A   -104.843768     2A    -26.359919     3A    -26.358302
       4A    -26.357553     5A    -26.346514     6A    -26.346025
       7A    -20.649661     8A    -11.527349     9A    -11.489583
      10A    -11.400674    11A    -10.578498    12A     -8.047860
      13A     -8.044316    14A     -8.044224    15A     -1.760935
      16A     -1.717798    17A     -1.657541    18A     -1.655886
      19A     -1.638451    20A     -1.486048    21A     -1.179949
      22A     -1.051850    23A     -0.986551    24A     -0.919522
      25A     -0.859831    26A     -0.852224    27A     -0.845193
      28A     -0.823823    29A     -0.811061    30A     -0.789681
      31A     -0.727296    32A     -0.726032    33A     -0.706028
      34A     -0.701581    35A     -0.678168    36A     -0.674900
      37A     -0.658136    38A     -0.657242    39A     -0.645615
      40A     -0.634003    41A     -0.597288    42A     -0.580908
      43A     -0.524157    44A     -0.476768    45A     -0.468852

  @DF-RHF Final Energy: -1146.31438732966649

   => Energetics <=

    Nuclear Repulsion Energy =            738.1653988062714689
    One-Electron Energy =               -3059.1844420627530781
    Two-Electron Energy =                1174.7046559268144392
    DFT Exchange-Correlation Energy =       0.0000000000000000
    Empirical Dispersion Energy =           0.0000000000000000
    PCM Polarization Energy =               0.0000000000000000
    EFP Energy =                            0.0000000000000000
    Total Energy =                      -1146.3143873296669426
    Molecular point group: c1
  Basis Set: 6-31G*
  Basis Set:

  -Total Gradient:
     Atom            X                  Y                   Z
    ------   -----------------  -----------------  -----------------
       1        0.000003717144     0.000006320860     0.000006684496
       2        0.000017884534     0.000020895542     0.000004793993
       3       -0.000015332455     0.000018934313     0.000029098817
       4        0.000006728568    -0.000035818855    -0.000022618140
       5        0.000002196168     0.000013880350     0.000009617956
       6        0.000151236196     0.000176370662    -0.000118484966
       7        0.000178772104     0.000131784062     0.000083304263
       8       -0.000031658895    -0.000106340392     0.000000063919
       9       -0.000076631680    -0.000085070608     0.000029929558
      10       -0.000107106589    -0.000076049910     0.000095442972
      11       -0.000166019013    -0.000049079135    -0.000035770790
      12        0.000036213914    -0.000015826930    -0.000082062081

  **** Optimization is complete! (in 5 steps) ****
    Final optimized geometry and variables:
    Molecular point group: c1

    Geometry (in Angstrom), charge = 0, multiplicity = 1:

    H           -2.644821415562    -0.668022479732     1.258240211297
    C           -2.081439019724    -0.402097345677     0.385387184928
    O           -0.808658155641    -0.136351836092     0.765116583481
    F           -2.106398514797    -1.397868481687    -0.498096764476
    F           -2.626208511975     0.650991279749    -0.214993958650
    C            0.082733782716     0.274724960930    -0.209296017039
    C            1.357742590450    -0.535818121501    -0.015208344916
    CL           0.417098685282     2.008012273527    -0.067829418152
    H           -0.286219004835     0.092717717063    -1.203605730436
    F            1.873415150289    -0.368566248259     1.178298026701
    F            2.256433496831    -0.202477025205    -0.916649966840
    F            1.076192027455    -1.813861500312    -0.172384151509

  Mulliken Charges: (a.u.)
   Center  Symbol    Alpha    Beta     Spin     Total
       1     H     0.40118  0.40118  0.00000  0.19764
       2     C     2.56554  2.56554  0.00000  0.86893
       3     O     4.29832  4.29832  0.00000 -0.59664
       4     F     4.68631  4.68631  0.00000 -0.37262
       5     F     4.68429  4.68429  0.00000 -0.36857
       6     C     3.04687  3.04687  0.00000 -0.09373
       7     C     2.43346  2.43346  0.00000  1.13308
       8    CL     8.49916  8.49916  0.00000  0.00168
       9     H     0.36669  0.36669  0.00000  0.26662
      10     F     4.66846  4.66846  0.00000 -0.33693
      11     F     4.67380  4.67380  0.00000 -0.34760
      12     F     4.67592  4.67592  0.00000 -0.35184

   Total alpha = 45.00000, Total beta = 45.00000, Total charge = -0.00000
