  ==> Input File <==

--------------------------------------------------------------------------
set {
	reference rhf
	basis 6-31G*
}

set_num_threads( 1 )
memory 2 gb

molecule MOL {
0 1

H	 2.090573	 1.245955	 0.983670
O	 1.213530	 0.878465	 1.034009
C	 1.050492	 0.053836	 0.000068
C	 -0.318135	 -0.576402	 0.000164
O	 1.907238	 -0.132515	 -0.801341
C	 -1.454360	 0.441875	 -0.000474
H	 -0.374042	 -1.230163	 -0.866135
H	 -0.374274	 -1.229227	 0.867154
C	 -2.826123	 -0.230780	 0.000056
H	 -1.357605	 1.085198	 -0.868380
H	 -1.357504	 1.086451	 0.866496
H	 -2.959731	 -0.858053	 -0.876869
H	 -3.619374	 0.509403	 -0.000080
H	 -2.959371	 -0.857318	 0.877556

	symmetry c1
}
set optking {
	frozen_dihedral = ("
		7 4 6 10,
		1 2 3 5
	")
}

ee = energy('scf')
oeprop('DIPOLE', 'QUADRUPOLE', 'MULLIKEN_CHARGES')
f=open( 'psi4out.xyz', 'w' )
f.write( "14  " )
f.write( str(ee) + "\n" )
f.write( MOL.save_string_xyz() )
f.close()
--------------------------------------------------------------------------

    Molecular point group: c1

    Geometry (in Angstrom), charge = 0, multiplicity = 1:

       Center              X                  Y                   Z               Mass
    ------------   -----------------  -----------------  -----------------  -----------------
           H          2.132114202270     1.155735321532     0.930174826135     1.007825032070
           O          1.255071202270     0.788245321532     0.980513826135    15.994914619560
           C          1.092033202270    -0.036383678468    -0.053427173865    12.000000000000
           C         -0.276593797730    -0.666621678468    -0.053331173865    12.000000000000
           O          1.948779202270    -0.222734678468    -0.854836173865    15.994914619560
           C         -1.412818797730     0.351655321532    -0.053969173865    12.000000000000
           H         -0.332500797730    -1.320382678468    -0.919630173865     1.007825032070
           H         -0.332732797730    -1.319446678468     0.813658826135     1.007825032070
           C         -2.784581797730    -0.320999678468    -0.053439173865    12.000000000000
           H         -1.316063797730     0.994978321532    -0.921875173865     1.007825032070
           H         -1.315962797730     0.996231321532     0.813000826135     1.007825032070
           H         -2.918189797730    -0.948272678468    -0.930364173865     1.007825032070
           H         -3.577832797730     0.419183321532    -0.053575173865     1.007825032070
           H         -2.917829797730    -0.947537678468     0.824060826135     1.007825032070

  Charge       = 0
  Multiplicity = 1
  Basis Set: 6-31G*
  Basis Set:

    Orbital Energies (a.u.)
    -----------------------

    Doubly Occupied:

       1A    -20.613576     2A    -20.550812     3A    -11.380705
       4A    -11.239822     5A    -11.233234     6A    -11.220754
       7A     -1.474912     8A     -1.365255     9A     -1.087215
      10A     -0.979234    11A     -0.849264    12A     -0.814412
      13A     -0.701336    14A     -0.684658    15A     -0.648738
      16A     -0.627960    17A     -0.593053    18A     -0.566336
      19A     -0.549470    20A     -0.521128    21A     -0.501133
      22A     -0.485912    23A     -0.474489    24A     -0.437759

  @DF-RHF Final Energy:  -305.87909515059800

   => Energetics <=

    Nuclear Repulsion Energy =            240.6854402198806326
    One-Electron Energy =                -893.9267188323915434
    Two-Electron Energy =                 347.3621834619127640
    DFT Exchange-Correlation Energy =       0.0000000000000000
    Empirical Dispersion Energy =           0.0000000000000000
    PCM Polarization Energy =               0.0000000000000000
    EFP Energy =                            0.0000000000000000
    Total Energy =                       -305.8790951505981184

  Mulliken Charges: (a.u.)
   Center  Symbol    Alpha    Beta     Spin     Total
       1     H     0.26753  0.26753  0.00000  0.46495
       2     O     4.34682  4.34682  0.00000 -0.69365
       3     C     2.63058  2.63058  0.00000  0.73884
       4     C     3.20130  3.20130  0.00000 -0.40260
       5     O     4.27885  4.27885  0.00000 -0.55770
       6     C     3.16322  3.16322  0.00000 -0.32645
       7     H     0.39784  0.39784  0.00000  0.20431
       8     H     0.40204  0.40204  0.00000  0.19592
       9     C     3.24200  3.24200  0.00000 -0.48400
      10     H     0.41331  0.41331  0.00000  0.17338
      11     H     0.40479  0.40479  0.00000  0.19041
      12     H     0.41832  0.41832  0.00000  0.16336
      13     H     0.41455  0.41455  0.00000  0.17090
      14     H     0.41884  0.41884  0.00000  0.16231

   Total alpha = 24.00000, Total beta = 24.00000, Total charge = -0.00000
