  ==> Input File <==

--------------------------------------------------------------------------
set {
	reference rhf
	basis 6-31G*
}

set_num_threads( 4 )
memory 2 gb

molecule MOL {
0 1

H	 -2.647191	 0.836686	 0.933187
C	 -2.090743	 1.743668	 1.160982
O	 -0.719773	 1.545386	 1.032670
H	 -2.375827	 2.514889	 0.458781
H	 -2.356366	 2.068054	 2.166291
C	 -0.201424	 0.575658	 1.887182
C	 1.264029	 0.372532	 1.581579
H	 -0.310788	 0.889635	 2.926005
H	 -0.727459	 -0.369001	 1.765069
O	 1.392611	 -0.295398	 0.366430
H	 1.760328	 1.340217	 1.545786
H	 1.719999	 -0.209821	 2.383233
C	 2.706965	 -0.449871	 -0.062409
H	 2.756559	 -0.644779	 -1.131878
H	 3.305899	 0.433456	 0.155466
H	 3.125548	 -1.294566	 0.467107

	symmetry c1
}
set optking {
	frozen_dihedral = ("
		7 10 13 14
	")
}

ee = optimize('scf')
oeprop('DIPOLE', 'QUADRUPOLE', 'MULLIKEN_CHARGES')
f=open( 'psi4out.xyz', 'w' )
f.write( "16  " )
f.write( str(ee) + "\n" )
f.write( MOL.save_string_xyz() )
f.close()
--------------------------------------------------------------------------

    Molecular point group: c1
  Charge       = 0
  Multiplicity = 1
  Basis Set: 6-31G*
  Basis Set:
  @DF-RHF Final Energy:  -306.97552843702425
    Total Energy =                       -306.9755284370242521
    Molecular point group: c1
  Basis Set: 6-31G*
  Basis Set:
  Basis Set: 6-31G*
  Basis Set:
  @DF-RHF Final Energy:  -306.97648792163665
    Total Energy =                       -306.9764879216363624
  Basis Set: 6-31G*
  Basis Set:
  Basis Set: 6-31G*
  Basis Set:
  @DF-RHF Final Energy:  -306.97673041972490
    Total Energy =                       -306.9767304197249018
  Basis Set: 6-31G*
  Basis Set:
  Charge       = 0
  Multiplicity = 1
  Basis Set: 6-31G*
  Basis Set:

    Orbital Energies (a.u.)
    -----------------------

    Doubly Occupied:

       1A    -20.553458     2A    -20.552640     3A    -11.269084
       4A    -11.268355     5A    -11.263472     6A    -11.263319
       7A     -1.387654     8A     -1.369901     9A     -1.030793
      10A     -0.936132    11A     -0.891915    12A     -0.823928
      13A     -0.683603    14A     -0.680167    15A     -0.656551
      16A     -0.635972    17A     -0.629009    18A     -0.596898
      19A     -0.552113    20A     -0.535333    21A     -0.508567
      22A     -0.476872    23A     -0.462331    24A     -0.419360
      25A     -0.409819

  @DF-RHF Final Energy:  -306.97673136343474

   => Energetics <=

    Nuclear Repulsion Energy =            258.7778985773188651
    One-Electron Energy =                -931.7947606449197337
    Two-Electron Energy =                 366.0401307041662449
    DFT Exchange-Correlation Energy =       0.0000000000000000
    Empirical Dispersion Energy =           0.0000000000000000
    PCM Polarization Energy =               0.0000000000000000
    EFP Energy =                            0.0000000000000000
    Total Energy =                       -306.9767313634346237
    Molecular point group: c1
  Basis Set: 6-31G*
  Basis Set:

  -Total Gradient:
     Atom            X                  Y                   Z
    ------   -----------------  -----------------  -----------------
       1        0.000000975614    -0.000000560863    -0.000001143012
       2        0.000004794526    -0.000003687333     0.000009598993
       3        0.000007888159     0.000019571318     0.000009293205
       4        0.000005666814    -0.000001739092     0.000000527368
       5       -0.000005998804     0.000002385075     0.000000912230
       6       -0.000015580976    -0.000091178000    -0.000097402878
       7        0.000022617303     0.002004608876    -0.001018448935
       8        0.000044428678    -0.000003661035    -0.000019850879
       9       -0.000028961779    -0.000015703279     0.000013623185
      10        0.000136491596    -0.002139461281     0.001306925009
      11        0.000026108192     0.000018069101     0.000011971238
      12       -0.000018135600    -0.000025390162    -0.000049644276
      13       -0.000193666337    -0.002384960911     0.000225614344
      14        0.000076926367     0.002601599103    -0.000426286621
      15       -0.000028672007     0.000028817130     0.000019446662
      16       -0.000034881745    -0.000008708645     0.000014864369

  **** Optimization is complete! (in 4 steps) ****
    Final optimized geometry and variables:
    Molecular point group: c1

    Geometry (in Angstrom), charge = 0, multiplicity = 1:

    H           -3.035712963895     0.258760994112    -0.072313252425
    C           -2.478968461870     1.164332585276     0.160344537269
    O           -1.107479313519     0.963300659179     0.041920278854
    H           -2.757403216020     1.936851152117    -0.543086506833
    H           -2.750911352224     1.488129619730     1.164098628388
    C           -0.597411522883    -0.008193953227     0.899495104076
    C            0.869946623380    -0.214183754857     0.604852383093
    H           -0.713403665899     0.305475628520     1.937685106458
    H           -1.125056481236    -0.951351270085     0.773288651453
    O            1.004594265487    -0.876012646890    -0.613074188266
    H            1.369195930241     0.751660107710     0.575301266903
    H            1.316416829922    -0.799598486314     1.409820650717
    C            2.317740600966    -1.037971710396    -1.047155729897
    H            2.292029283556    -1.222653528519    -2.112523216486
    H            2.906582072258    -0.139112124193    -0.876642777152
    H            2.805807704327    -1.870230207735    -0.543900397550

  Mulliken Charges: (a.u.)
   Center  Symbol    Alpha    Beta     Spin     Total
       1     H     0.42808  0.42808  0.00000  0.14384
       2     C     3.07948  3.07948  0.00000 -0.15896
       3     O     4.30089  4.30089  0.00000 -0.60178
       4     H     0.41132  0.41132  0.00000  0.17735
       5     H     0.43191  0.43191  0.00000  0.13619
       6     C     2.99346  2.99346  0.00000  0.01308
       7     C     2.99318  2.99318  0.00000  0.01364
       8     H     0.43233  0.43233  0.00000  0.13534
       9     H     0.42274  0.42274  0.00000  0.15452
      10     O     4.30214  4.30214  0.00000 -0.60429
      11     H     0.42219  0.42219  0.00000  0.15562
      12     H     0.43272  0.43272  0.00000  0.13455
      13     C     3.07817  3.07817  0.00000 -0.15635
      14     H     0.41187  0.41187  0.00000  0.17627
      15     H     0.43038  0.43038  0.00000  0.13925
      16     H     0.42914  0.42914  0.00000  0.14172

   Total alpha = 25.00000, Total beta = 25.00000, Total charge =  0.00000
