                              Psi4 1.0.54 Driver

  ==> Input File <==

--------------------------------------------------------------------------
set {
	reference rhf
	basis cc-pvtz
}

set_num_threads( 4 )
memory 2 gb

molecule MOL {
0 1

H	 -1.903817	 -0.318042	 -0.974352
O	 -1.432053	 -0.565244	 -0.200812
C	 -0.727158	 0.534527	 0.310686
C	 0.680222	 0.664433	 -0.252229
H	 -1.306802	 1.408001	 0.044211
H	 -0.690821	 0.490158	 1.397609
C	 1.605391	 -0.489360	 0.123098
H	 0.615089	 0.745647	 -1.332226
H	 1.101414	 1.597893	 0.110950
H	 1.247627	 -1.432485	 -0.275204
H	 2.601435	 -0.332816	 -0.273062
H	 1.691776	 -0.589902	 1.200774

	symmetry c1
}
set optking {
	frozen_dihedral = ("
		1 2 3 4
	")
}

ee,wfn = optimize('scf', return_wfn=True)
oeprop( wfn, 'DIPOLE', 'QUADRUPOLE', 'MULLIKEN_CHARGES')
f=open( 'psi4out.xyz', 'w' )
f.write( "12  " )
f.write( str(ee) + "\n" )
f.write( MOL.save_string_xyz() )
f.close()
--------------------------------------------------------------------------

    Molecular point group: c1
  Charge       = 0
  Multiplicity = 1
  Basis Set: CC-PVTZ
  Basis Set:
  @DF-RHF Final Energy:  -193.18871149396085
    Total Energy =                       -193.1887114939609376
    Molecular point group: c1
  Basis Set: CC-PVTZ
  Basis Set:
  Basis Set: CC-PVTZ
  Basis Set:
  @DF-RHF Final Energy:  -193.18973808211396
    Total Energy =                       -193.1897380821139336
  Basis Set: CC-PVTZ
  Basis Set:
  Basis Set: CC-PVTZ
  Basis Set:
  @DF-RHF Final Energy:  -193.19035249317389
    Total Energy =                       -193.1903524931737763
  Basis Set: CC-PVTZ
  Basis Set:
  Basis Set: CC-PVTZ
  Basis Set:
  @DF-RHF Final Energy:  -193.19035876431093
    Total Energy =                       -193.1903587643108153
  Basis Set: CC-PVTZ
  Basis Set:
  Charge       = 0
  Multiplicity = 1
  Basis Set: CC-PVTZ
  Basis Set:

    Orbital Energies (a.u.)
    -----------------------

    Doubly Occupied:

       1A    -20.546356     2A    -11.266452     3A    -11.214884
       4A    -11.203257     5A     -1.364047     6A     -1.048441
       7A     -0.920627     8A     -0.809941     9A     -0.693310
      10A     -0.639547    11A     -0.613436    12A     -0.566779
      13A     -0.530620    14A     -0.519343    15A     -0.482456
      16A     -0.467582    17A     -0.432070

  @DF-RHF Final Energy:  -193.19035980381318

   => Energetics <=

    Nuclear Repulsion Energy =            133.1338936532044386
    One-Electron Energy =                -526.0102077857554832
    Two-Electron Energy =                 199.6859543287378358
    DFT Exchange-Correlation Energy =       0.0000000000000000
    Empirical Dispersion Energy =           0.0000000000000000
    PCM Polarization Energy =               0.0000000000000000
    EFP Energy =                            0.0000000000000000
    Total Energy =                       -193.1903598038132088
    Molecular point group: c1
  Basis Set: CC-PVTZ
  Basis Set:

  -Total Gradient:
     Atom            X                  Y                   Z
    ------   -----------------  -----------------  -----------------
       1       -0.001134508549     0.000319353851     0.000797760611
       2        0.001509091584    -0.000598840691    -0.000726436548
       3       -0.000697761741     0.000741097145    -0.000762347026
       4        0.000325767552    -0.000444622581     0.000695604070
       5       -0.000017866361    -0.000023109889    -0.000020011009
       6        0.000000542225    -0.000008819074     0.000002268330
       7        0.000006431745     0.000007529140     0.000009982381
       8       -0.000010962699     0.000010504587    -0.000001110753
       9        0.000005161180     0.000016105967    -0.000007103332
      10       -0.000004725913    -0.000009416501    -0.000011082321
      11        0.000005957157     0.000000127915     0.000001486939
      12        0.000012873819    -0.000009909871     0.000020988658

  **** Optimization is complete! (in 5 steps) ****
    Final optimized geometry and variables:
    Molecular point group: c1

    Geometry (in Angstrom), charge = 0, multiplicity = 1:

    H           -1.867794396731    -0.554734009914    -0.836554137521
    O           -1.357333098359    -0.687905955236    -0.060125898735
    C           -0.733606784250     0.512085039390     0.321800347256
    C            0.640211804159     0.684447272452    -0.307457372125
    H           -1.364118204198     1.362563118419     0.079273033225
    H           -0.640229709931     0.479977817260     1.401021501643
    C            1.624259904993    -0.412675845219     0.082690669329
    H            0.532600232944     0.713999751994    -1.388869116636
    H            1.030077065970     1.654198278115    -0.008930119203
    H            1.250789295880    -1.386704895966    -0.204650896416
    H            2.584081650677    -0.262200770861    -0.397773446768
    H            1.788708930021    -0.422777239084     1.155361845752

  Mulliken Charges: (a.u.)
   Center  Symbol    Alpha    Beta     Spin     Total
       1     H     0.39375  0.39375  0.00000  0.21250
       2     O     4.20440  4.20440  0.00000 -0.40880
       3     C     2.97678  2.97678  0.00000  0.04643
       4     C     3.08122  3.08122  0.00000 -0.16243
       5     H     0.46221  0.46221  0.00000  0.07558
       6     H     0.46149  0.46149  0.00000  0.07703
       7     C     3.14776  3.14776  0.00000 -0.29551
       8     H     0.46081  0.46081  0.00000  0.07839
       9     H     0.45707  0.45707  0.00000  0.08587
      10     H     0.44662  0.44662  0.00000  0.10676
      11     H     0.45094  0.45094  0.00000  0.09811
      12     H     0.45696  0.45696  0.00000  0.08608

   Total alpha = 17.00000, Total beta = 17.00000, Total charge = -0.00000

*** Psi4 exiting successfully. Buy a developer a beer!
