  ==> Input File <==

--------------------------------------------------------------------------
set {
	reference rhf
	basis 6-31G*
}

set_num_threads( 4 )
memory 2 gb

molecule MOL {
0 1

H	 -0.000158	 1.970498	 0.756846
O	 -0.000074	 1.880206	 -0.189275
C	 -0.000015	 0.544847	 -0.545111
C	 -1.278788	 -0.123820	 -0.051541
C	 1.278802	 -0.123718	 -0.051505
H	 -0.000001	 0.490777	 -1.623619
F	 -1.756188	 -0.912439	 -0.990537
F	 -1.077453	 -0.850420	 1.027290
F	 -2.204997	 0.779780	 0.226383
F	 2.323327	 0.466644	 -0.591854
F	 1.326242	 -1.401483	 -0.363667
F	 1.388946	 -0.015632	 1.262939

	symmetry c1
}
set optking {
	frozen_dihedral = ("
		7 4 3 6
	")
}

ee = optimize('scf')
oeprop('DIPOLE', 'QUADRUPOLE', 'MULLIKEN_CHARGES')
f=open( 'psi4out.xyz', 'w' )
f.write( "12  " )
f.write( str(ee) + "\n" )
f.write( MOL.save_string_xyz() )
f.close()
--------------------------------------------------------------------------

    Molecular point group: c1
  Charge       = 0
  Multiplicity = 1
  Basis Set: 6-31G*
  Basis Set:
  @DF-RHF Final Energy:  -786.27181591346141
    Total Energy =                       -786.2718159134610687
    Molecular point group: c1
  Basis Set: 6-31G*
  Basis Set:
  Basis Set: 6-31G*
  Basis Set:
  @DF-RHF Final Energy:  -786.27286652509042
    Total Energy =                       -786.2728665250904214
  Basis Set: 6-31G*
  Basis Set:
  Basis Set: 6-31G*
  Basis Set:
  @DF-RHF Final Energy:  -786.27343604588577
    Total Energy =                       -786.2734360458856600
  Basis Set: 6-31G*
  Basis Set:
  Basis Set: 6-31G*
  Basis Set:
  @DF-RHF Final Energy:  -786.27351450088508
    Total Energy =                       -786.2735145008851987
  Basis Set: 6-31G*
  Basis Set:
  Basis Set: 6-31G*
  Basis Set:
  @DF-RHF Final Energy:  -786.27352777164594
    Total Energy =                       -786.2735277716461724
  Basis Set: 6-31G*
  Basis Set:
  Basis Set: 6-31G*
  Basis Set:
  @DF-RHF Final Energy:  -786.27352908224680
    Total Energy =                       -786.2735290822472507
  Basis Set: 6-31G*
  Basis Set:
  Charge       = 0
  Multiplicity = 1
  Basis Set: 6-31G*
  Basis Set:

    Orbital Energies (a.u.)
    -----------------------

    Doubly Occupied:

       1A    -26.362474     2A    -26.362322     3A    -26.361216
       4A    -26.358713     5A    -26.357825     6A    -26.357821
       7A    -20.617694     8A    -11.525920     9A    -11.524731
      10A    -11.349229    11A     -1.764173    12A     -1.757727
      13A     -1.659969    14A     -1.658829    15A     -1.655618
      16A     -1.654129    17A     -1.436182    18A     -1.100991
      19A     -0.995203    20A     -0.937117    21A     -0.864246
      22A     -0.860785    23A     -0.850109    24A     -0.845361
      25A     -0.832148    26A     -0.813257    27A     -0.735175
      28A     -0.729308    29A     -0.727393    30A     -0.721665
      31A     -0.688090    32A     -0.685763    33A     -0.682850
      34A     -0.675867    35A     -0.668360    36A     -0.660997
      37A     -0.656685    38A     -0.651993    39A     -0.617746
      40A     -0.549081    41A     -0.505659

  @DF-RHF Final Energy:  -786.27352926911828

   => Energetics <=

    Nuclear Repulsion Energy =            670.0799806949206641
    One-Electron Energy =               -2427.0661762697232007
    Two-Electron Energy =                 970.7126663056848201
    DFT Exchange-Correlation Energy =       0.0000000000000000
    Empirical Dispersion Energy =           0.0000000000000000
    PCM Polarization Energy =               0.0000000000000000
    EFP Energy =                            0.0000000000000000
    Total Energy =                       -786.2735292691176028
    Molecular point group: c1
  Basis Set: 6-31G*
  Basis Set:

  -Total Gradient:
     Atom            X                  Y                   Z
    ------   -----------------  -----------------  -----------------
       1       -0.000005227218    -0.000009964534    -0.000006292065
       2        0.000013511612     0.000045313618     0.000024169615
       3       -0.003305199275     0.005269227910    -0.000714765218
       4        0.003143731702    -0.004331859757     0.001774422927
       5        0.000007397383     0.000047031740     0.000083155919
       6        0.002239330669    -0.003750340014     0.000218006500
       7       -0.002039470253     0.002708875061    -0.001359466443
       8        0.000000160782     0.000015212850     0.000006007125
       9       -0.000007128540     0.000032473719     0.000033724550
      10       -0.000008026437     0.000003139937    -0.000009362240
      11       -0.000019625741    -0.000029363635    -0.000012191004
      12       -0.000019454688     0.000000253104    -0.000037409665

  **** Optimization is complete! (in 7 steps) ****
    Final optimized geometry and variables:
    Molecular point group: c1

    Geometry (in Angstrom), charge = 0, multiplicity = 1:

    H            0.025388255715     2.014357569278     0.804650011337
    O            0.026285728150     1.925875254319    -0.141048932228
    C            0.002484391640     0.599457928239    -0.511824717479
    C           -1.273465467432    -0.133962736927    -0.053291473301
    C            1.271578135940    -0.101456125720    -0.039586223583
    H            0.022367682431     0.548344337678    -1.589713297593
    F           -1.703815304691    -0.939285394508    -1.005130447126
    F           -1.091373207586    -0.852021287007     1.039555449792
    F           -2.231888178796     0.732118106623     0.200623960471
    F            2.319790275961     0.405947024186    -0.652850303663
    F            1.230969206686    -1.393214210464    -0.300377649302
    F            1.451276560350     0.059160632507     1.260524623337

  Mulliken Charges: (a.u.)
   Center  Symbol    Alpha    Beta     Spin     Total
       1     H     0.26695  0.26695  0.00000  0.46609
       2     O     4.35901  4.35901  0.00000 -0.71802
       3     C     3.05857  3.05857  0.00000 -0.11714
       4     C     2.44208  2.44208  0.00000  1.11585
       5     C     2.43972  2.43972  0.00000  1.12057
       6     H     0.37264  0.37264  0.00000  0.25472
       7     F     4.67653  4.67653  0.00000 -0.35305
       8     F     4.67650  4.67650  0.00000 -0.35299
       9     F     4.67466  4.67466  0.00000 -0.34932
      10     F     4.67529  4.67529  0.00000 -0.35058
      11     F     4.67664  4.67664  0.00000 -0.35329
      12     F     4.68142  4.68142  0.00000 -0.36283

   Total alpha = 41.00000, Total beta = 41.00000, Total charge = -0.00000
