                              Psi4 1.0.54 Driver

  ==> Input File <==

--------------------------------------------------------------------------
set {
	reference rhf
	basis cc-pvtz
}

set_num_threads( 4 )
memory 2 gb

molecule MOL {
0 1

H	 -3.436473	 1.252944	 -1.023892
O	 -3.458596	 0.315260	 -0.960865
C	 -3.176635	 -0.080824	 0.355601
C	 -1.763371	 0.265266	 0.799691
H	 -3.321825	 -1.153438	 0.379502
H	 -3.895468	 0.357385	 1.043382
C	 -1.638995	 1.640997	 1.447933
H	 -1.412916	 -0.499724	 1.490947
H	 -1.113016	 0.208518	 -0.069910
C	 -0.221585	 1.958384	 1.917172
H	 -2.322833	 1.703802	 2.287179
H	 -1.960562	 2.397483	 0.736013
C	 -0.102915	 3.338663	 2.560442
H	 0.096495	 1.193554	 2.619133
H	 0.460558	 1.899074	 1.071583
C	 1.314935	 3.736148	 2.974635
H	 -0.755731	 3.386579	 3.428996
H	 -0.477289	 4.080624	 1.860472
C	 1.909298	 2.896762	 4.103045
H	 1.302359	 4.776325	 3.285520
H	 1.968462	 3.688000	 2.107453
H	 1.273582	 2.921158	 4.982447
H	 2.883835	 3.274520	 4.390828
H	 2.035150	 1.860074	 3.814874

	symmetry c1
}
set optking {
	frozen_dihedral = ("
		7 4 3 2
	")
}

ee,wfn = optimize('scf', return_wfn=True)
oeprop( wfn, 'DIPOLE', 'QUADRUPOLE', 'MULLIKEN_CHARGES')
f=open( 'psi4out.xyz', 'w' )
f.write( "24  " )
f.write( str(ee) + "\n" )
f.write( MOL.save_string_xyz() )
f.close()
--------------------------------------------------------------------------

    Molecular point group: c1
  Charge       = 0
  Multiplicity = 1
  Basis Set: CC-PVTZ
  Basis Set:
  @DF-RHF Final Energy:  -349.37750772786598
    Total Energy =                       -349.3775077278659751
    Molecular point group: c1
  Basis Set: CC-PVTZ
  Basis Set:
  Basis Set: CC-PVTZ
  Basis Set:
  @DF-RHF Final Energy:  -349.37776607255807
    Total Energy =                       -349.3777660725581882
  Basis Set: CC-PVTZ
  Basis Set:
  Basis Set: CC-PVTZ
  Basis Set:
  @DF-RHF Final Energy:  -349.37783757899098
    Total Energy =                       -349.3778375789906931
  Basis Set: CC-PVTZ
  Basis Set:
  Basis Set: CC-PVTZ
  Basis Set:
  @DF-RHF Final Energy:  -349.37783910732196
    Total Energy =                       -349.3778391073219609
  Basis Set: CC-PVTZ
  Basis Set:
  Charge       = 0
  Multiplicity = 1
  Basis Set: CC-PVTZ
  Basis Set:

    Orbital Energies (a.u.)
    -----------------------

    Doubly Occupied:

       1A    -20.545067     2A    -11.264621     3A    -11.217945
       4A    -11.214920     5A    -11.214133     6A    -11.213418
       7A    -11.213020     8A    -11.207427     9A     -1.362222
      10A     -1.093766    11A     -1.051542    12A     -0.988131
      13A     -0.918549    14A     -0.853413    15A     -0.800936
      16A     -0.780583    17A     -0.693053    18A     -0.656758
      19A     -0.623940    20A     -0.616448    21A     -0.597646
      22A     -0.587553    23A     -0.562428    24A     -0.535741
      25A     -0.533612    26A     -0.507880    27A     -0.493578
      28A     -0.486552    29A     -0.475599    30A     -0.462888
      31A     -0.457943    32A     -0.444910    33A     -0.424977

  @DF-RHF Final Energy:  -349.37783956216634

   => Energetics <=

    Nuclear Repulsion Energy =            382.9681197368475409
    One-Electron Energy =               -1232.4895092082870178
    Two-Electron Energy =                 500.1435499092729060
    DFT Exchange-Correlation Energy =       0.0000000000000000
    Empirical Dispersion Energy =           0.0000000000000000
    PCM Polarization Energy =               0.0000000000000000
    EFP Energy =                            0.0000000000000000
    Total Energy =                       -349.3778395621666277
    Molecular point group: c1
  Basis Set: CC-PVTZ
  Basis Set:

  -Total Gradient:
     Atom            X                  Y                   Z
    ------   -----------------  -----------------  -----------------
       1        0.000012317495    -0.000009539016     0.000034791347
       2        0.001137896399    -0.003377978069    -0.001167441793
       3       -0.001909900228     0.004077793732     0.002800470143
       4        0.001520960812     0.000656596009    -0.004666462592
       5        0.000006199453     0.000008414361    -0.000043705634
       6        0.000020712170    -0.000012561337    -0.000006815911
       7       -0.000779125422    -0.001356802059     0.003034284498
       8        0.000030403020     0.000021355768     0.000009801759
       9       -0.000049175100     0.000020708763     0.000031426236
      10        0.000006289110    -0.000001554702    -0.000028401600
      11       -0.000028957473    -0.000022625307    -0.000028890649
      12        0.000009974187    -0.000003167376     0.000016641468
      13       -0.000003170551    -0.000009944044     0.000024861747
      14       -0.000023833227     0.000006787488    -0.000012482985
      15        0.000026653247    -0.000007242484    -0.000008718557
      16        0.000007836035    -0.000024955883    -0.000025859295
      17       -0.000001704615    -0.000007819628     0.000005763500
      18       -0.000004551775     0.000012536096     0.000009315202
      19        0.000007426546     0.000009871517     0.000015534734
      20        0.000002133633     0.000010624076    -0.000008539400
      21        0.000002664926    -0.000010864535    -0.000004012627
      22       -0.000004806106    -0.000006711597     0.000006074107
      23       -0.000002698214     0.000006573601     0.000007782235
      24        0.000016455681     0.000020504628     0.000004584066

  **** Optimization is complete! (in 5 steps) ****
    Final optimized geometry and variables:
    Molecular point group: c1

    Geometry (in Angstrom), charge = 0, multiplicity = 1:

    H           -2.478810105148    -0.474954659429    -2.692346469790
    O           -2.468535738112    -1.412203231980    -2.624349493870
    C           -2.253252550607    -1.801854956649    -1.292327202830
    C           -0.848726571642    -1.478478672668    -0.787884027943
    H           -2.404921744780    -2.872431315373    -1.286209771359
    H           -3.004331508830    -1.366901661304    -0.637328836963
    C           -0.719475981161    -0.098830313258    -0.145211448523
    H           -0.566515737630    -2.225514235705    -0.050595862469
    H           -0.158477918288    -1.583661545373    -1.617789457923
    C            0.699200498288     0.223891649862     0.315862753624
    H           -1.396510653878    -0.040622059575     0.703182020479
    H           -1.045473068043     0.668126350313    -0.846104971102
    C            0.816676377061     1.596675041751     0.975237995344
    H            1.027285468647    -0.548745798091     1.004182750577
    H            1.371524384034     0.177769236745    -0.537696038698
    C            2.237096213901     1.997261540818     1.377750721778
    H            0.174308134325     1.630113985903     1.852430221990
    H            0.430112217917     2.345516193818     0.289115051965
    C            2.848585296165     1.148872650077     2.490150857638
    H            2.222301178688     3.033913129230     1.699993325193
    H            2.880653963717     1.962129482094     0.502646454027
    H            2.221445394869     1.157773434322     3.375993524185
    H            3.822849688375     1.530829055075     2.772941979185
    H            2.979800340298     0.116820136676     2.188286680260

  Mulliken Charges: (a.u.)
   Center  Symbol    Alpha    Beta     Spin     Total
       1     H     0.39416  0.39416  0.00000  0.21168
       2     O     4.20390  4.20390  0.00000 -0.40779
       3     C     2.97438  2.97438  0.00000  0.05124
       4     C     3.09909  3.09909  0.00000 -0.19819
       5     H     0.45011  0.45011  0.00000  0.09977
       6     H     0.47166  0.47166  0.00000  0.05668
       7     C     3.09230  3.09230  0.00000 -0.18459
       8     H     0.45564  0.45564  0.00000  0.08872
       9     H     0.44752  0.44752  0.00000  0.10497
      10     C     3.09217  3.09217  0.00000 -0.18434
      11     H     0.45303  0.45303  0.00000  0.09394
      12     H     0.46177  0.46177  0.00000  0.07647
      13     C     3.09460  3.09460  0.00000 -0.18921
      14     H     0.45178  0.45178  0.00000  0.09643
      15     H     0.45294  0.45294  0.00000  0.09411
      16     C     3.09037  3.09037  0.00000 -0.18073
      17     H     0.45416  0.45416  0.00000  0.09168
      18     H     0.45013  0.45013  0.00000  0.09975
      19     C     3.15255  3.15255  0.00000 -0.30511
      20     H     0.44842  0.44842  0.00000  0.10316
      21     H     0.45452  0.45452  0.00000  0.09095
      22     H     0.45500  0.45500  0.00000  0.09000
      23     H     0.44619  0.44619  0.00000  0.10762
      24     H     0.45361  0.45361  0.00000  0.09278

   Total alpha = 33.00000, Total beta = 33.00000, Total charge =  0.00000

*** Psi4 exiting successfully. Buy a developer a beer!
