  ==> Input File <==

--------------------------------------------------------------------------
set {
	reference rhf
	basis 6-31G*
}

set_num_threads( 4 )
memory 2 gb

molecule MOL {
0 1

H	 -2.356849	 -0.556408	 -0.707477
C	 -1.939602	 0.332064	 -0.245022
N	 -0.528168	 0.128977	 -0.000000
H	 -2.454323	 0.486919	 0.696316
H	 -2.157419	 1.180741	 -0.898910
C	 0.248044	 -0.037491	 -1.209632
H	 -0.164010	 0.893373	 0.533027
H	 0.998722	 0.743888	 -1.266824
H	 -0.398417	 0.061950	 -2.074060
H	 0.763621	 -0.999315	 -1.275517

	symmetry c1
}
set optking {
	frozen_dihedral = ("
		2 3 6 8
	")
}

ee = optimize('scf')
oeprop('DIPOLE', 'QUADRUPOLE', 'MULLIKEN_CHARGES')
f=open( 'psi4out.xyz', 'w' )
f.write( "10  " )
f.write( str(ee) + "\n" )
f.write( MOL.save_string_xyz() )
f.close()
--------------------------------------------------------------------------

    Molecular point group: c1
  Charge       = 0
  Multiplicity = 1
  Basis Set: 6-31G*
  Basis Set:
  @DF-RHF Final Energy:  -134.23257778874154
    Total Energy =                       -134.2325777887415370
    Molecular point group: c1
  Basis Set: 6-31G*
  Basis Set:
  Basis Set: 6-31G*
  Basis Set:
  @DF-RHF Final Energy:  -134.23334275652226
    Total Energy =                       -134.2333427565222905
  Basis Set: 6-31G*
  Basis Set:
  Basis Set: 6-31G*
  Basis Set:
  @DF-RHF Final Energy:  -134.23345330914140
    Total Energy =                       -134.2334533091413959
  Basis Set: 6-31G*
  Basis Set:
  Basis Set: 6-31G*
  Basis Set:
  @DF-RHF Final Energy:  -134.23345516283277
    Total Energy =                       -134.2334551628327404
  Basis Set: 6-31G*
  Basis Set:
  Charge       = 0
  Multiplicity = 1
  Basis Set: 6-31G*
  Basis Set:

    Orbital Energies (a.u.)
    -----------------------

    Doubly Occupied:

       1A    -15.534507     2A    -11.236060     3A    -11.235687
       4A     -1.194158     5A     -0.947614     6A     -0.854512
       7A     -0.659389     8A     -0.609247     9A     -0.587626
      10A     -0.546007    11A     -0.510080    12A     -0.505725
      13A     -0.355466

  @DF-RHF Final Energy:  -134.23345543876343

   => Energetics <=

    Nuclear Repulsion Energy =             84.3606288606255532
    One-Electron Energy =                -347.6360157676851941
    Two-Electron Energy =                 129.0419314682963261
    DFT Exchange-Correlation Energy =       0.0000000000000000
    Empirical Dispersion Energy =           0.0000000000000000
    PCM Polarization Energy =               0.0000000000000000
    EFP Energy =                            0.0000000000000000
    Total Energy =                       -134.2334554387633432
    Molecular point group: c1
  Basis Set: 6-31G*
  Basis Set:

  -Total Gradient:
     Atom            X                  Y                   Z
    ------   -----------------  -----------------  -----------------
       1        0.000005640670     0.000002220848    -0.000001554081
       2        0.000030155842     0.000544596613    -0.000024683879
       3       -0.000220259556    -0.000661855521    -0.000030296694
       4       -0.000003861612    -0.000002013734    -0.000000340477
       5        0.000020007913    -0.000007132296     0.000006498736
       6        0.000637390458    -0.000312156859     0.000389605082
       7       -0.000001392024     0.000018730956    -0.000004039689
       8       -0.000463646935     0.000410010897    -0.000345038266
       9       -0.000000330241     0.000007039935     0.000008610599
      10       -0.000003704514     0.000000559159     0.000001238669

  **** Optimization is complete! (in 5 steps) ****
    Final optimized geometry and variables:
    Molecular point group: c1

    Geometry (in Angstrom), charge = 0, multiplicity = 1:

    H           -1.631460850745    -0.711504192584    -0.199678008292
    C           -1.206765512320     0.171284384403     0.266100902456
    N            0.208456708040    -0.029529373515     0.489602153262
    H           -1.705519798899     0.309893171527     1.218711044087
    H           -1.440853197134     1.028956048930    -0.369777173682
    C            1.008499955556    -0.190449093333    -0.716695725792
    H            0.571464005470     0.710684495162     1.052311773789
    H            1.771765496049     0.578263723438    -0.797673858595
    H            0.394244335947    -0.121907615362    -1.610289900671
    H            1.504703510281    -1.155903266291    -0.731152318965

  Mulliken Charges: (a.u.)
   Center  Symbol    Alpha    Beta     Spin     Total
       1     H     0.41771  0.41771  0.00000  0.16458
       2     C     3.14312  3.14312  0.00000 -0.28625
       3     N     3.84595  3.84595  0.00000 -0.69189
       4     H     0.41809  0.41809  0.00000  0.16382
       5     H     0.43491  0.43491  0.00000  0.13019
       6     C     3.14400  3.14400  0.00000 -0.28800
       7     H     0.33050  0.33050  0.00000  0.33900
       8     H     0.42529  0.42529  0.00000  0.14943
       9     H     0.42384  0.42384  0.00000  0.15232
      10     H     0.41660  0.41660  0.00000  0.16680

   Total alpha = 13.00000, Total beta = 13.00000, Total charge = -0.00000
