  ==> Input File <==

--------------------------------------------------------------------------
set {
	reference rhf
	basis cc-pvtz
}

set_num_threads( 4 )
memory 2 gb

molecule MOL {
0 1

O	 0.749630	 1.305591	 -0.000460
C	 0.576499	 0.134701	 -0.003900
C	 -0.765656	 -0.550508	 -0.002152
O	 1.564816	 -0.744612	 -0.000631
C	 -1.945526	 0.411052	 0.000603
H	 -0.794329	 -1.203792	 -0.868145
H	 -0.791555	 -1.205429	 0.862701
C	 -3.037842	 -0.023342	 0.971722
H	 -2.349638	 0.483623	 -1.001804
H	 -1.596606	 1.403947	 0.257105
H	 -3.426288	 -1.003683	 0.716083
H	 -3.866940	 0.673691	 0.957468
H	 -2.664857	 -0.071944	 1.989488
C	 2.884339	 -0.237801	 0.002883
H	 3.064150	 0.362814	 -0.876312
H	 3.533055	 -1.098529	 0.004958
H	 3.059365	 0.363432	 0.882614

	symmetry c1
}
set optking {
	frozen_dihedral = ("
		9 5 3 6
	")
}

ee = optimize('scf')
oeprop('DIPOLE', 'QUADRUPOLE', 'MULLIKEN_CHARGES')
f=open( 'psi4out.xyz', 'w' )
f.write( "17  " )
f.write( str(ee) + "\n" )
f.write( MOL.save_string_xyz() )
f.close()
--------------------------------------------------------------------------

    Molecular point group: c1
  Charge       = 0
  Multiplicity = 1
  Basis Set: CC-PVTZ
  Basis Set:
  @DF-RHF Final Energy:  -345.03109749528738
    Total Energy =                       -345.0310974952876677
    Molecular point group: c1
  Basis Set: CC-PVTZ
  Basis Set:
  Basis Set: CC-PVTZ
  Basis Set:
  @DF-RHF Final Energy:  -345.03129004799860
    Total Energy =                       -345.0312900479984819
  Basis Set: CC-PVTZ
  Basis Set:
  Basis Set: CC-PVTZ
  Basis Set:
  @DF-RHF Final Energy:  -345.03133264279921
    Total Energy =                       -345.0313326427992706
  Basis Set: CC-PVTZ
  Basis Set:
  Basis Set: CC-PVTZ
  Basis Set:
  @DF-RHF Final Energy:  -345.03146480730538
    Total Energy =                       -345.0314648073055537
  Basis Set: CC-PVTZ
  Basis Set:
  Basis Set: CC-PVTZ
  Basis Set:
  @DF-RHF Final Energy:  -345.03150149742356
    Total Energy =                       -345.0315014974233918
  Basis Set: CC-PVTZ
  Basis Set:
  Charge       = 0
  Multiplicity = 1
  Basis Set: CC-PVTZ
  Basis Set:

    Orbital Energies (a.u.)
    -----------------------

    Doubly Occupied:

       1A    -20.596722     2A    -20.535073     3A    -11.365509
       4A    -11.278856     5A    -11.234508     6A    -11.218759
       7A    -11.211965     8A     -1.472978     9A     -1.366504
      10A     -1.079216    11A     -1.002616    12A     -0.939671
      13A     -0.828369    14A     -0.768902    15A     -0.703061
      16A     -0.685853    17A     -0.676662    18A     -0.633084
      19A     -0.600755    20A     -0.573071    21A     -0.571240
      22A     -0.531583    23A     -0.525409    24A     -0.492844
      25A     -0.486903    26A     -0.476407    27A     -0.461365
      28A     -0.442551

  @DF-RHF Final Energy:  -345.03150246250630

   => Energetics <=

    Nuclear Repulsion Energy =            313.2416494620658796
    One-Electron Energy =               -1091.0254302750458919
    Two-Electron Energy =                 432.7522783504736026
    DFT Exchange-Correlation Energy =       0.0000000000000000
    Empirical Dispersion Energy =           0.0000000000000000
    PCM Polarization Energy =               0.0000000000000000
    EFP Energy =                            0.0000000000000000
    Total Energy =                       -345.0315024625064098
    Molecular point group: c1
  Basis Set: CC-PVTZ
  Basis Set:

  -Total Gradient:
     Atom            X                  Y                   Z
    ------   -----------------  -----------------  -----------------
       1        0.000006870372    -0.000000100294    -0.000013890915
       2       -0.000012546636    -0.000046043522    -0.000006594038
       3       -0.002495770762    -0.003026030016     0.002202236623
       4        0.000004418244     0.000021904622     0.000040870724
       5        0.002706140172     0.003307503670    -0.001140348218
       6        0.001629025778     0.002013608167    -0.001591958961
       7        0.000007350123    -0.000015591462    -0.000021774636
       8       -0.000001939060     0.000007134972    -0.000017306555
       9       -0.001848870504    -0.002283909060     0.000600006230
      10       -0.000014878870     0.000027217756    -0.000014090414
      11       -0.000013526354     0.000001569495    -0.000013984925
      12        0.000004307775     0.000010400638     0.000018795785
      13        0.000019948423    -0.000018908288    -0.000017349250
      14        0.000009049585    -0.000000859337    -0.000033110105
      15        0.000009533947     0.000002592101     0.000002152971
      16        0.000001648604     0.000002143276     0.000003159172
      17       -0.000010760833    -0.000002632719     0.000003186513

  **** Optimization is complete! (in 6 steps) ****
    Final optimized geometry and variables:
    Molecular point group: c1

    Geometry (in Angstrom), charge = 0, multiplicity = 1:

    O            0.740899764902     1.268224938962    -0.143797473927
    C            0.551167367996     0.100037140315    -0.135289703995
    C           -0.796554814581    -0.581926921450    -0.111573460260
    O            1.529951557222    -0.790227308379    -0.146143332597
    C           -1.992186040211     0.376572880657    -0.123151997151
    H           -0.805677984314    -1.241172440812    -0.971952572871
    H           -0.803431941900    -1.223058268684     0.762516294447
    C           -3.115158382064    -0.080900229729     0.804769295812
    H           -2.387891754611     0.442144967541    -1.130113920373
    H           -1.664011980724     1.366891146460     0.155952036081
    H           -3.472619380456    -1.070076220125     0.537305610087
    H           -3.957954474192     0.598405316140     0.756159948204
    H           -2.779201965901    -0.118669398680     1.835681751012
    C            2.854829137194    -0.298744251490    -0.167989784043
    H            3.026295614287     0.296416694205    -1.052619478966
    H            3.494052928056    -1.166638511068    -0.173705902261
    H            3.052482435926     0.303939533403     0.706029820338

  Mulliken Charges: (a.u.)
   Center  Symbol    Alpha    Beta     Spin     Total
       1     O     4.19601  4.19601  0.00000 -0.39202
       2     C     2.80240  2.80240  0.00000  0.39519
       3     C     3.10320  3.10320  0.00000 -0.20640
       4     O     4.14776  4.14776  0.00000 -0.29552
       5     C     3.08651  3.08651  0.00000 -0.17302
       6     H     0.43698  0.43698  0.00000  0.12604
       7     H     0.43969  0.43969  0.00000  0.12062
       8     C     3.14950  3.14950  0.00000 -0.29899
       9     H     0.45298  0.45298  0.00000  0.09403
      10     H     0.43600  0.43600  0.00000  0.12800
      11     H     0.45565  0.45565  0.00000  0.08870
      12     H     0.44749  0.44749  0.00000  0.10503
      13     H     0.45520  0.45520  0.00000  0.08961
      14     C     3.03648  3.03648  0.00000 -0.07296
      15     H     0.45432  0.45432  0.00000  0.09135
      16     H     0.44544  0.44544  0.00000  0.10912
      17     H     0.45439  0.45439  0.00000  0.09122

   Total alpha = 28.00000, Total beta = 28.00000, Total charge = -0.00000
