                              Psi4 1.0.54 Driver

  ==> Input File <==

--------------------------------------------------------------------------
set {
	reference rhf
	basis cc-pvtz
}

set_num_threads( 4 )
memory 2 gb

molecule MOL {
0 1

H	 1.887054	 1.681374	 0.336132
O	 1.006873	 1.336734	 0.351661
C	 1.050374	 0.054877	 0.000135
C	 -0.318151	 -0.570512	 0.000144
O	 2.064343	 -0.489084	 -0.271788
C	 -1.454884	 0.441630	 -0.000560
H	 -0.371613	 -1.223646	 -0.864985
H	 -0.371920	 -1.222758	 0.865929
C	 -2.822577	 -0.232186	 0.000063
H	 -1.359760	 1.084704	 -0.867077
H	 -1.359641	 1.085996	 0.864983
H	 -2.954352	 -0.858985	 -0.875745
H	 -3.615886	 0.505352	 0.000019
H	 -2.953878	 -0.858359	 0.876394

	symmetry c1
}
set optking {
	frozen_dihedral = ("
		2 3 4 7
	")
}

ee,wfn = optimize('scf', return_wfn=True)
oeprop( wfn, 'DIPOLE', 'QUADRUPOLE', 'MULLIKEN_CHARGES')
f=open( 'psi4out.xyz', 'w' )
f.write( "14  " )
f.write( str(ee) + "\n" )
f.write( MOL.save_string_xyz() )
f.close()
--------------------------------------------------------------------------

    Molecular point group: c1
  Charge       = 0
  Multiplicity = 1
  Basis Set: CC-PVTZ
  Basis Set:
  @DF-RHF Final Energy:  -305.99731180875932
    Total Energy =                       -305.9973118087592638
    Molecular point group: c1
  Basis Set: CC-PVTZ
  Basis Set:
  Basis Set: CC-PVTZ
  Basis Set:
  @DF-RHF Final Energy:  -305.99814894887459
    Total Energy =                       -305.9981489488745297
  Basis Set: CC-PVTZ
  Basis Set:
  Basis Set: CC-PVTZ
  Basis Set:
  @DF-RHF Final Energy:  -305.99825341198954
    Total Energy =                       -305.9982534119894808
  Basis Set: CC-PVTZ
  Basis Set:
  Basis Set: CC-PVTZ
  Basis Set:
  @DF-RHF Final Energy:  -305.99832380453688
    Total Energy =                       -305.9983238045368807
  Basis Set: CC-PVTZ
  Basis Set:
  Basis Set: CC-PVTZ
  Basis Set:
  @DF-RHF Final Energy:  -305.99843210793074
    Total Energy =                       -305.9984321079306255
  Basis Set: CC-PVTZ
  Basis Set:
  Charge       = 0
  Multiplicity = 1
  Basis Set: CC-PVTZ
  Basis Set:

    Orbital Energies (a.u.)
    -----------------------

    Doubly Occupied:

       1A    -20.607180     2A    -20.536826     3A    -11.374443
       4A    -11.240090     5A    -11.228428     6A    -11.217833
       7A     -1.479273     8A     -1.368157     9A     -1.086374
      10A     -0.979283    11A     -0.848412    12A     -0.820924
      13A     -0.703758    14A     -0.682602    15A     -0.668431
      16A     -0.620006    17A     -0.593241    18A     -0.565130
      19A     -0.550825    20A     -0.527186    21A     -0.497999
      22A     -0.493550    23A     -0.471231    24A     -0.439985

  @DF-RHF Final Energy:  -305.99843310262946

   => Energetics <=

    Nuclear Repulsion Energy =            240.8567569139699458
    One-Electron Energy =                -894.5080448860198885
    Two-Electron Energy =                 347.6528548694203664
    DFT Exchange-Correlation Energy =       0.0000000000000000
    Empirical Dispersion Energy =           0.0000000000000000
    PCM Polarization Energy =               0.0000000000000000
    EFP Energy =                            0.0000000000000000
    Total Energy =                       -305.9984331026295195
    Molecular point group: c1
  Basis Set: CC-PVTZ
  Basis Set:

  -Total Gradient:
     Atom            X                  Y                   Z
    ------   -----------------  -----------------  -----------------
       1       -0.000023369723    -0.000041556474    -0.000001094050
       2       -0.000083061291     0.000151637928    -0.000527483041
       3        0.000028270388    -0.000053990300     0.000636232757
       4        0.000253416606    -0.000519112819     0.000244550399
       5        0.000064692195    -0.000027443077    -0.000010338318
       6       -0.000000133970    -0.000003211778     0.000041382621
       7       -0.000196121178     0.000487109266    -0.000360358405
       8       -0.000010963023    -0.000002111450    -0.000001854282
       9       -0.000017091043     0.000018160836    -0.000024481052
      10       -0.000009743512    -0.000011494407     0.000012999716
      11       -0.000004344335     0.000001193321    -0.000007410326
      12       -0.000000487227    -0.000005278309    -0.000000528293
      13       -0.000012617811    -0.000005143253    -0.000003780807
      14        0.000011553924     0.000011240518     0.000002163081

  **** Optimization is complete! (in 6 steps) ****
    Final optimized geometry and variables:
    Molecular point group: c1

    Geometry (in Angstrom), charge = 0, multiplicity = 1:

    H            2.148941131014     1.407355251371     0.136712677247
    O            1.233068997181     1.183077630788     0.208008683665
    C            1.100942326849    -0.107674766037    -0.072302952326
    C           -0.314694862874    -0.620332347290     0.026847025455
    O            2.028300673558    -0.784546090519    -0.358685006278
    C           -1.424360660507     0.425888702489     0.056948788745
    H           -0.444760695233    -1.299723054584    -0.805991621801
    H           -0.345645252525    -1.231871541707     0.923627968652
    C           -2.805147199273    -0.217624815907     0.125236862963
    H           -1.357375339625     1.050594962097    -0.826839238077
    H           -1.283902493619     1.082620824218     0.906155374300
    H           -2.984855646275    -0.857428170545    -0.732115261320
    H           -3.582486800743     0.536570762958     0.143673884974
    H           -2.911906649075    -0.824610224735     1.018101389409

  Mulliken Charges: (a.u.)
   Center  Symbol    Alpha    Beta     Spin     Total
       1     H     0.38397  0.38397  0.00000  0.23207
       2     O     4.15147  4.15147  0.00000 -0.30294
       3     C     2.81213  2.81213  0.00000  0.37574
       4     C     3.09615  3.09615  0.00000 -0.19231
       5     O     4.19705  4.19705  0.00000 -0.39409
       6     C     3.08448  3.08448  0.00000 -0.16896
       7     H     0.43547  0.43547  0.00000  0.12907
       8     H     0.44026  0.44026  0.00000  0.11947
       9     C     3.15164  3.15164  0.00000 -0.30328
      10     H     0.44788  0.44788  0.00000  0.10424
      11     H     0.44538  0.44538  0.00000  0.10924
      12     H     0.45411  0.45411  0.00000  0.09178
      13     H     0.44542  0.44542  0.00000  0.10916
      14     H     0.45459  0.45459  0.00000  0.09081

   Total alpha = 24.00000, Total beta = 24.00000, Total charge =  0.00000

*** Psi4 exiting successfully. Buy a developer a beer!
