  ==> Input File <==

--------------------------------------------------------------------------
set {
	reference rhf
	basis cc-pvtz
}

set_num_threads( 4 )
memory 2 gb

molecule MOL {
0 1

O	 -1.278239	 1.034789	 -0.784693
C	 -1.204115	 0.062668	 -0.112312
C	 -2.386398	 -0.667698	 0.460323
O	 -0.068058	 -0.518372	 0.226882
H	 -2.382952	 -1.693172	 0.114333
H	 -3.296656	 -0.175702	 0.158400
H	 -2.312537	 -0.685191	 1.540100
C	 1.169086	 0.037484	 -0.230612
C	 1.442359	 -0.591225	 -1.582337
C	 2.264240	 -0.237001	 0.784229
H	 1.034161	 1.103035	 -0.337785
H	 0.637353	 -0.377151	 -2.273630
H	 2.362802	 -0.196751	 -1.995722
H	 1.539744	 -1.666629	 -1.493136
H	 3.204371	 0.172597	 0.433681
H	 2.030111	 0.220804	 1.735147
H	 2.389388	 -1.304108	 0.928816

	symmetry c1
}
set optking {
	frozen_dihedral = ("
		11 8 4 2
	")
}

ee = optimize('scf')
oeprop('DIPOLE', 'QUADRUPOLE', 'MULLIKEN_CHARGES')
f=open( 'psi4out.xyz', 'w' )
f.write( "17  " )
f.write( str(ee) + "\n" )
f.write( MOL.save_string_xyz() )
f.close()
--------------------------------------------------------------------------

    Molecular point group: c1
  Charge       = 0
  Multiplicity = 1
  Basis Set: CC-PVTZ
  Basis Set:
  @DF-RHF Final Energy:  -345.04221761544977
    Total Energy =                       -345.0422176154498288
    Molecular point group: c1
  Basis Set: CC-PVTZ
  Basis Set:
  Basis Set: CC-PVTZ
  Basis Set:
  @DF-RHF Final Energy:  -345.04315214520477
    Total Energy =                       -345.0431521452047150
  Basis Set: CC-PVTZ
  Basis Set:
  Basis Set: CC-PVTZ
  Basis Set:
  @DF-RHF Final Energy:  -345.04280740417676
    Total Energy =                       -345.0428074041770969
  Basis Set: CC-PVTZ
  Basis Set:
  Basis Set: CC-PVTZ
  Basis Set:
  @DF-RHF Final Energy:  -345.04332118482074
    Total Energy =                       -345.0433211848206838
  Basis Set: CC-PVTZ
  Basis Set:
  Basis Set: CC-PVTZ
  Basis Set:
  @DF-RHF Final Energy:  -345.04332441582898
    Total Energy =                       -345.0433244158289199
  Basis Set: CC-PVTZ
  Basis Set:
  Charge       = 0
  Multiplicity = 1
  Basis Set: CC-PVTZ
  Basis Set:

    Orbital Energies (a.u.)
    -----------------------

    Doubly Occupied:

       1A    -20.591121     2A    -20.531414     3A    -11.366850
       4A    -11.287707     5A    -11.230513     6A    -11.217831
       7A    -11.214686     8A     -1.468306     9A     -1.364487
      10A     -1.079713    11A     -1.005638    12A     -0.949007
      13A     -0.849774    14A     -0.768169    15A     -0.694793
      16A     -0.671853    17A     -0.662327    18A     -0.613894
      19A     -0.587242    20A     -0.579071    21A     -0.565168
      22A     -0.551171    23A     -0.537768    24A     -0.522203
      25A     -0.504162    26A     -0.483062    27A     -0.449797
      28A     -0.439380

  @DF-RHF Final Energy:  -345.04332522748865

   => Energetics <=

    Nuclear Repulsion Energy =            323.3502310180977588
    One-Electron Energy =               -1111.2128976749727371
    Two-Electron Energy =                 442.8193414293863270
    DFT Exchange-Correlation Energy =       0.0000000000000000
    Empirical Dispersion Energy =           0.0000000000000000
    PCM Polarization Energy =               0.0000000000000000
    EFP Energy =                            0.0000000000000000
    Total Energy =                       -345.0433252274887082
    Molecular point group: c1
  Basis Set: CC-PVTZ
  Basis Set:

  -Total Gradient:
     Atom            X                  Y                   Z
    ------   -----------------  -----------------  -----------------
       1       -0.000002063585     0.000008464467    -0.000005140850
       2        0.000053219100     0.000378513176     0.000544978700
       3        0.000010926337    -0.000005970144    -0.000013106476
       4       -0.000120329535    -0.000609467599    -0.000916735502
       5        0.000000915142    -0.000000043477     0.000005400410
       6        0.000003092805     0.000001814679    -0.000003481142
       7        0.000001134653     0.000005273113     0.000002413309
       8        0.000325742511     0.000315016769     0.001090463185
       9       -0.000027885099     0.000006967494    -0.000009659502
      10       -0.000030803624    -0.000005692561    -0.000020967900
      11       -0.000223266831    -0.000100172771    -0.000708478059
      12        0.000001399811     0.000000090914     0.000007014953
      13        0.000005600773     0.000003523990     0.000012357168
      14        0.000000992170     0.000003943372     0.000005989675
      15        0.000002843156    -0.000001034899     0.000001842610
      16       -0.000003295839     0.000000682989     0.000002868111
      17        0.000001778053    -0.000001909509     0.000004241310

  **** Optimization is complete! (in 6 steps) ****
    Final optimized geometry and variables:
    Molecular point group: c1

    Geometry (in Angstrom), charge = 0, multiplicity = 1:

    O           -1.289204586255     1.144597066191    -0.616855726323
    C           -1.197760498912     0.188001735764     0.075313921550
    C           -2.364867835040    -0.525570106418     0.698038745746
    O           -0.053942972130    -0.387297747581     0.398362382344
    H           -2.373738620389    -1.558119241226     0.373664205444
    H           -3.282199577193    -0.037676340542     0.411335090236
    H           -2.260248097435    -0.520756550213     1.775323902949
    C            1.174530372167     0.165988516926    -0.084932910140
    C            1.507312409645    -0.445275750611    -1.434126173422
    C            2.220894021430    -0.120266359917     0.973164898385
    H            1.037605676222     1.229978015903    -0.198856041423
    H            0.732032697119    -0.224013083898    -2.155160851890
    H            2.440826428914    -0.039312319323    -1.805892469617
    H            1.611047255161    -1.521019043684    -1.350184785690
    H            3.177614679169     0.286946387959     0.668817769335
    H            1.942948918092     0.329290357763     1.917889643808
    H            2.334395128672    -1.187422980260     1.122402283275

  Mulliken Charges: (a.u.)
   Center  Symbol    Alpha    Beta     Spin     Total
       1     O     4.19969  4.19969  0.00000 -0.39938
       2     C     2.80515  2.80515  0.00000  0.38970
       3     C     3.13946  3.13946  0.00000 -0.27893
       4     O     4.16473  4.16473  0.00000 -0.32945
       5     H     0.44605  0.44605  0.00000  0.10790
       6     H     0.43844  0.43844  0.00000  0.12312
       7     H     0.44609  0.44609  0.00000  0.10782
       8     C     2.93199  2.93199  0.00000  0.13603
       9     C     3.15195  3.15195  0.00000 -0.30390
      10     C     3.13766  3.13766  0.00000 -0.27532
      11     H     0.44074  0.44074  0.00000  0.11851
      12     H     0.44035  0.44035  0.00000  0.11930
      13     H     0.45043  0.45043  0.00000  0.09914
      14     H     0.45349  0.45349  0.00000  0.09302
      15     H     0.45407  0.45407  0.00000  0.09185
      16     H     0.44719  0.44719  0.00000  0.10562
      17     H     0.45252  0.45252  0.00000  0.09497

   Total alpha = 28.00000, Total beta = 28.00000, Total charge = -0.00000
