  ==> Input File <==

--------------------------------------------------------------------------
set {
	reference rhf
	basis 6-31G*
}

set_num_threads( 1 )
memory 2 gb

molecule MOL {
0 1

H	 -1.836216	 1.387520	 -0.000064
C	 -1.301823	 0.443321	 -0.000031
O	 -0.003969	 0.658512	 0.000451
O	 -1.829879	 -0.616434	 -0.000857
C	 0.837918	 -0.409596	 0.433533
C	 2.268714	 0.075374	 0.344396
H	 0.664669	 -1.268750	 -0.199836
H	 0.567139	 -0.679304	 1.445082
H	 2.519718	 0.348558	 -0.674133
H	 2.944328	 -0.710395	 0.665869
H	 2.421881	 0.940872	 0.978699

	symmetry c1
}
set optking {
	frozen_dihedral = ("
		7 5 3 2
	")
}

ee = energy('scf')
oeprop('DIPOLE', 'QUADRUPOLE', 'MULLIKEN_CHARGES')
f=open( 'psi4out.xyz', 'w' )
f.write( "11  " )
f.write( str(ee) + "\n" )
f.write( MOL.save_string_xyz() )
f.close()
--------------------------------------------------------------------------

    Molecular point group: c1

    Geometry (in Angstrom), charge = 0, multiplicity = 1:

       Center              X                  Y                   Z               Mass
    ------------   -----------------  -----------------  -----------------  -----------------
           H         -1.831677214438     1.360494678212    -0.156219311286     1.007825032070
           C         -1.297284214438     0.416295678212    -0.156186311286    12.000000000000
           O          0.000569785562     0.631486678212    -0.155704311286    15.994914619560
           O         -1.825340214438    -0.643459321788    -0.157012311286    15.994914619560
           C          0.842456785562    -0.436621321788     0.277377688714    12.000000000000
           C          2.273252785562     0.048348678212     0.188240688714    12.000000000000
           H          0.669207785562    -1.295775321788    -0.355991311286     1.007825032070
           H          0.571677785562    -0.706329321788     1.288926688714     1.007825032070
           H          2.524256785562     0.321532678212    -0.830288311286     1.007825032070
           H          2.948866785562    -0.737420321788     0.509713688714     1.007825032070
           H          2.426419785562     0.913846678212     0.822543688714     1.007825032070

  Charge       = 0
  Multiplicity = 1
  Basis Set: 6-31G*
  Basis Set:

    Orbital Energies (a.u.)
    -----------------------

    Doubly Occupied:

       1A    -20.610528     2A    -20.558054     3A    -11.378492
       4A    -11.292765     5A    -11.227088     6A     -1.475737
       7A     -1.374222     8A     -1.052751     9A     -0.901806
      10A     -0.807323    11A     -0.738470    12A     -0.688723
      13A     -0.676488    14A     -0.599174    15A     -0.569700
      16A     -0.556133    17A     -0.521016    18A     -0.513149
      19A     -0.461615    20A     -0.452050

  @DF-RHF Final Energy:  -266.82638664093031

   => Energetics <=

    Nuclear Repulsion Energy =            179.1717273145395950
    One-Electron Energy =                -719.0857002006516723
    Two-Electron Energy =                 273.0875862451812850
    DFT Exchange-Correlation Energy =       0.0000000000000000
    Empirical Dispersion Energy =           0.0000000000000000
    PCM Polarization Energy =               0.0000000000000000
    EFP Energy =                            0.0000000000000000
    Total Energy =                       -266.8263866409308207

  Mulliken Charges: (a.u.)
   Center  Symbol    Alpha    Beta     Spin     Total
       1     H     0.41200  0.41200  0.00000  0.17600
       2     C     2.72716  2.72716  0.00000  0.54568
       3     O     4.29213  4.29213  0.00000 -0.58425
       4     O     4.26076  4.26076  0.00000 -0.52151
       5     C     3.00685  3.00685  0.00000 -0.01370
       6     C     3.24938  3.24938  0.00000 -0.49877
       7     H     0.40446  0.40446  0.00000  0.19108
       8     H     0.41189  0.41189  0.00000  0.17622
       9     H     0.40938  0.40938  0.00000  0.18124
      10     H     0.41511  0.41511  0.00000  0.16979
      11     H     0.41089  0.41089  0.00000  0.17821

   Total alpha = 20.00000, Total beta = 20.00000, Total charge = -0.00000
