  ==> Input File <==

--------------------------------------------------------------------------
set {
	reference rhf
	basis cc-pvtz
}

set_num_threads( 4 )
memory 2 gb

molecule MOL {
0 1

O	 0.074770	 1.259872	 0.000487
C	 0.029490	 0.077183	 0.000078
C	 -1.232113	 -0.748027	 0.000015
O	 1.106773	 -0.690081	 -0.000204
C	 -2.501422	 0.088592	 -0.000052
H	 -1.188777	 -1.400384	 -0.865133
H	 -1.188857	 -1.400312	 0.865225
H	 -2.548170	 0.725504	 -0.873205
H	 -3.371613	 -0.556398	 -0.000040
H	 -2.548215	 0.725571	 0.873047
C	 0.917944	 -2.073670	 -0.218537
H	 0.288314	 -2.498307	 0.549242
H	 1.899532	 -2.517536	 -0.182581
H	 0.464577	 -2.248917	 -1.182898

	symmetry c1
}
set optking {
	frozen_dihedral = ("
		11 4 2 3
	")
}

ee = optimize('scf')
oeprop('DIPOLE', 'QUADRUPOLE', 'MULLIKEN_CHARGES')
f=open( 'psi4out.xyz', 'w' )
f.write( "14  " )
f.write( str(ee) + "\n" )
f.write( MOL.save_string_xyz() )
f.close()
--------------------------------------------------------------------------

    Molecular point group: c1
  Charge       = 0
  Multiplicity = 1
  Basis Set: CC-PVTZ
  Basis Set:
  @DF-RHF Final Energy:  -305.96221845243355
    Total Energy =                       -305.9622184524335466
    Molecular point group: c1
  Basis Set: CC-PVTZ
  Basis Set:
  Basis Set: CC-PVTZ
  Basis Set:
  @DF-RHF Final Energy:  -305.96061391934529
    Total Energy =                       -305.9606139193455192
  Basis Set: CC-PVTZ
  Basis Set:
  Basis Set: CC-PVTZ
  Basis Set:
  @DF-RHF Final Energy:  -305.97030526623155
    Total Energy =                       -305.9703052662315486
  Basis Set: CC-PVTZ
  Basis Set:
  Basis Set: CC-PVTZ
  Basis Set:
  @DF-RHF Final Energy:  -305.97251337197235
    Total Energy =                       -305.9725133719723544
  Basis Set: CC-PVTZ
  Basis Set:
  @DF-RHF Final Energy:  -305.97115188927114
    Total Energy =                       -305.9711518892715389
  Basis Set: CC-PVTZ
  Basis Set:
  @DF-RHF Final Energy:  -305.97314117257343
    Total Energy =                       -305.9731411725732642
  Basis Set: CC-PVTZ
  Basis Set:
  Basis Set: CC-PVTZ
  Basis Set:
  @DF-RHF Final Energy:  -305.97337036301201
    Total Energy =                       -305.9733703630121227
  Basis Set: CC-PVTZ
  Basis Set:
  Basis Set: CC-PVTZ
  Basis Set:
  @DF-RHF Final Energy:  -305.97337735670715
    Total Energy =                       -305.9733773567070330
  Basis Set: CC-PVTZ
  Basis Set:
  Charge       = 0
  Multiplicity = 1
  Basis Set: CC-PVTZ
  Basis Set:

    Orbital Energies (a.u.)
    -----------------------

    Doubly Occupied:

       1A    -20.595793     2A    -20.528606     3A    -11.366821
       4A    -11.294075     5A    -11.247061     6A    -11.218993
       7A     -1.466880     8A     -1.368348     9A     -1.064420
      10A     -0.987800    11A     -0.900584    12A     -0.769715
      13A     -0.707600    14A     -0.691421    15A     -0.675679
      16A     -0.626146    17A     -0.606334    18A     -0.558858
      19A     -0.556049    20A     -0.527332    21A     -0.510232
      22A     -0.506491    23A     -0.451789    24A     -0.435807

  @DF-RHF Final Energy:  -305.97337805134907

   => Energetics <=

    Nuclear Repulsion Energy =            248.0910905144894514
    One-Electron Energy =                -908.8032580802126859
    Two-Electron Energy =                 354.7387895143739343
    DFT Exchange-Correlation Energy =       0.0000000000000000
    Empirical Dispersion Energy =           0.0000000000000000
    PCM Polarization Energy =               0.0000000000000000
    EFP Energy =                            0.0000000000000000
    Total Energy =                       -305.9733780513493002
    Molecular point group: c1
  Basis Set: CC-PVTZ
  Basis Set:

  -Total Gradient:
     Atom            X                  Y                   Z
    ------   -----------------  -----------------  -----------------
       1       -0.000006712707    -0.000129552459     0.000008916060
       2        0.000033779702     0.000089491188    -0.001489790600
       3        0.000023230890     0.000030797582     0.000699876363
       4       -0.000117852841    -0.000090435473     0.001463687415
       5       -0.000006413243    -0.000008637921    -0.000017039999
       6        0.000038576033     0.000015904550    -0.000012026216
       7       -0.000011172284     0.000006326421     0.000007871856
       8        0.000001661499    -0.000002921769     0.000001408411
       9       -0.000010710656     0.000007636103     0.000000799608
      10        0.000002389555    -0.000001810589     0.000004493108
      11        0.000055906782     0.000113672246    -0.000590791365
      12        0.000039817305    -0.000053458796    -0.000049290126
      13       -0.000008827227    -0.000022248907    -0.000008611432
      14       -0.000033672807     0.000045237827    -0.000019503084

  **** Optimization is complete! (in 9 steps) ****
    Final optimized geometry and variables:
    Molecular point group: c1

    Geometry (in Angstrom), charge = 0, multiplicity = 1:

    O            0.323252743106     1.556294901474     0.050871077917
    C            0.238787194242     0.380802864560     0.026434958059
    C           -1.083754123040    -0.355450179538     0.036910407617
    O            1.355027606986    -0.345144205758     0.021224348469
    C           -2.277712565545     0.586489030356     0.056180300740
    H           -1.127839170446    -1.006875478673    -0.828853452439
    H           -1.097419963711    -1.006745387317     0.904560424527
    H           -2.279757088137     1.227114563182    -0.814765606872
    H           -3.198547355957     0.015959789913     0.066883587331
    H           -2.255616814231     1.222076672242     0.930260958326
    C            1.369298273301    -1.735600127139    -0.179082086660
    H            0.826879356292    -2.262543435667     0.594271067494
    H            2.405590977813    -2.029053795850    -0.138969959809
    H            0.968392820535    -2.001374488543    -1.148465660806

  Mulliken Charges: (a.u.)
   Center  Symbol    Alpha    Beta     Spin     Total
       1     O     4.18056  4.18056  0.00000 -0.36113
       2     C     2.80740  2.80740  0.00000  0.38521
       3     C     3.12210  3.12210  0.00000 -0.24419
       4     O     4.12814  4.12814  0.00000 -0.25628
       5     C     3.13904  3.13904  0.00000 -0.27809
       6     H     0.44243  0.44243  0.00000  0.11514
       7     H     0.44017  0.44017  0.00000  0.11965
       8     H     0.44582  0.44582  0.00000  0.10835
       9     H     0.45147  0.45147  0.00000  0.09707
      10     H     0.44476  0.44476  0.00000  0.11049
      11     C     3.04469  3.04469  0.00000 -0.08938
      12     H     0.46094  0.46094  0.00000  0.07813
      13     H     0.43274  0.43274  0.00000  0.13452
      14     H     0.45974  0.45974  0.00000  0.08052

   Total alpha = 24.00000, Total beta = 24.00000, Total charge =  0.00000
