  ==> Input File <==

--------------------------------------------------------------------------
set {
	reference rhf
	basis 6-31G*
}

set_num_threads( 1 )
memory 2 gb

molecule MOL {
0 1

H	 -2.798360	 -0.862255	 -0.071053
N	 -1.863561	 -0.715187	 0.256814
C	 -1.344686	 0.554728	 -0.219830
H	 -1.300452	 -1.461917	 -0.101532
C	 0.081427	 0.741154	 0.254071
H	 -1.362155	 0.656231	 -1.305829
H	 -1.952773	 1.354456	 0.191809
O	 0.874168	 -0.245412	 -0.342030
H	 0.444037	 1.730782	 -0.023037
H	 0.121165	 0.653424	 1.337565
C	 0.203630	 -1.434727	 -0.613100
H	 0.911833	 -2.114509	 -1.067018
H	 -0.185350	 -1.888590	 0.296671
H	 -0.624324	 -1.276442	 -1.301031

	symmetry c1
}
set optking {
	frozen_dihedral = ("
		8 5 3 6,
		6 3 2 4,
		5 8 11 13
	")
}

ee = energy('scf')
oeprop('DIPOLE', 'QUADRUPOLE', 'MULLIKEN_CHARGES')
f=open( 'psi4out.xyz', 'w' )
f.write( "14  " )
f.write( str(ee) + "\n" )
f.write( MOL.save_string_xyz() )
f.close()
--------------------------------------------------------------------------

    Molecular point group: c1

    Geometry (in Angstrom), charge = 0, multiplicity = 1:

       Center              X                  Y                   Z               Mass
    ------------   -----------------  -----------------  -----------------  -----------------
           H         -2.377036888778    -0.611280873703     0.073885566484     1.007825032070
           N         -1.442237888778    -0.464212873703     0.401752566484    14.003074004780
           C         -0.923362888778     0.805702126297    -0.074891433516    12.000000000000
           H         -0.879128888778    -1.210942873703     0.043406566484     1.007825032070
           C          0.502750111222     0.992128126297     0.399009566484    12.000000000000
           H         -0.940831888778     0.907205126297    -1.160890433516     1.007825032070
           H         -1.531449888778     1.605430126297     0.336747566484     1.007825032070
           O          1.295491111222     0.005562126297    -0.197091433516    15.994914619560
           H          0.865360111222     1.981756126297     0.121901566484     1.007825032070
           H          0.542488111222     0.904398126297     1.482503566484     1.007825032070
           C          0.624953111222    -1.183752873703    -0.468161433516    12.000000000000
           H          1.333156111222    -1.863534873703    -0.922079433516     1.007825032070
           H          0.235973111222    -1.637615873703     0.441609566484     1.007825032070
           H         -0.203000888778    -1.025467873703    -1.156092433516     1.007825032070

  Charge       = 0
  Multiplicity = 1
  Basis Set: 6-31G*
  Basis Set:

    Orbital Energies (a.u.)
    -----------------------

    Doubly Occupied:

       1A    -20.559115     2A    -15.519089     3A    -11.268773
       4A    -11.267754     5A    -11.245470     6A     -1.388844
       7A     -1.192794     8A     -1.020693     9A     -0.918253
      10A     -0.838469    11A     -0.718391    12A     -0.688309
      13A     -0.635292    14A     -0.606965    15A     -0.595178
      16A     -0.559312    17A     -0.556015    18A     -0.513162
      19A     -0.436268    20A     -0.417705    21A     -0.381746

  @DF-RHF Final Energy:  -248.03341615903651

   => Energetics <=

    Nuclear Repulsion Energy =            207.0726712086216139
    One-Electron Energy =                -747.5569815974880612
    Two-Electron Energy =                 292.4508942298299417
    DFT Exchange-Correlation Energy =       0.0000000000000000
    Empirical Dispersion Energy =           0.0000000000000000
    PCM Polarization Energy =               0.0000000000000000
    EFP Energy =                            0.0000000000000000
    Total Energy =                       -248.0334161590365056

  Mulliken Charges: (a.u.)
   Center  Symbol    Alpha    Beta     Spin     Total
       1     H     0.33696  0.33696  0.00000  0.32608
       2     N     3.93085  3.93085  0.00000 -0.86170
       3     C     3.10445  3.10445  0.00000 -0.20890
       4     H     0.31869  0.31869  0.00000  0.36262
       5     C     2.98332  2.98332  0.00000  0.03336
       6     H     0.42447  0.42447  0.00000  0.15106
       7     H     0.41181  0.41181  0.00000  0.17638
       8     O     4.30462  4.30462  0.00000 -0.60924
       9     H     0.41715  0.41715  0.00000  0.16571
      10     H     0.41872  0.41872  0.00000  0.16255
      11     C     3.11617  3.11617  0.00000 -0.23234
      12     H     0.40977  0.40977  0.00000  0.18047
      13     H     0.40652  0.40652  0.00000  0.18697
      14     H     0.41651  0.41651  0.00000  0.16699

   Total alpha = 21.00000, Total beta = 21.00000, Total charge =  0.00000
