  ==> Input File <==

--------------------------------------------------------------------------
set {
	reference rhf
	basis 6-31G*
}

set_num_threads( 4 )
memory 2 gb

molecule MOL {
0 1

O	 -1.276010	 1.052711	 -0.768302
C	 -1.204840	 0.067374	 -0.106123
C	 -2.388195	 -0.672128	 0.458071
O	 -0.067104	 -0.527208	 0.221609
H	 -2.388023	 -1.694060	 0.097175
H	 -3.300579	 -0.174919	 0.164318
H	 -2.315377	 -0.706351	 1.539059
C	 -0.107932	 -1.713527	 1.027157
C	 1.231570	 -1.780353	 1.739096
C	 -0.375175	 -2.923861	 0.146067
H	 -0.907401	 -1.600116	 1.744440
H	 1.389277	 -0.893467	 2.342262
H	 1.266178	 -2.648030	 2.389688
H	 2.043000	 -1.855683	 1.023163
H	 -0.384415	 -3.827859	 0.746665
H	 -1.335283	 -2.835855	 -0.346298
H	 0.399251	 -3.022310	 -0.607975

	symmetry c1
}
set optking {
	frozen_dihedral = ("
		8 4 2 1
	")
}

ee = optimize('scf')
oeprop('DIPOLE', 'QUADRUPOLE', 'MULLIKEN_CHARGES')
f=open( 'psi4out.xyz', 'w' )
f.write( "17  " )
f.write( str(ee) + "\n" )
f.write( MOL.save_string_xyz() )
f.close()
--------------------------------------------------------------------------

    Molecular point group: c1
  Charge       = 0
  Multiplicity = 1
  Basis Set: 6-31G*
  Basis Set:
  @DF-RHF Final Energy:  -344.87816169042651
    Total Energy =                       -344.8781616904268503
    Molecular point group: c1
  Basis Set: 6-31G*
  Basis Set:
  Basis Set: 6-31G*
  Basis Set:
  @DF-RHF Final Energy:  -344.89306041433679
    Total Energy =                       -344.8930604143366736
  Basis Set: 6-31G*
  Basis Set:
  Basis Set: 6-31G*
  Basis Set:
  @DF-RHF Final Energy:  -344.89778500241994
    Total Energy =                       -344.8977850024203917
  Basis Set: 6-31G*
  Basis Set:
  Basis Set: 6-31G*
  Basis Set:
  @DF-RHF Final Energy:  -344.89814882607067
    Total Energy =                       -344.8981488260706101
  Basis Set: 6-31G*
  Basis Set:
  @DF-RHF Final Energy:  -344.89905312437048
    Total Energy =                       -344.8990531243707665
  Basis Set: 6-31G*
  Basis Set:
  @DF-RHF Final Energy:  -344.89920060812113
    Total Energy =                       -344.8992006081209070
  Basis Set: 6-31G*
  Basis Set:
  Basis Set: 6-31G*
  Basis Set:
  @DF-RHF Final Energy:  -344.89923696672020
    Total Energy =                       -344.8992369667202524
  Basis Set: 6-31G*
  Basis Set:
  Basis Set: 6-31G*
  Basis Set:
  @DF-RHF Final Energy:  -344.89924322408103
    Total Energy =                       -344.8992432240809194
  Basis Set: 6-31G*
  Basis Set:
  Charge       = 0
  Multiplicity = 1
  Basis Set: 6-31G*
  Basis Set:

    Orbital Energies (a.u.)
    -----------------------

    Doubly Occupied:

       1A    -20.597266     2A    -20.535252     3A    -11.375229
       4A    -11.305353     5A    -11.242119     6A    -11.229366
       7A    -11.225730     8A     -1.460224     9A     -1.361787
      10A     -1.078955    11A     -1.017121    12A     -0.957590
      13A     -0.861934    14A     -0.775835    15A     -0.699518
      16A     -0.664447    17A     -0.661758    18A     -0.621028
      19A     -0.596993    20A     -0.586235    21A     -0.562816
      22A     -0.556853    23A     -0.546616    24A     -0.531291
      25A     -0.509076    26A     -0.491188    27A     -0.437488
      28A     -0.430973

  @DF-RHF Final Energy:  -344.89924403763314

   => Energetics <=

    Nuclear Repulsion Energy =            321.9392075464933214
    One-Electron Energy =               -1107.8368156804929185
    Two-Electron Energy =                 440.9983640963664016
    DFT Exchange-Correlation Energy =       0.0000000000000000
    Empirical Dispersion Energy =           0.0000000000000000
    PCM Polarization Energy =               0.0000000000000000
    EFP Energy =                            0.0000000000000000
    Total Energy =                       -344.8992440376331956
    Molecular point group: c1
  Basis Set: 6-31G*
  Basis Set:

  -Total Gradient:
     Atom            X                  Y                   Z
    ------   -----------------  -----------------  -----------------
       1        0.000148386346     0.000413197720     0.000597675491
       2       -0.000135962242    -0.000346754985    -0.000499862099
       3        0.000026184087    -0.000086470428    -0.000064380398
       4       -0.000112002877    -0.000407136305    -0.000612151918
       5       -0.000009438865     0.000006830765     0.000019180493
       6       -0.000012396201    -0.000001968239     0.000006132056
       7        0.000010028687     0.000021427263     0.000013608728
       8        0.000141610755     0.000336397643     0.000507046395
       9       -0.000010422917     0.000013808569     0.000006316720
      10       -0.000062693756     0.000046897263     0.000012606264
      11        0.000011777427    -0.000004843698    -0.000000721985
      12        0.000011626152     0.000002193906     0.000008620344
      13        0.000007327792    -0.000002326692     0.000006677221
      14       -0.000003998391    -0.000003502843     0.000002114748
      15        0.000000573590     0.000009028364     0.000002652359
      16       -0.000014695385    -0.000006673970    -0.000016187993
      17        0.000004095801     0.000009895662     0.000010673575

  **** Optimization is complete! (in 9 steps) ****
    Final optimized geometry and variables:
    Molecular point group: c1

    Geometry (in Angstrom), charge = 0, multiplicity = 1:

    O           -0.590115429521     1.939874539932    -1.175086823895
    C           -0.660187604078     0.986406104444    -0.475422290879
    C           -1.967159309424     0.546929400077     0.148759123910
    O            0.445784394690     0.294140119245    -0.209443033159
    H           -2.184504325759    -0.496113981523    -0.045824122722
    H           -2.750296670783     1.161475333621    -0.267890983577
    H           -1.943553629639     0.690340297204     1.223882316323
    C            0.514579305656    -0.868201687660     0.611231909510
    C            1.828138453008    -0.775796480440     1.370281073980
    C            0.432440231550    -2.108869170527    -0.266527188863
    H           -0.301901740028    -0.865034276597     1.320901172836
    H            1.855185366361     0.123648706416     1.974173094430
    H            1.949368083383    -1.634728923218     2.022257514615
    H            2.661504703061    -0.745390142022     0.677813225254
    H            0.505136011319    -3.007018630773     0.338135563438
    H           -0.503298363253    -2.145474704305    -0.814009692068
    H            1.243037658576    -2.109552197733    -0.986464213741

  Mulliken Charges: (a.u.)
   Center  Symbol    Alpha    Beta     Spin     Total
       1     O     4.26877  4.26877  0.00000 -0.53755
       2     C     2.61180  2.61180  0.00000  0.77641
       3     C     3.31174  3.31174  0.00000 -0.62349
       4     O     4.30740  4.30740  0.00000 -0.61480
       5     H     0.40479  0.40479  0.00000  0.19043
       6     H     0.38700  0.38700  0.00000  0.22600
       7     H     0.40136  0.40136  0.00000  0.19728
       8     C     2.93069  2.93069  0.00000  0.13862
       9     C     3.23827  3.23827  0.00000 -0.47654
      10     C     3.24389  3.24389  0.00000 -0.48777
      11     H     0.41665  0.41665  0.00000  0.16670
      12     H     0.41003  0.41003  0.00000  0.17993
      13     H     0.41904  0.41904  0.00000  0.16191
      14     H     0.40808  0.40808  0.00000  0.18383
      15     H     0.41724  0.41724  0.00000  0.16552
      16     H     0.41633  0.41633  0.00000  0.16735
      17     H     0.40691  0.40691  0.00000  0.18617

   Total alpha = 28.00000, Total beta = 28.00000, Total charge =  0.00000
