                              Psi4 1.0.54 Driver

  ==> Input File <==

--------------------------------------------------------------------------
set {
	reference rhf
	basis cc-pvtz
}

set_num_threads( 4 )
memory 2 gb

molecule MOL {
0 1

H	 -3.453896	 0.054136	 0.215331
C	 -3.214472	 0.302801	 -0.827611
C	 -2.327755	 1.505402	 -1.004740
O	 -3.655154	 -0.351701	 -1.707801
C	 -1.053481	 1.432163	 -0.158255
H	 -2.101773	 1.614651	 -2.057513
H	 -2.912070	 2.369725	 -0.696802
C	 -0.087801	 0.333974	 -0.598286
H	 -0.553171	 2.393183	 -0.207957
H	 -1.322432	 1.285709	 0.885014
C	 1.181757	 0.280428	 0.247371
H	 0.178021	 0.491938	 -1.640156
H	 -0.585602	 -0.631460	 -0.558799
C	 2.151032	 -0.811012	 -0.202643
H	 1.669691	 1.249412	 0.210828
H	 0.912816	 0.112477	 1.287929
C	 3.580021	 -0.656538	 0.320835
H	 2.170545	 -0.847575	 -1.289412
H	 1.766632	 -1.772905	 0.124928
C	 4.327657	 0.562694	 -0.213579
H	 4.138806	 -1.549270	 0.057813
H	 3.561991	 -0.620783	 1.406976
H	 4.355973	 0.557257	 -1.298551
H	 3.867136	 1.491650	 0.100501
H	 5.351524	 0.571613	 0.142204

	symmetry c1
}
set optking {
	frozen_dihedral = ("
		8 11 14 18
	")
}

ee,wfn = optimize('scf', return_wfn=True)
oeprop( wfn, 'DIPOLE', 'QUADRUPOLE', 'MULLIKEN_CHARGES')
f=open( 'psi4out.xyz', 'w' )
f.write( "25  " )
f.write( str(ee) + "\n" )
f.write( MOL.save_string_xyz() )
f.close()
--------------------------------------------------------------------------

    Molecular point group: c1
  Charge       = 0
  Multiplicity = 1
  Basis Set: CC-PVTZ
  Basis Set:
  @DF-RHF Final Energy:  -387.25901699170862
    Total Energy =                       -387.2590169917084495
    Molecular point group: c1
  Basis Set: CC-PVTZ
  Basis Set:
  Basis Set: CC-PVTZ
  Basis Set:
  @DF-RHF Final Energy:  -387.25863822463236
    Total Energy =                       -387.2586382246324774
  Basis Set: CC-PVTZ
  Basis Set:
  Basis Set: CC-PVTZ
  Basis Set:
  @DF-RHF Final Energy:  -387.25920647557382
    Total Energy =                       -387.2592064755739329
  Basis Set: CC-PVTZ
  Basis Set:
  Basis Set: CC-PVTZ
  Basis Set:
  @DF-RHF Final Energy:  -387.25925287885917
    Total Energy =                       -387.2592528788595700
  Basis Set: CC-PVTZ
  Basis Set:
  Basis Set: CC-PVTZ
  Basis Set:
  @DF-RHF Final Energy:  -387.25861412961120
    Total Energy =                       -387.2586141296110327
  Basis Set: CC-PVTZ
  Basis Set:
  Basis Set: CC-PVTZ
  Basis Set:
  @DF-RHF Final Energy:  -387.25927465954840
    Total Energy =                       -387.2592746595486233
  Basis Set: CC-PVTZ
  Basis Set:
  Basis Set: CC-PVTZ
  Basis Set:
  @DF-RHF Final Energy:  -387.25928565472998
    Total Energy =                       -387.2592856547300926
  Basis Set: CC-PVTZ
  Basis Set:
  Charge       = 0
  Multiplicity = 1
  Basis Set: CC-PVTZ
  Basis Set:

    Orbital Energies (a.u.)
    -----------------------

    Doubly Occupied:

       1A    -20.551328     2A    -11.320940     3A    -11.233787
       4A    -11.232811     5A    -11.221843     6A    -11.217662
       7A    -11.216581     8A    -11.214942     9A    -11.208904
      10A     -1.406355    11A     -1.105147    12A     -1.070748
      13A     -1.014736    14A     -0.943790    15A     -0.875562
      16A     -0.820373    17A     -0.788894    18A     -0.783469
      19A     -0.667710    20A     -0.663635    21A     -0.633124
      22A     -0.627906    23A     -0.605552    24A     -0.594184
      25A     -0.577003    26A     -0.550355    27A     -0.536961
      28A     -0.527184    29A     -0.509120    30A     -0.498319
      31A     -0.491200    32A     -0.480874    33A     -0.465706
      34A     -0.457793    35A     -0.442720    36A     -0.411847

  @DF-RHF Final Energy:  -387.25928596016257

   => Energetics <=

    Nuclear Repulsion Energy =            439.9384500164115366
    One-Electron Energy =               -1396.4573454171204503
    Two-Electron Energy =                 569.2596094405469103
    DFT Exchange-Correlation Energy =       0.0000000000000000
    Empirical Dispersion Energy =           0.0000000000000000
    PCM Polarization Energy =               0.0000000000000000
    EFP Energy =                            0.0000000000000000
    Total Energy =                       -387.2592859601620603
    Molecular point group: c1
  Basis Set: CC-PVTZ
  Basis Set:

  -Total Gradient:
     Atom            X                  Y                   Z
    ------   -----------------  -----------------  -----------------
       1        0.000011024382     0.000008990069    -0.000036715896
       2       -0.000013889002    -0.000005782782     0.000001214765
       3       -0.000019752056    -0.000019164454    -0.000004891787
       4        0.000007468649    -0.000003161368     0.000015449383
       5        0.000027608592     0.000031644021    -0.000020589586
       6       -0.000005720794     0.000002746446     0.000004408326
       7        0.000001422401     0.000001051502     0.000008220040
       8        0.000967840064     0.001414488959    -0.001356098066
       9        0.000012537480     0.000001188001     0.000007346967
      10        0.000007792274    -0.000004532368    -0.000004507459
      11       -0.001932767447    -0.002499505167     0.001944956010
      12       -0.000008007647     0.000007970872     0.000011642049
      13       -0.000004800033    -0.000007896655    -0.000004208208
      14        0.003227858955     0.003093106275    -0.000574516142
      15       -0.000001469066    -0.000005537580    -0.000000988270
      16       -0.000003361263     0.000015539426    -0.000001419288
      17        0.000006514232     0.000008892904    -0.000010017483
      18       -0.002287361094    -0.002035191389     0.000007103795
      19       -0.000001272468     0.000008767160    -0.000007602798
      20        0.000003082652    -0.000014067124     0.000015130451
      21        0.000001599778    -0.000000608837     0.000001488172
      22        0.000009147695     0.000007409126     0.000005819889
      23       -0.000003796455     0.000001478252    -0.000000686463
      24        0.000000021491    -0.000005141687     0.000000166762
      25       -0.000001721314    -0.000002683603    -0.000000705162

  **** Optimization is complete! (in 8 steps) ****
    Final optimized geometry and variables:
    Molecular point group: c1

    Geometry (in Angstrom), charge = 0, multiplicity = 1:

    H           -3.568503163221    -0.297866862191     0.605313080816
    C           -3.315622963034     0.012493467607    -0.417670443072
    C           -2.446818870805     1.237353067694    -0.511893288670
    O           -3.730021984486    -0.598713874149    -1.340695428952
    C           -1.187970935914     1.139596081417     0.354826848711
    H           -2.202786831468     1.407219370243    -1.552539124953
    H           -3.052120932406     2.073973533419    -0.169840622007
    C           -0.197599940443     0.079072092690    -0.120799671873
    H           -0.701287273403     2.108944408344     0.363381483079
    H           -1.474340400849     0.936799155652     1.383840294629
    C            1.067247511143     0.016852517850     0.731161742867
    H            0.076294761584     0.284986076325    -1.151695903563
    H           -0.678161935055    -0.896460335570    -0.127138977853
    C            2.036294566238    -1.080915775989     0.287049885612
    H            1.556016846014     0.985336653184     0.686529534319
    H            0.802801620869    -0.140107690572     1.773608459296
    C            3.454023176775    -0.954906076953     0.846292903147
    H            2.067531159404    -1.122841394370    -0.798925574433
    H            1.626645282550    -2.038839164444     0.596320852109
    C            4.276194087413     0.181407242521     0.242944336191
    H            3.977863654159    -1.889470165974     0.672307489898
    H            3.404362888856    -0.833472539062     1.925385715026
    H            4.364751341202     0.066471754117    -0.832411927368
    H            3.835382927148     1.152105533669     0.435784325407
    H            5.278152047402     0.192600609732     0.656492245520

  Mulliken Charges: (a.u.)
   Center  Symbol    Alpha    Beta     Spin     Total
       1     H     0.46420  0.46420  0.00000  0.07161
       2     C     2.90478  2.90478  0.00000  0.19043
       3     C     3.08907  3.08907  0.00000 -0.17815
       4     O     4.16623  4.16623  0.00000 -0.33247
       5     C     3.11635  3.11635  0.00000 -0.23271
       6     H     0.44292  0.44292  0.00000  0.11415
       7     H     0.44048  0.44048  0.00000  0.11904
       8     C     3.09056  3.09056  0.00000 -0.18112
       9     H     0.44289  0.44289  0.00000  0.11421
      10     H     0.44968  0.44968  0.00000  0.10063
      11     C     3.09317  3.09317  0.00000 -0.18634
      12     H     0.44949  0.44949  0.00000  0.10102
      13     H     0.44801  0.44801  0.00000  0.10398
      14     C     3.09696  3.09696  0.00000 -0.19392
      15     H     0.45252  0.45252  0.00000  0.09496
      16     H     0.45200  0.45200  0.00000  0.09600
      17     C     3.09079  3.09079  0.00000 -0.18158
      18     H     0.45315  0.45315  0.00000  0.09369
      19     H     0.44791  0.44791  0.00000  0.10418
      20     C     3.15023  3.15023  0.00000 -0.30046
      21     H     0.44733  0.44733  0.00000  0.10534
      22     H     0.45508  0.45508  0.00000  0.08985
      23     H     0.45432  0.45432  0.00000  0.09136
      24     H     0.45527  0.45527  0.00000  0.08945
      25     H     0.44659  0.44659  0.00000  0.10682

   Total alpha = 36.00000, Total beta = 36.00000, Total charge = -0.00000

*** Psi4 exiting successfully. Buy a developer a beer!
