  ==> Input File <==

--------------------------------------------------------------------------
set {
	reference rhf
	basis cc-pvtz
}

set_num_threads( 4 )
memory 2 gb

molecule MOL {
0 1

O	 -1.510770	 1.240811	 -0.054933
C	 -1.081510	 0.147522	 0.122720
C	 0.327029	 -0.064006	 0.641890
C	 -1.903028	 -1.084121	 -0.174656
C	 1.349460	 -0.017068	 -0.500215
H	 0.399029	 -1.014606	 1.159950
H	 0.538021	 0.726928	 1.350471
C	 2.755460	 0.308971	 -0.009700
H	 1.361911	 -0.970442	 -1.020563
H	 1.029464	 0.726324	 -1.220838
H	 3.454883	 0.347107	 -0.836370
H	 3.110815	 -0.438748	 0.691293
H	 2.780025	 1.270688	 0.490668
H	 -1.341891	 -1.779207	 -0.789259
H	 -2.820449	 -0.808163	 -0.671328
H	 -2.133314	 -1.593056	 0.755831

	symmetry c1
}
set optking {
	frozen_dihedral = ("
		9 5 3 2
	")
}

ee = optimize('scf')
oeprop('DIPOLE', 'QUADRUPOLE', 'MULLIKEN_CHARGES')
f=open( 'psi4out.xyz', 'w' )
f.write( "16  " )
f.write( str(ee) + "\n" )
f.write( MOL.save_string_xyz() )
f.close()
--------------------------------------------------------------------------

    Molecular point group: c1
  Charge       = 0
  Multiplicity = 1
  Basis Set: CC-PVTZ
  Basis Set:
  @DF-RHF Final Energy:  -270.12780165920259
    Total Energy =                       -270.1278016592026461
    Molecular point group: c1
  Basis Set: CC-PVTZ
  Basis Set:
  Basis Set: CC-PVTZ
  Basis Set:
  @DF-RHF Final Energy:  -270.12798701963180
    Total Energy =                       -270.1279870196321440
  Basis Set: CC-PVTZ
  Basis Set:
  Basis Set: CC-PVTZ
  Basis Set:
  @DF-RHF Final Energy:  -270.12788319338182
    Total Energy =                       -270.1278831933818196
  Basis Set: CC-PVTZ
  Basis Set:
  Basis Set: CC-PVTZ
  Basis Set:
  @DF-RHF Final Energy:  -270.12804834009353
    Total Energy =                       -270.1280483400933576
  Basis Set: CC-PVTZ
  Basis Set:
  @DF-RHF Final Energy:  -270.12805871512074
    Total Energy =                       -270.1280587151208010
  Basis Set: CC-PVTZ
  Basis Set:
  @DF-RHF Final Energy:  -270.12807093450050
    Total Energy =                       -270.1280709345005562
  Basis Set: CC-PVTZ
  Basis Set:
  Basis Set: CC-PVTZ
  Basis Set:
  @DF-RHF Final Energy:  -270.12807490044304
    Total Energy =                       -270.1280749004429822
  Basis Set: CC-PVTZ
  Basis Set:
  Basis Set: CC-PVTZ
  Basis Set:
  @DF-RHF Final Energy:  -270.12807727865527
    Total Energy =                       -270.1280772786549278
  Basis Set: CC-PVTZ
  Basis Set:
  Charge       = 0
  Multiplicity = 1
  Basis Set: CC-PVTZ
  Basis Set:

    Orbital Energies (a.u.)
    -----------------------

    Doubly Occupied:

       1A    -20.537378     2A    -11.319700     3A    -11.232584
       4A    -11.228257     5A    -11.227002     6A    -11.217354
       7A     -1.397524     8A     -1.083576     9A     -1.013614
      10A     -0.950107    11A     -0.830363    12A     -0.736532
      13A     -0.662751    14A     -0.648412    15A     -0.617066
      16A     -0.608621    17A     -0.576512    18A     -0.556390
      19A     -0.541916    20A     -0.517969    21A     -0.502833
      22A     -0.485743    23A     -0.475266    24A     -0.400496

  @DF-RHF Final Energy:  -270.12807771828102

   => Energetics <=

    Nuclear Repulsion Energy =            237.5314941077895128
    One-Electron Energy =                -836.5832038990689625
    Two-Electron Energy =                 328.9236320729984868
    DFT Exchange-Correlation Energy =       0.0000000000000000
    Empirical Dispersion Energy =           0.0000000000000000
    PCM Polarization Energy =               0.0000000000000000
    EFP Energy =                            0.0000000000000000
    Total Energy =                       -270.1280777182809629
    Molecular point group: c1
  Basis Set: CC-PVTZ
  Basis Set:

  -Total Gradient:
     Atom            X                  Y                   Z
    ------   -----------------  -----------------  -----------------
       1        0.000010336345     0.000006582753    -0.000044948844
       2        0.000254072737     0.002500182258     0.000206933525
       3        0.000241327584    -0.003658125745     0.000268281057
       4       -0.000018026723    -0.000002044962     0.000043550396
       5       -0.002993283739     0.002195147381    -0.002617932960
       6        0.000013040457    -0.000007370803    -0.000012461253
       7       -0.000012917006    -0.000008958683     0.000008569188
       8        0.000000026447    -0.000001731276     0.000000614159
       9        0.002493485889    -0.001025954937     0.002167404622
      10        0.000004276714     0.000002834404    -0.000001560939
      11       -0.000001580715     0.000001229336     0.000000188355
      12       -0.000000208931    -0.000000558195    -0.000001802274
      13       -0.000000036669    -0.000000016821     0.000001102407
      14        0.000001633813     0.000003247399    -0.000010051826
      15        0.000000147525     0.000000554180     0.000000108798
      16        0.000007706271    -0.000005016287    -0.000007994409

  **** Optimization is complete! (in 9 steps) ****
    Final optimized geometry and variables:
    Molecular point group: c1

    Geometry (in Angstrom), charge = 0, multiplicity = 1:

    O           -1.568606857516     1.147783883424     0.069010887680
    C           -1.081616141642     0.067321219736     0.148869116161
    C            0.340913111950    -0.113104382317     0.640065910760
    C           -1.841836384875    -1.174830368185    -0.251620907965
    C            1.346160700133    -0.123940246186    -0.523981276273
    H            0.434838889515    -1.026508194713     1.217359707662
    H            0.552410789167     0.724682008141     1.291563655834
    C            2.764654922481     0.189341866118    -0.056266138044
    H            1.351729577297    -1.102624890211    -0.992652311444
    H            1.044667262770     0.599040926645    -1.272852878487
    H            3.464492235491     0.140240177521    -0.882150435299
    H            3.092771255114    -0.517321428471     0.698791212298
    H            2.822693962184     1.183427417527     0.371895636576
    H           -1.256184687331    -1.776994111962    -0.937205808156
    H           -2.781550883047    -0.904489497252    -0.708121556700
    H           -2.027862253018    -1.780705247752     0.629319302946

  Mulliken Charges: (a.u.)
   Center  Symbol    Alpha    Beta     Spin     Total
       1     O     4.17583  4.17583  0.00000 -0.35166
       2     C     2.85872  2.85872  0.00000  0.28256
       3     C     3.09786  3.09786  0.00000 -0.19572
       4     C     3.15445  3.15445  0.00000 -0.30890
       5     C     3.09296  3.09296  0.00000 -0.18593
       6     H     0.44848  0.44848  0.00000  0.10304
       7     H     0.44048  0.44048  0.00000  0.11904
       8     C     3.14700  3.14700  0.00000 -0.29400
       9     H     0.45284  0.45284  0.00000  0.09432
      10     H     0.44334  0.44334  0.00000  0.11332
      11     H     0.44695  0.44695  0.00000  0.10610
      12     H     0.45478  0.45478  0.00000  0.09043
      13     H     0.45057  0.45057  0.00000  0.09886
      14     H     0.45092  0.45092  0.00000  0.09816
      15     H     0.43588  0.43588  0.00000  0.12825
      16     H     0.44894  0.44894  0.00000  0.10213

   Total alpha = 24.00000, Total beta = 24.00000, Total charge = -0.00000
