  ==> Input File <==

--------------------------------------------------------------------------
set {
	reference rhf
	basis 6-31G*
}

set_num_threads( 1 )
memory 2 gb

molecule MOL {
0 1

H	 -1.649622	 -0.252445	 -3.389514
C	 -2.312077	 -0.433430	 -2.533932
C	 -1.826887	 -1.478919	 -1.562257
O	 -3.327171	 0.174497	 -2.425494
C	 -0.391308	 -1.218213	 -1.085392
H	 -2.521293	 -1.522077	 -0.731206
H	 -1.864194	 -2.437353	 -2.078657
C	 -0.252658	 0.041456	 -0.226725
H	 -0.055650	 -2.080744	 -0.517362
H	 0.269042	 -1.148736	 -1.948450
C	 1.180775	 0.282413	 0.250794
H	 -0.913352	 -0.040002	 0.633911
H	 -0.594504	 0.909581	 -0.787118
C	 2.148627	 -0.814315	 -0.201312
H	 1.516199	 1.249228	 -0.115937
H	 1.192670	 0.346017	 1.338083
C	 3.580890	 -0.659131	 0.322722
H	 2.166869	 -0.852443	 -1.289387
H	 1.762857	 -1.776509	 0.128956
C	 4.324889	 0.564933	 -0.213704
H	 4.142010	 -1.551473	 0.056605
H	 3.564836	 -0.624694	 1.410140
H	 4.342616	 0.565491	 -1.300421
H	 3.866655	 1.493402	 0.110242
H	 5.353900	 0.572371	 0.132816

	symmetry c1
}
set optking {
	frozen_dihedral = ("
		6 3 5 8,
		6 3 2 4,
		3 5 8 12,
		8 11 14 18,
		20 17 14 18
	")
}

ee = energy('scf')
oeprop('DIPOLE', 'QUADRUPOLE', 'MULLIKEN_CHARGES')
f=open( 'psi4out.xyz', 'w' )
f.write( "25  " )
f.write( str(ee) + "\n" )
f.write( MOL.save_string_xyz() )
f.close()
--------------------------------------------------------------------------

    Molecular point group: c1

    Geometry (in Angstrom), charge = 0, multiplicity = 1:

       Center              X                  Y                   Z               Mass
    ------------   -----------------  -----------------  -----------------  -----------------
           H         -2.000458919901     0.129991008059    -2.529337920635     1.007825032070
           C         -2.662913919901    -0.050993991941    -1.673755920635    12.000000000000
           C         -2.177723919901    -1.096482991941    -0.702080920635    12.000000000000
           O         -3.678007919901     0.556933008059    -1.565317920635    15.994914619560
           C         -0.742144919901    -0.835776991941    -0.225215920635    12.000000000000
           H         -2.872129919901    -1.139640991941     0.128970079365     1.007825032070
           H         -2.215030919901    -2.054916991941    -1.218480920635     1.007825032070
           C         -0.603494919901     0.423892008059     0.633451079365    12.000000000000
           H         -0.406486919901    -1.698307991941     0.342814079365     1.007825032070
           H         -0.081794919901    -0.766299991941    -1.088273920635     1.007825032070
           C          0.829938080099     0.664849008059     1.110970079365    12.000000000000
           H         -1.264188919901     0.342434008059     1.494087079365     1.007825032070
           H         -0.945340919901     1.292017008059     0.073058079365     1.007825032070
           C          1.797790080099    -0.431878991941     0.658864079365    12.000000000000
           H          1.165362080099     1.631664008059     0.744239079365     1.007825032070
           H          0.841833080099     0.728453008059     2.198259079365     1.007825032070
           C          3.230053080099    -0.276694991941     1.182898079365    12.000000000000
           H          1.816032080099    -0.470006991941    -0.429210920635     1.007825032070
           H          1.412020080099    -1.394072991941     0.989132079365     1.007825032070
           C          3.974052080099     0.947369008059     0.646472079365    12.000000000000
           H          3.791173080099    -1.169036991941     0.916781079365     1.007825032070
           H          3.213999080099    -0.242257991941     2.270316079365     1.007825032070
           H          3.991779080099     0.947927008059    -0.440244920635     1.007825032070
           H          3.515818080099     1.875838008059     0.970418079365     1.007825032070
           H          5.003063080099     0.954807008059     0.992992079365     1.007825032070

  Charge       = 0
  Multiplicity = 1
  Basis Set: 6-31G*
  Basis Set:

    Orbital Energies (a.u.)
    -----------------------

    Doubly Occupied:

       1A    -20.561123     2A    -11.325278     3A    -11.233337
       4A    -11.232682     5A    -11.222618     6A    -11.218817
       7A    -11.218545     8A    -11.217921     9A    -11.211233
      10A     -1.401157    11A     -1.108468    12A     -1.066403
      13A     -1.013209    14A     -0.936816    15A     -0.888658
      16A     -0.825515    17A     -0.794506    18A     -0.760630
      19A     -0.666185    20A     -0.661620    21A     -0.631080
      22A     -0.630517    23A     -0.604459    24A     -0.587285
      25A     -0.582681    26A     -0.549204    27A     -0.543459
      28A     -0.525139    29A     -0.516818    30A     -0.502575
      31A     -0.486421    32A     -0.475652    33A     -0.454645
      34A     -0.448927    35A     -0.445710    36A     -0.407730

  @DF-RHF Final Energy:  -387.10605466419338

   => Energetics <=

    Nuclear Repulsion Energy =            448.0855105451280451
    One-Electron Energy =               -1412.4691901526596212
    Two-Electron Energy =                 577.2776249433383100
    DFT Exchange-Correlation Energy =       0.0000000000000000
    Empirical Dispersion Energy =           0.0000000000000000
    PCM Polarization Energy =               0.0000000000000000
    EFP Energy =                            0.0000000000000000
    Total Energy =                       -387.1060546641932660

  Mulliken Charges: (a.u.)
   Center  Symbol    Alpha    Beta     Spin     Total
       1     H     0.43316  0.43316  0.00000  0.13368
       2     C     2.83099  2.83099  0.00000  0.33802
       3     C     3.20446  3.20446  0.00000 -0.40893
       4     O     4.23808  4.23808  0.00000 -0.47617
       5     C     3.17418  3.17418  0.00000 -0.34837
       6     H     0.40046  0.40046  0.00000  0.19908
       7     H     0.40740  0.40740  0.00000  0.18521
       8     C     3.15807  3.15807  0.00000 -0.31614
       9     H     0.41059  0.41059  0.00000  0.17883
      10     H     0.41767  0.41767  0.00000  0.16467
      11     C     3.15757  3.15757  0.00000 -0.31514
      12     H     0.41546  0.41546  0.00000  0.16907
      13     H     0.41554  0.41554  0.00000  0.16892
      14     C     3.16095  3.16095  0.00000 -0.32190
      15     H     0.41661  0.41661  0.00000  0.16677
      16     H     0.41897  0.41897  0.00000  0.16206
      17     C     3.14907  3.14907  0.00000 -0.29815
      18     H     0.42302  0.42302  0.00000  0.15396
      19     H     0.42090  0.42090  0.00000  0.15819
      20     C     3.24151  3.24151  0.00000 -0.48303
      21     H     0.42130  0.42130  0.00000  0.15740
      22     H     0.42307  0.42307  0.00000  0.15387
      23     H     0.42277  0.42277  0.00000  0.15445
      24     H     0.41960  0.41960  0.00000  0.16079
      25     H     0.41858  0.41858  0.00000  0.16285

   Total alpha = 36.00000, Total beta = 36.00000, Total charge =  0.00000
