                              Psi4 1.0.54 Driver

  ==> Input File <==

--------------------------------------------------------------------------
set {
	reference rhf
	basis cc-pvtz
}

set_num_threads( 4 )
memory 2 gb

molecule MOL {
0 1

H	 2.614283	 2.028610	 0.296620
O	 3.358864	 1.662087	 -0.142800
C	 3.565468	 0.338079	 0.273842
C	 4.924343	 0.110359	 0.919045
H	 2.784269	 0.129173	 0.992220
H	 3.428210	 -0.347882	 -0.559866
C	 6.107297	 0.291575	 -0.029443
H	 5.024285	 0.787547	 1.762007
H	 4.937835	 -0.899527	 1.321968
C	 7.451989	 0.022800	 0.644649
H	 6.097430	 1.301284	 -0.426170
H	 5.993821	 -0.379682	 -0.879044
C	 8.668144	 0.117661	 -0.278511
H	 7.578291	 0.711642	 1.476376
H	 7.427418	 -0.972954	 1.078630
C	 8.969817	 1.518267	 -0.808642
H	 9.537820	 -0.240331	 0.265578
H	 8.536130	 -0.563234	 -1.116431
C	 10.247051	 1.579035	 -1.642542
H	 9.056916	 2.206861	 0.029046
H	 8.140826	 1.876143	 -1.411718
C	 10.549217	 2.975260	 -2.176531
H	 11.084365	 1.234625	 -1.041823
H	 10.165060	 0.885393	 -2.475129
H	 10.668918	 3.686750	 -1.366165
H	 11.462261	 2.983570	 -2.760815
H	 9.746665	 3.333546	 -2.812844

	symmetry c1
}
set optking {
	frozen_dihedral = ("
		4 3 2 1
	")
}

ee,wfn = optimize('scf', return_wfn=True)
oeprop( wfn, 'DIPOLE', 'QUADRUPOLE', 'MULLIKEN_CHARGES')
f=open( 'psi4out.xyz', 'w' )
f.write( "27  " )
f.write( str(ee) + "\n" )
f.write( MOL.save_string_xyz() )
f.close()
--------------------------------------------------------------------------

    Molecular point group: c1
  Charge       = 0
  Multiplicity = 1
  Basis Set: CC-PVTZ
  Basis Set:
  @DF-RHF Final Energy:  -388.42536269786905
    Total Energy =                       -388.4253626978688771
    Molecular point group: c1
  Basis Set: CC-PVTZ
  Basis Set:
  Basis Set: CC-PVTZ
  Basis Set:
  @DF-RHF Final Energy:  -388.41563905088594
    Total Energy =                       -388.4156390508863979
  Basis Set: CC-PVTZ
  Basis Set:
  Basis Set: CC-PVTZ
  Basis Set:
  @DF-RHF Final Energy:  -388.42655511049480
    Total Energy =                       -388.4265551104942915
  Basis Set: CC-PVTZ
  Basis Set:
  Basis Set: CC-PVTZ
  Basis Set:
  @DF-RHF Final Energy:  -388.41956140694685
    Total Energy =                       -388.4195614069466274
  Basis Set: CC-PVTZ
  Basis Set:
  Basis Set: CC-PVTZ
  Basis Set:
  @DF-RHF Final Energy:  -388.42676466242267
    Total Energy =                       -388.4267646624228973
  Basis Set: CC-PVTZ
  Basis Set:
  Basis Set: CC-PVTZ
  Basis Set:
  @DF-RHF Final Energy:  -388.42679515766270
    Total Energy =                       -388.4267951576622409
  Basis Set: CC-PVTZ
  Basis Set:
  Charge       = 0
  Multiplicity = 1
  Basis Set: CC-PVTZ
  Basis Set:

    Orbital Energies (a.u.)
    -----------------------

    Doubly Occupied:

       1A    -20.545173     2A    -11.266210     3A    -11.210073
       4A    -11.208400     5A    -11.207272     6A    -11.206526
       7A    -11.204894     8A    -11.204106     9A    -11.202378
      10A     -1.362630    11A     -1.089251    12A     -1.057322
      13A     -1.008635    14A     -0.943735    15A     -0.880670
      16A     -0.813681    17A     -0.796576    18A     -0.772115
      19A     -0.701156    20A     -0.647909    21A     -0.640608
      22A     -0.608513    23A     -0.590703    24A     -0.584605
      25A     -0.569087    26A     -0.547613    27A     -0.537489
      28A     -0.523123    29A     -0.506360    30A     -0.495437
      31A     -0.476044    32A     -0.468821    33A     -0.461588
      34A     -0.454745    35A     -0.445977    36A     -0.434716
      37A     -0.425208

  @DF-RHF Final Energy:  -388.42679567542081

   => Energetics <=

    Nuclear Repulsion Energy =            460.3145950814512730
    One-Electron Energy =               -1439.2840975325334512
    Two-Electron Energy =                 590.5427067756609176
    DFT Exchange-Correlation Energy =       0.0000000000000000
    Empirical Dispersion Energy =           0.0000000000000000
    PCM Polarization Energy =               0.0000000000000000
    EFP Energy =                            0.0000000000000000
    Total Energy =                       -388.4267956754213174
    Molecular point group: c1
  Basis Set: CC-PVTZ
  Basis Set:

  -Total Gradient:
     Atom            X                  Y                   Z
    ------   -----------------  -----------------  -----------------
       1       -0.000062450394     0.000034886738     0.000030874859
       2        0.000154311276    -0.000131774704    -0.000021904382
       3       -0.000105035806     0.000139873600     0.000000211239
       4        0.000054688268    -0.000047813291     0.000018723927
       5       -0.000024329035    -0.000047620446     0.000038964314
       6       -0.000000527094    -0.000017771188    -0.000030826696
       7       -0.000007378085    -0.000018287472     0.000047005443
       8       -0.000000904440     0.000006927953    -0.000007356296
       9       -0.000027113357    -0.000002284951    -0.000018858137
      10        0.000027720516     0.000087436416    -0.000031407222
      11       -0.000015495920     0.000009470131     0.000019136644
      12       -0.000006458035    -0.000002946580    -0.000026788362
      13       -0.000032184566    -0.000046106270    -0.000045193024
      14       -0.000011155585     0.000037005130     0.000008821082
      15        0.000004696901     0.000011490248     0.000007581872
      16        0.000030275573     0.000009392710     0.000002043631
      17       -0.000002627676    -0.000020587474     0.000003306406
      18        0.000000095308    -0.000021873788    -0.000029234103
      19       -0.000012324691    -0.000010636369     0.000024961899
      20       -0.000014482640     0.000034465615     0.000000968332
      21        0.000052589221    -0.000008074890     0.000002871248
      22        0.000007906712     0.000008613241    -0.000001412827
      23        0.000007543030    -0.000002836615     0.000006355163
      24       -0.000002920638    -0.000017149191    -0.000002251879
      25        0.000001894008     0.000015041936    -0.000000381598
      26       -0.000003072962     0.000000039274     0.000011713987
      27       -0.000013259894     0.000001120239    -0.000007925520

  **** Optimization is complete! (in 7 steps) ****
    Final optimized geometry and variables:
    Molecular point group: c1

    Geometry (in Angstrom), charge = 0, multiplicity = 1:

    H           -4.387542188758     0.701912555673    -0.415636791507
    O           -3.579424372878     0.247721532854    -0.554391344518
    C           -3.461366962676    -0.833956089578     0.338926007993
    C           -2.234235908824    -0.686920462275     1.222153588157
    H           -4.349181263315    -0.913579944326     0.958346316629
    H           -3.392088836224    -1.748832060161    -0.241726021982
    C           -0.922226025467    -0.666452634841     0.442700375155
    H           -2.330238526988     0.227203783052     1.801790674042
    H           -2.226801555772    -1.510937989008     1.932092691590
    C            0.297167648925    -0.486921145713     1.344997726090
    H           -0.967515669941     0.126138089635    -0.292878051573
    H           -0.823273434745    -1.598103785280    -0.110920429276
    C            1.645391683343    -0.551669153159     0.624902437197
    H            0.217794309139     0.462065418875     1.870599590077
    H            0.280645512952    -1.257801411749     2.111190397501
    C            1.917249366833     0.601840443515    -0.338889930502
    H            2.433236394826    -0.569973095171     1.373223027516
    H            1.718952768919    -1.494158495094     0.086900940241
    C            3.308716964349     0.543072321383    -0.963660443271
    H            1.803525269859     1.544975042587     0.191454900251
    H            1.176148476409     0.607557839845    -1.131800740803
    C            3.582669403102     1.692858772252    -1.927473185665
    H            4.057136403219     0.548090449782    -0.175775333832
    H            3.426441228092    -0.401405941251    -1.488232034856
    H            3.505419366156     2.651448146630    -1.424966689542
    H            4.577680387636     1.621859066658    -2.351990904150
    H            2.872440812137     1.693632961524    -2.747670030787

  Mulliken Charges: (a.u.)
   Center  Symbol    Alpha    Beta     Spin     Total
       1     H     0.39248  0.39248  0.00000  0.21503
       2     O     4.20396  4.20396  0.00000 -0.40791
       3     C     2.97781  2.97781  0.00000  0.04438
       4     C     3.08435  3.08435  0.00000 -0.16870
       5     H     0.46409  0.46409  0.00000  0.07182
       6     H     0.46728  0.46728  0.00000  0.06544
       7     C     3.09499  3.09499  0.00000 -0.18998
       8     H     0.45800  0.45800  0.00000  0.08399
       9     H     0.45597  0.45597  0.00000  0.08807
      10     C     3.09839  3.09839  0.00000 -0.19679
      11     H     0.44153  0.44153  0.00000  0.11695
      12     H     0.45713  0.45713  0.00000  0.08574
      13     C     3.09760  3.09760  0.00000 -0.19519
      14     H     0.45382  0.45382  0.00000  0.09235
      15     H     0.45032  0.45032  0.00000  0.09936
      16     C     3.08789  3.08789  0.00000 -0.17578
      17     H     0.44944  0.44944  0.00000  0.10112
      18     H     0.45442  0.45442  0.00000  0.09117
      19     C     3.08379  3.08379  0.00000 -0.16757
      20     H     0.45581  0.45581  0.00000  0.08837
      21     H     0.45149  0.45149  0.00000  0.09703
      22     C     3.14974  3.14974  0.00000 -0.29948
      23     H     0.45491  0.45491  0.00000  0.09019
      24     H     0.45507  0.45507  0.00000  0.08986
      25     H     0.45559  0.45559  0.00000  0.08881
      26     H     0.44921  0.44921  0.00000  0.10157
      27     H     0.45492  0.45492  0.00000  0.09015

   Total alpha = 37.00000, Total beta = 37.00000, Total charge = -0.00000

*** Psi4 exiting successfully. Buy a developer a beer!
