  ==> Input File <==

--------------------------------------------------------------------------
set {
	reference rhf
	basis 6-31G*
}

set_num_threads( 1 )
memory 2 gb

molecule MOL {
0 1

H	 -3.261111	 -0.295142	 1.469456
C	 -3.306842	 -0.277400	 0.373456
C	 -2.660244	 0.921717	 -0.272021
O	 -3.838538	 -1.161155	 -0.216482
C	 -2.142543	 1.936395	 0.756895
H	 -1.866445	 0.573514	 -0.922672
H	 -3.417506	 1.397244	 -0.894182
C	 -0.974854	 1.412414	 1.596683
H	 -1.833344	 2.833822	 0.229347
H	 -2.959696	 2.236442	 1.411103
C	 -0.461876	 2.437912	 2.609610
H	 -0.163285	 1.119142	 0.933965
H	 -1.275129	 0.508194	 2.122764
C	 0.716241	 1.916350	 3.436631
H	 -0.173321	 3.342189	 2.079750
H	 -1.273334	 2.720526	 3.278975
C	 1.211529	 2.878966	 4.522048
H	 1.542335	 1.670169	 2.771306
H	 0.421591	 0.982970	 3.911706
C	 1.834440	 4.170681	 3.990000
H	 1.949978	 2.360913	 5.128894
H	 0.388075	 3.123028	 5.190089
H	 2.651287	 3.956921	 3.305649
H	 1.111497	 4.782951	 3.461368
H	 2.233781	 4.768961	 4.803377

	symmetry c1
}
set optking {
	frozen_dihedral = ("
		6 3 5 8,
		3 5 8 12,
		12 8 11 14,
		8 11 14 18,
		20 17 14 18
	")
}

ee = energy('scf')
oeprop('DIPOLE', 'QUADRUPOLE', 'MULLIKEN_CHARGES')
f=open( 'psi4out.xyz', 'w' )
f.write( "25  " )
f.write( str(ee) + "\n" )
f.write( MOL.save_string_xyz() )
f.close()
--------------------------------------------------------------------------

    Molecular point group: c1

    Geometry (in Angstrom), charge = 0, multiplicity = 1:

       Center              X                  Y                   Z               Mass
    ------------   -----------------  -----------------  -----------------  -----------------
           H         -2.193535757591    -1.876127392431    -0.398146576509     1.007825032070
           C         -2.239266757591    -1.858385392431    -1.494146576509    12.000000000000
           C         -1.592668757591    -0.659268392431    -2.139623576509    12.000000000000
           O         -2.770962757591    -2.742140392431    -2.084084576509    15.994914619560
           C         -1.074967757591     0.355409607569    -1.110707576509    12.000000000000
           H         -0.798869757591    -1.007471392431    -2.790274576509     1.007825032070
           H         -2.349930757591    -0.183741392431    -2.761784576509     1.007825032070
           C          0.092721242409    -0.168571392431    -0.270919576509    12.000000000000
           H         -0.765768757591     1.252836607569    -1.638255576509     1.007825032070
           H         -1.892120757591     0.655456607569    -0.456499576509     1.007825032070
           C          0.605699242409     0.856926607569     0.742007423491    12.000000000000
           H          0.904290242409    -0.461843392431    -0.933637576509     1.007825032070
           H         -0.207553757591    -1.072791392431     0.255161423491     1.007825032070
           C          1.783816242409     0.335364607569     1.569028423491    12.000000000000
           H          0.894254242409     1.761203607569     0.212147423491     1.007825032070
           H         -0.205758757591     1.139540607569     1.411372423491     1.007825032070
           C          2.279104242409     1.297980607569     2.654445423491    12.000000000000
           H          2.609910242409     0.089183607569     0.903703423491     1.007825032070
           H          1.489166242409    -0.598015392431     2.044103423491     1.007825032070
           C          2.902015242409     2.589695607569     2.122397423491    12.000000000000
           H          3.017553242409     0.779927607569     3.261291423491     1.007825032070
           H          1.455650242409     1.542042607569     3.322486423491     1.007825032070
           H          3.718862242409     2.375935607569     1.438046423491     1.007825032070
           H          2.179072242409     3.201965607569     1.593765423491     1.007825032070
           H          3.301356242409     3.187975607569     2.935774423491     1.007825032070

  Charge       = 0
  Multiplicity = 1
  Basis Set: 6-31G*
  Basis Set:

    Orbital Energies (a.u.)
    -----------------------

    Doubly Occupied:

       1A    -20.560708     2A    -11.326174     3A    -11.235339
       4A    -11.233447     5A    -11.227474     6A    -11.222299
       7A    -11.220054     8A    -11.219419     9A    -11.212289
      10A     -1.401242    11A     -1.106406    12A     -1.071552
      13A     -1.014691    14A     -0.942984    15A     -0.875539
      16A     -0.826119    17A     -0.787675    18A     -0.784287
      19A     -0.664873    20A     -0.658017    21A     -0.634386
      22A     -0.626667    23A     -0.613037    24A     -0.597166
      25A     -0.566185    26A     -0.555079    27A     -0.542725
      28A     -0.523414    29A     -0.505719    30A     -0.502384
      31A     -0.489934    32A     -0.480951    33A     -0.467180
      34A     -0.461535    35A     -0.443265    36A     -0.407720

  @DF-RHF Final Energy:  -387.11947334785594

   => Energetics <=

    Nuclear Repulsion Energy =            436.9728881217221783
    One-Electron Energy =               -1390.1688076042330522
    Two-Electron Energy =                 566.0764461346567487
    DFT Exchange-Correlation Energy =       0.0000000000000000
    Empirical Dispersion Energy =           0.0000000000000000
    PCM Polarization Energy =               0.0000000000000000
    EFP Energy =                            0.0000000000000000
    Total Energy =                       -387.1194733478540684

  Mulliken Charges: (a.u.)
   Center  Symbol    Alpha    Beta     Spin     Total
       1     H     0.42984  0.42984  0.00000  0.14033
       2     C     2.83433  2.83433  0.00000  0.33134
       3     C     3.20637  3.20637  0.00000 -0.41274
       4     O     4.24198  4.24198  0.00000 -0.48397
       5     C     3.16928  3.16928  0.00000 -0.33856
       6     H     0.39843  0.39843  0.00000  0.20314
       7     H     0.39753  0.39753  0.00000  0.20495
       8     C     3.15721  3.15721  0.00000 -0.31443
       9     H     0.41303  0.41303  0.00000  0.17394
      10     H     0.41849  0.41849  0.00000  0.16302
      11     C     3.15350  3.15350  0.00000 -0.30700
      12     H     0.41964  0.41964  0.00000  0.16073
      13     H     0.42174  0.42174  0.00000  0.15652
      14     C     3.15309  3.15309  0.00000 -0.30619
      15     H     0.42001  0.42001  0.00000  0.15997
      16     H     0.42296  0.42296  0.00000  0.15408
      17     C     3.15281  3.15281  0.00000 -0.30562
      18     H     0.42329  0.42329  0.00000  0.15343
      19     H     0.42157  0.42157  0.00000  0.15686
      20     C     3.24145  3.24145  0.00000 -0.48290
      21     H     0.41990  0.41990  0.00000  0.16019
      22     H     0.42290  0.42290  0.00000  0.15420
      23     H     0.42191  0.42191  0.00000  0.15617
      24     H     0.42041  0.42041  0.00000  0.15917
      25     H     0.41831  0.41831  0.00000  0.16338

   Total alpha = 36.00000, Total beta = 36.00000, Total charge =  0.00000
