  ==> Input File <==

--------------------------------------------------------------------------
set {
	reference rhf
	basis 6-31G*
}

set_num_threads( 1 )
memory 2 gb

molecule MOL {
0 1

H	 -0.753037	 -1.297773	 0.757818
N	 -0.626943	 -0.667432	 -0.000092
C	 -1.624718	 -0.647029	 -1.045437
C	 0.469286	 0.129090	 0.000148
H	 -1.703439	 -1.616377	 -1.526243
H	 -1.328783	 0.084686	 -1.779429
H	 -2.597422	 -0.374997	 -0.649362
C	 1.788933	 -0.616240	 -0.000037
O	 0.411098	 1.327768	 -0.000049
H	 1.872803	 -1.245775	 -0.880381
H	 2.595421	 0.101576	 0.003713
H	 1.870096	 -1.252171	 0.875943

	symmetry c1
}
set optking {
	frozen_dihedral = ("
		4 2 3 5
	")
}

ee = energy('scf')
oeprop('DIPOLE', 'QUADRUPOLE', 'MULLIKEN_CHARGES')
f=open( 'psi4out.xyz', 'w' )
f.write( "12  " )
f.write( str(ee) + "\n" )
f.write( MOL.save_string_xyz() )
f.close()
--------------------------------------------------------------------------

    Molecular point group: c1

    Geometry (in Angstrom), charge = 0, multiplicity = 1:

       Center              X                  Y                   Z               Mass
    ------------   -----------------  -----------------  -----------------  -----------------
           H         -0.826321729779    -1.196977777632     0.973674980540     1.007825032070
           N         -0.700227729779    -0.566636777632     0.215764980540    14.003074004780
           C         -1.698002729779    -0.546233777632    -0.829580019460    12.000000000000
           C          0.396001270221     0.229885222368     0.216004980540    12.000000000000
           H         -1.776723729779    -1.515581777632    -1.310386019460     1.007825032070
           H         -1.402067729779     0.185481222368    -1.563572019460     1.007825032070
           H         -2.670706729779    -0.274201777632    -0.433505019460     1.007825032070
           C          1.715648270221    -0.515444777632     0.215819980540    12.000000000000
           O          0.337813270221     1.428563222368     0.215807980540    15.994914619560
           H          1.799518270221    -1.144979777632    -0.664524019460     1.007825032070
           H          2.522136270221     0.202371222368     0.219569980540     1.007825032070
           H          1.796811270221    -1.151375777632     1.091799980540     1.007825032070

  Charge       = 0
  Multiplicity = 1
  Basis Set: 6-31G*
  Basis Set:

    Orbital Energies (a.u.)
    -----------------------

    Doubly Occupied:

       1A    -20.537731     2A    -15.555552     3A    -11.346286
       4A    -11.259063     5A    -11.225482     6A     -1.393343
       7A     -1.221717     8A     -1.008891     9A     -0.934158
      10A     -0.783143    11A     -0.685413    12A     -0.646676
      13A     -0.639515    14A     -0.586845    15A     -0.582174
      16A     -0.561422    17A     -0.548792    18A     -0.491464
      19A     -0.422002    20A     -0.372706

  @DF-RHF Final Energy:  -246.97472131187149

   => Energetics <=

    Nuclear Repulsion Energy =            180.9128952030835364
    One-Electron Energy =                -694.1704547060297728
    Two-Electron Energy =                 266.2828381910748590
    DFT Exchange-Correlation Energy =       0.0000000000000000
    Empirical Dispersion Energy =           0.0000000000000000
    PCM Polarization Energy =               0.0000000000000000
    EFP Energy =                            0.0000000000000000
    Total Energy =                       -246.9747213118714058

  Mulliken Charges: (a.u.)
   Center  Symbol    Alpha    Beta     Spin     Total
       1     H     0.31094  0.31094  0.00000  0.37812
       2     N     3.89930  3.89930  0.00000 -0.79860
       3     C     3.13267  3.13267  0.00000 -0.26534
       4     C     2.65480  2.65480  0.00000  0.69039
       5     H     0.41902  0.41902  0.00000  0.16196
       6     H     0.40371  0.40371  0.00000  0.19257
       7     H     0.41451  0.41451  0.00000  0.17098
       8     C     3.28023  3.28023  0.00000 -0.56045
       9     O     4.26524  4.26524  0.00000 -0.53048
      10     H     0.40666  0.40666  0.00000  0.18669
      11     H     0.39994  0.39994  0.00000  0.20012
      12     H     0.41298  0.41298  0.00000  0.17404

   Total alpha = 20.00000, Total beta = 20.00000, Total charge = -0.00000
