  ==> Input File <==

--------------------------------------------------------------------------
set {
	reference rhf
	basis 6-31G*
}

set_num_threads( 4 )
memory 2 gb

molecule MOL {
0 1

H	 -1.033919	 -1.177482	 0.389366
N	 -1.172117	 -0.314371	 -0.100254
C	 -0.024542	 0.565565	 0.069209
H	 -1.296331	 -0.546369	 -1.067634
C	 1.271298	 -0.229563	 -0.014192
H	 -0.049409	 1.297310	 -0.731596
H	 -0.046881	 1.125219	 1.006750
H	 1.332152	 -0.753033	 -0.961461
H	 2.134169	 0.422483	 0.080702
H	 1.326077	 -0.968298	 0.781395

	symmetry c1
}
set optking {
	frozen_dihedral = ("
		1 2 3 6
	")
}

ee = optimize('scf')
oeprop('DIPOLE', 'QUADRUPOLE', 'MULLIKEN_CHARGES')
f=open( 'psi4out.xyz', 'w' )
f.write( "10  " )
f.write( str(ee) + "\n" )
f.write( MOL.save_string_xyz() )
f.close()
--------------------------------------------------------------------------

    Molecular point group: c1
  Charge       = 0
  Multiplicity = 1
  Basis Set: 6-31G*
  Basis Set:
  @DF-RHF Final Energy:  -134.24457103369463
    Total Energy =                       -134.2445710336946831
    Molecular point group: c1
  Basis Set: 6-31G*
  Basis Set:
  Basis Set: 6-31G*
  Basis Set:
  @DF-RHF Final Energy:  -134.24616349360420
    Total Energy =                       -134.2461634936042572
  Basis Set: 6-31G*
  Basis Set:
  Basis Set: 6-31G*
  Basis Set:
  @DF-RHF Final Energy:  -134.24640407164532
    Total Energy =                       -134.2464040716452587
  Basis Set: 6-31G*
  Basis Set:
  Charge       = 0
  Multiplicity = 1
  Basis Set: 6-31G*
  Basis Set:

    Orbital Energies (a.u.)
    -----------------------

    Doubly Occupied:

       1A    -15.533585     2A    -11.243097     3A    -11.212092
       4A     -1.177320     5A     -0.988507     6A     -0.832364
       7A     -0.672361     8A     -0.599092     9A     -0.581116
      10A     -0.554525    11A     -0.507080    12A     -0.485259
      13A     -0.381902

  @DF-RHF Final Energy:  -134.24640571335715

   => Energetics <=

    Nuclear Repulsion Energy =             83.1904573441142929
    One-Electron Energy =                -345.3371223419702005
    Two-Electron Energy =                 127.9002592844987021
    DFT Exchange-Correlation Energy =       0.0000000000000000
    Empirical Dispersion Energy =           0.0000000000000000
    PCM Polarization Energy =               0.0000000000000000
    EFP Energy =                            0.0000000000000000
    Total Energy =                       -134.2464057133572055
    Molecular point group: c1
  Basis Set: 6-31G*
  Basis Set:

  -Total Gradient:
     Atom            X                  Y                   Z
    ------   -----------------  -----------------  -----------------
       1        0.001239074598    -0.001201372671    -0.002596363674
       2       -0.001029860058     0.001295538109     0.002815993698
       3       -0.001537634744     0.001723608388     0.001470700931
       4        0.000018455809     0.000056650061     0.000027523363
       5        0.000045367982    -0.000059372500    -0.000033887648
       6        0.001345038522    -0.001827492356    -0.001695709253
       7       -0.000057219465    -0.000005587175     0.000000259787
       8        0.000009770324    -0.000007606858     0.000012778595
       9       -0.000017435912     0.000018220761    -0.000000918667
      10       -0.000015557058     0.000007414240    -0.000000377133

  **** Optimization is complete! (in 4 steps) ****
    Final optimized geometry and variables:
    Molecular point group: c1

    Geometry (in Angstrom), charge = 0, multiplicity = 1:

    H           -1.112695112047    -1.141057384710     0.423147402411
    N           -1.230859494195    -0.268634169380    -0.057084479874
    C           -0.037364373080     0.557179059311     0.079755084545
    H           -1.376953166432    -0.504406109167    -1.020063623998
    C            1.286541713668    -0.205429777625     0.012378656374
    H           -0.056893206262     1.295200287076    -0.715220803068
    H           -0.097680463882     1.098258992802     1.018392908247
    H            1.389651070122    -0.725319514546    -0.936428201034
    H            2.132788759905     0.467205421848     0.120124601154
    H            1.350034472113    -0.945602886540     0.806178805438

  Mulliken Charges: (a.u.)
   Center  Symbol    Alpha    Beta     Spin     Total
       1     H     0.33551  0.33551  0.00000  0.32898
       2     N     3.91635  3.91635  0.00000 -0.83270
       3     C     3.06247  3.06247  0.00000 -0.12494
       4     H     0.33511  0.33511  0.00000  0.32979
       5     C     3.24617  3.24617  0.00000 -0.49234
       6     H     0.42021  0.42021  0.00000  0.15959
       7     H     0.41706  0.41706  0.00000  0.16589
       8     H     0.42368  0.42368  0.00000  0.15265
       9     H     0.42009  0.42009  0.00000  0.15982
      10     H     0.42337  0.42337  0.00000  0.15327

   Total alpha = 13.00000, Total beta = 13.00000, Total charge =  0.00000
