  ==> Input File <==

--------------------------------------------------------------------------
set {
	reference rhf
	basis 6-31G*
}

set_num_threads( 1 )
memory 2 gb

molecule MOL {
0 1

H	 -1.359830	 1.345070	 -0.175291
C	 -0.790252	 0.431209	 0.000000
N	 0.538815	 0.649616	 0.000000
O	 -1.324952	 -0.624696	 0.168432
C	 1.521968	 -0.411503	 0.000000
H	 0.852804	 1.592852	 0.000000
H	 2.150599	 -0.357004	 -0.881901
H	 0.999455	 -1.354525	 0.000000
H	 2.150599	 -0.357004	 0.881901

	symmetry c1
}
set optking {
	frozen_dihedral = ("
		6 3 5 7
	")
}

ee = energy('scf')
oeprop('DIPOLE', 'QUADRUPOLE', 'MULLIKEN_CHARGES')
f=open( 'psi4out.xyz', 'w' )
f.write( "9  " )
f.write( str(ee) + "\n" )
f.write( MOL.save_string_xyz() )
f.close()
--------------------------------------------------------------------------

    Molecular point group: c1

    Geometry (in Angstrom), charge = 0, multiplicity = 1:

       Center              X                  Y                   Z               Mass
    ------------   -----------------  -----------------  -----------------  -----------------
           H         -1.359225320878     1.341388828574    -0.217931851494     1.007825032070
           C         -0.789647320878     0.427527828574    -0.042640851494    12.000000000000
           N          0.539419679122     0.645934828574    -0.042640851494    14.003074004780
           O         -1.324347320878    -0.628377171426     0.125791148506    15.994914619560
           C          1.522572679122    -0.415184171426    -0.042640851494    12.000000000000
           H          0.853408679122     1.589170828574    -0.042640851494     1.007825032070
           H          2.151203679122    -0.360685171426    -0.924541851494     1.007825032070
           H          1.000059679122    -1.358206171426    -0.042640851494     1.007825032070
           H          2.151203679122    -0.360685171426     0.839260148506     1.007825032070

  Charge       = 0
  Multiplicity = 1
  Basis Set: 6-31G*
  Basis Set:

    Orbital Energies (a.u.)
    -----------------------

    Doubly Occupied:

       1A    -20.525928     2A    -15.590384     3A    -11.344494
       4A    -11.260341     5A     -1.389122     6A     -1.236401
       7A     -0.968650     8A     -0.807458     9A     -0.746124
      10A     -0.641671    11A     -0.626892    12A     -0.593830
      13A     -0.554120    14A     -0.536785    15A     -0.423936
      16A     -0.389955

  @DF-RHF Final Energy:  -207.95980170625683

   => Energetics <=

    Nuclear Repulsion Energy =            122.4185751667478712
    One-Electron Energy =                -525.4846043378042850
    Two-Electron Energy =                 195.1062274647996162
    DFT Exchange-Correlation Energy =       0.0000000000000000
    Empirical Dispersion Energy =           0.0000000000000000
    PCM Polarization Energy =               0.0000000000000000
    EFP Energy =                            0.0000000000000000
    Total Energy =                       -207.9598017062567976

  Mulliken Charges: (a.u.)
   Center  Symbol    Alpha    Beta     Spin     Total
       1     H     0.42768  0.42768  0.00000  0.14464
       2     C     2.74499  2.74499  0.00000  0.51001
       3     N     3.87544  3.87544  0.00000 -0.75088
       4     O     4.28338  4.28338  0.00000 -0.56676
       5     C     3.14443  3.14443  0.00000 -0.28885
       6     H     0.30958  0.30958  0.00000  0.38084
       7     H     0.41425  0.41425  0.00000  0.17149
       8     H     0.38636  0.38636  0.00000  0.22728
       9     H     0.41389  0.41389  0.00000  0.17222

   Total alpha = 16.00000, Total beta = 16.00000, Total charge =  0.00000
