  ==> Input File <==

--------------------------------------------------------------------------
set {
	reference rhf
	basis cc-pvtz
}

set_num_threads( 4 )
memory 2 gb

molecule MOL {
0 1

H	 -2.816458	 -0.841657	 -0.064679
N	 -1.878861	 -0.711874	 0.250184
C	 -1.341419	 0.551458	 -0.220231
H	 -1.333674	 -1.468530	 -0.105118
C	 0.168576	 0.542862	 -0.153243
H	 -1.638686	 0.796304	 -1.239165
H	 -1.704637	 1.344641	 0.423963
O	 0.653261	 -0.415203	 -1.044813
H	 0.555703	 1.526741	 -0.414564
H	 0.488133	 0.308783	 0.859683
C	 2.033381	 -0.570895	 -1.029041
H	 2.290713	 -1.329054	 -1.754548
H	 2.540978	 0.353809	 -1.295429
H	 2.386878	 -0.887594	 -0.050621

	symmetry c1
}
set optking {
	frozen_dihedral = ("
		6 3 2 4
	")
}

ee = optimize('scf')
oeprop('DIPOLE', 'QUADRUPOLE', 'MULLIKEN_CHARGES')
f=open( 'psi4out.xyz', 'w' )
f.write( "14  " )
f.write( str(ee) + "\n" )
f.write( MOL.save_string_xyz() )
f.close()
--------------------------------------------------------------------------

    Molecular point group: c1
  Charge       = 0
  Multiplicity = 1
  Basis Set: CC-PVTZ
  Basis Set:
  @DF-RHF Final Energy:  -248.22515415242074
    Total Energy =                       -248.2251541524206573
    Molecular point group: c1
  Basis Set: CC-PVTZ
  Basis Set:
  Basis Set: CC-PVTZ
  Basis Set:
  @DF-RHF Final Energy:  -248.22525555663552
    Total Energy =                       -248.2252555566354317
  Basis Set: CC-PVTZ
  Basis Set:
  Basis Set: CC-PVTZ
  Basis Set:
  @DF-RHF Final Energy:  -248.22526657540124
    Total Energy =                       -248.2252665754011218
  Basis Set: CC-PVTZ
  Basis Set:
  Charge       = 0
  Multiplicity = 1
  Basis Set: CC-PVTZ
  Basis Set:

    Orbital Energies (a.u.)
    -----------------------

    Doubly Occupied:

       1A    -20.553179     2A    -15.521342     3A    -11.266921
       4A    -11.265601     5A    -11.239697     6A     -1.387061
       7A     -1.174605     8A     -1.001503     9A     -0.909736
      10A     -0.817651    11A     -0.688673    12A     -0.673935
      13A     -0.651192    14A     -0.616339    15A     -0.600138
      16A     -0.547007    17A     -0.533050    18A     -0.499749
      19A     -0.474431    20A     -0.422502    21A     -0.380893

  @DF-RHF Final Energy:  -248.22526726892104

   => Energetics <=

    Nuclear Repulsion Energy =            194.7728677758888409
    One-Electron Energy =                -723.5458562298640572
    Two-Electron Energy =                 280.5477211850541721
    DFT Exchange-Correlation Energy =       0.0000000000000000
    Empirical Dispersion Energy =           0.0000000000000000
    PCM Polarization Energy =               0.0000000000000000
    EFP Energy =                            0.0000000000000000
    Total Energy =                       -248.2252672689210726
    Molecular point group: c1
  Basis Set: CC-PVTZ
  Basis Set:

  -Total Gradient:
     Atom            X                  Y                   Z
    ------   -----------------  -----------------  -----------------
       1       -0.000002245660     0.000015035473    -0.000013844920
       2       -0.003012747997     0.000256972686    -0.002605573676
       3        0.003461752783    -0.001724822021    -0.000880586731
       4        0.001872873980     0.000085282133     0.002403826433
       5       -0.000074564121    -0.000001623959    -0.000010004347
       6       -0.002261717308     0.001364430187     0.001092361751
       7       -0.000008333365    -0.000001944939     0.000021958291
       8        0.000012417694     0.000022727475     0.000018644803
       9        0.000019988076    -0.000006381423    -0.000015921075
      10       -0.000006379004    -0.000011250676    -0.000013690084
      11       -0.000004992231     0.000006201487    -0.000003096177
      12        0.000003700753    -0.000002364533     0.000001531114
      13       -0.000001664102    -0.000001684350     0.000001604602
      14        0.000001910505    -0.000000577539     0.000002790016

  **** Optimization is complete! (in 4 steps) ****
    Final optimized geometry and variables:
    Molecular point group: c1

    Geometry (in Angstrom), charge = 0, multiplicity = 1:

    H           -2.778598328675    -0.681230269953     0.412865001646
    N           -1.826541248338    -0.571242140843     0.685543617536
    C           -1.278089192805     0.692369724106     0.228122356670
    H           -1.302422115595    -1.330832686245     0.307434791195
    C            0.231282717139     0.679963072168     0.293826134293
    H           -1.592617104799     0.957720205996    -0.779824300642
    H           -1.629427811735     1.484953326144     0.881776414320
    O            0.722839767236    -0.285848467634    -0.585156450869
    H            0.617289154875     1.662138166133     0.027096113266
    H            0.550366040925     0.456629043095     1.310064224753
    C            2.105495072769    -0.421394612853    -0.576505028603
    H            2.368224623311    -1.190602466048    -1.288175787929
    H            2.597359987303     0.504808142129    -0.865554675105
    H            2.470814025338    -0.712580490642     0.405587932340

  Mulliken Charges: (a.u.)
   Center  Symbol    Alpha    Beta     Spin     Total
       1     H     0.42967  0.42967  0.00000  0.14066
       2     N     3.69677  3.69677  0.00000 -0.39353
       3     C     3.01510  3.01510  0.00000 -0.03020
       4     H     0.42230  0.42230  0.00000  0.15539
       5     C     2.97522  2.97522  0.00000  0.04956
       6     H     0.46487  0.46487  0.00000  0.07026
       7     H     0.46239  0.46239  0.00000  0.07522
       8     O     4.17934  4.17934  0.00000 -0.35868
       9     H     0.46744  0.46744  0.00000  0.06512
      10     H     0.46723  0.46723  0.00000  0.06554
      11     C     3.03253  3.03253  0.00000 -0.06506
      12     H     0.44716  0.44716  0.00000  0.10568
      13     H     0.47011  0.47011  0.00000  0.05978
      14     H     0.46987  0.46987  0.00000  0.06027

   Total alpha = 21.00000, Total beta = 21.00000, Total charge = -0.00000
