                              Psi4 1.0.54 Driver

  ==> Input File <==

--------------------------------------------------------------------------
set {
	reference rhf
	basis cc-pvtz
}

set_num_threads( 4 )
memory 2 gb

molecule MOL {
0 1

H	 2.867672	 -0.456275	 0.875795
C	 2.403497	 -0.020426	 0.000000
N	 0.989899	 -0.304564	 0.000000
H	 2.867672	 -0.456275	 -0.875795
H	 2.620366	 1.051270	 0.000000
C	 0.401572	 -0.185759	 1.318076
C	 0.685001	 -1.595831	 -0.580719
H	 0.852441	 -0.891945	 2.022180
H	 0.577453	 0.813858	 1.698285
C	 -1.091736	 -0.440945	 1.246287
H	 1.068843	 -1.630830	 -1.593718
H	 1.157188	 -2.408076	 -0.019433
C	 -0.815590	 -1.814787	 -0.603720
H	 -1.523895	 -0.445163	 2.237170
H	 -1.567707	 0.346713	 0.665644
O	 -1.364044	 -1.685938	 0.674459
H	 -1.048139	 -2.812069	 -0.950093
H	 -1.277270	 -1.098221	 -1.280096

	symmetry c1
}
set optking {
	frozen_dihedral = ("
		6 3 2 5
	")
}

ee,wfn = optimize('scf', return_wfn=True)
oeprop( wfn, 'DIPOLE', 'QUADRUPOLE', 'MULLIKEN_CHARGES')
f=open( 'psi4out.xyz', 'w' )
f.write( "18  " )
f.write( str(ee) + "\n" )
f.write( MOL.save_string_xyz() )
f.close()
--------------------------------------------------------------------------

    Molecular point group: c1
  Charge       = 0
  Multiplicity = 1
  Basis Set: CC-PVTZ
  Basis Set:
  @DF-RHF Final Energy:  -325.14326390999236
    Total Energy =                       -325.1432639099921857
    Molecular point group: c1
  Basis Set: CC-PVTZ
  Basis Set:
  Basis Set: CC-PVTZ
  Basis Set:
  @DF-RHF Final Energy:  -325.14400665264861
    Total Energy =                       -325.1440066526488977
  Basis Set: CC-PVTZ
  Basis Set:
  Basis Set: CC-PVTZ
  Basis Set:
  @DF-RHF Final Energy:  -325.14408470198157
    Total Energy =                       -325.1440847019814555
  Basis Set: CC-PVTZ
  Basis Set:
  Charge       = 0
  Multiplicity = 1
  Basis Set: CC-PVTZ
  Basis Set:

    Orbital Energies (a.u.)
    -----------------------

    Doubly Occupied:

       1A    -20.547440     2A    -15.544818     3A    -11.264214
       4A    -11.264184     5A    -11.242550     6A    -11.242398
       7A    -11.238956     8A     -1.386445     9A     -1.233239
      10A     -1.038771    11A     -0.981878    12A     -0.883468
      13A     -0.869845    14A     -0.775185    15A     -0.685006
      16A     -0.646173    17A     -0.644737    18A     -0.633481
      19A     -0.631616    20A     -0.574218    21A     -0.556343
      22A     -0.544145    23A     -0.526070    24A     -0.501201
      25A     -0.483353    26A     -0.453773    27A     -0.410487
      28A     -0.357026

  @DF-RHF Final Energy:  -325.14408642191529

   => Energetics <=

    Nuclear Repulsion Energy =            341.8575289438809932
    One-Electron Energy =               -1119.6811960691891272
    Two-Electron Energy =                 452.6795807033925598
    DFT Exchange-Correlation Energy =       0.0000000000000000
    Empirical Dispersion Energy =           0.0000000000000000
    PCM Polarization Energy =               0.0000000000000000
    EFP Energy =                            0.0000000000000000
    Total Energy =                       -325.1440864219155742
    Molecular point group: c1
  Basis Set: CC-PVTZ
  Basis Set:

  -Total Gradient:
     Atom            X                  Y                   Z
    ------   -----------------  -----------------  -----------------
       1        0.000043285097    -0.000030954819     0.000042616668
       2        0.000166279434    -0.001099149312     0.005680723319
       3       -0.000752419619     0.004224923226    -0.001804608237
       4        0.000004476984     0.000004338685     0.000002106662
       5       -0.000011006343    -0.000026216500    -0.004371095322
       6        0.000647028789    -0.003100985182     0.000456727712
       7       -0.000017225056     0.000127192361    -0.000079018042
       8        0.000017754063    -0.000006749552    -0.000012150421
       9       -0.000005965582     0.000008803614     0.000050501855
      10       -0.000042232426     0.000008693265     0.000004741843
      11        0.000003520403    -0.000037762803    -0.000010069332
      12       -0.000015952479     0.000009163448     0.000005307246
      13       -0.000008436625    -0.000057017067    -0.000024992980
      14       -0.000012550731    -0.000019591641    -0.000005488134
      15       -0.000001160360     0.000011832731     0.000006058795
      16       -0.000008052855    -0.000004214237     0.000044914554
      17       -0.000025556152    -0.000009222687     0.000005363951
      18        0.000018213458    -0.000003083529     0.000008359863

  **** Optimization is complete! (in 4 steps) ****
    Final optimized geometry and variables:
    Molecular point group: c1

    Geometry (in Angstrom), charge = 0, multiplicity = 1:

    H            2.758847628383     0.396409726452     0.517821232639
    C            2.231770330386     0.843520453666    -0.326328514436
    N            0.813240249826     0.562925306009    -0.321442138579
    H            2.675358326184     0.456127077465    -1.235011023252
    H            2.404269129985     1.913379682561    -0.330119414483
    C            0.240383528786     0.690940338379     1.003833430654
    C            0.499324796040    -0.743054541791    -0.869427714995
    H            0.697317709393    -0.016900196310     1.701587940193
    H            0.429403485398     1.690100908718     1.380877930597
    C           -1.255403621123     0.446316097163     0.955455826699
    H            0.871282456239    -0.803181343707    -1.885290267735
    H            0.971292208906    -1.545746326667    -0.294524677871
    C           -1.002721173866    -0.955408164547    -0.876186170231
    H           -1.673515434718     0.456778340762     1.952418313040
    H           -1.734153483478     1.230539961337     0.372408984073
    O           -1.542861641171    -0.803759238976     0.402896116109
    H           -1.242104669414    -1.956925344893    -1.205632058194
    H           -1.464890572304    -0.247288076478    -1.561219365588

  Mulliken Charges: (a.u.)
   Center  Symbol    Alpha    Beta     Spin     Total
       1     H     0.46704  0.46704  0.00000  0.06592
       2     C     3.09459  3.09459  0.00000 -0.18918
       3     N     3.61867  3.61867  0.00000 -0.23735
       4     H     0.45430  0.45430  0.00000  0.09139
       5     H     0.44917  0.44917  0.00000  0.10165
       6     C     3.04224  3.04224  0.00000 -0.08448
       7     C     3.03966  3.03966  0.00000 -0.07933
       8     H     0.46773  0.46773  0.00000  0.06453
       9     H     0.45402  0.45402  0.00000  0.09195
      10     C     2.98359  2.98359  0.00000  0.03283
      11     H     0.45392  0.45392  0.00000  0.09217
      12     H     0.46954  0.46954  0.00000  0.06092
      13     C     2.98418  2.98418  0.00000  0.03165
      14     H     0.44991  0.44991  0.00000  0.10019
      15     H     0.46750  0.46750  0.00000  0.06501
      16     O     4.18648  4.18648  0.00000 -0.37295
      17     H     0.44978  0.44978  0.00000  0.10044
      18     H     0.46768  0.46768  0.00000  0.06464

   Total alpha = 28.00000, Total beta = 28.00000, Total charge = -0.00000

*** Psi4 exiting successfully. Buy a developer a beer!
