  ==> Input File <==

--------------------------------------------------------------------------
set {
	reference rhf
	basis 6-31G*
}

set_num_threads( 4 )
memory 2 gb

molecule MOL {
0 1

O	 -2.821601	 1.309235	 -0.001213
C	 -2.668563	 0.129746	 -0.000350
C	 -3.801572	 -0.864014	 -0.000442
O	 -1.481751	 -0.454642	 0.000584
H	 -4.417280	 -0.689587	 -0.874708
H	 -3.443784	 -1.883046	 -0.000565
H	 -4.417179	 -0.689832	 0.873954
C	 -0.334255	 0.388708	 0.000906
C	 0.891947	 -0.504646	 0.000751
H	 -0.365390	 1.025305	 -0.873475
H	 -0.365484	 1.024911	 0.875569
C	 2.191998	 0.301789	 0.000897
H	 0.855148	 -1.151283	 -0.871571
H	 0.855132	 -1.151660	 0.872805
C	 3.409431	 -0.530257	 -0.406394
H	 2.094803	 1.148744	 -0.676086
H	 2.360126	 0.720695	 0.991520
C	 4.707688	 0.275593	 -0.407529
H	 3.243255	 -0.949337	 -1.396259
H	 3.509411	 -1.375782	 0.270482
H	 4.650969	 1.109774	 -1.101027
H	 5.551858	 -0.340799	 -0.700230
H	 4.919303	 0.679829	 0.578281

	symmetry c1
}
set optking {
	frozen_dihedral = ("
		16 12 9 13
	")
}

ee = optimize('scf')
oeprop('DIPOLE', 'QUADRUPOLE', 'MULLIKEN_CHARGES')
f=open( 'psi4out.xyz', 'w' )
f.write( "23  " )
f.write( str(ee) + "\n" )
f.write( MOL.save_string_xyz() )
f.close()
--------------------------------------------------------------------------

    Molecular point group: c1
  Charge       = 0
  Multiplicity = 1
  Basis Set: 6-31G*
  Basis Set:
  @DF-RHF Final Energy:  -422.97860756269273
    Total Energy =                       -422.9786075626931279
    Molecular point group: c1
  Basis Set: 6-31G*
  Basis Set:
  Basis Set: 6-31G*
  Basis Set:
  @DF-RHF Final Energy:  -422.97870265153995
    Total Energy =                       -422.9787026515394928
  Basis Set: 6-31G*
  Basis Set:
  Basis Set: 6-31G*
  Basis Set:
  @DF-RHF Final Energy:  -422.97873606878375
    Total Energy =                       -422.9787360687832916
  Basis Set: 6-31G*
  Basis Set:
  Basis Set: 6-31G*
  Basis Set:
  @DF-RHF Final Energy:  -422.97874992791708
    Total Energy =                       -422.9787499279171925
  Basis Set: 6-31G*
  Basis Set:
  Basis Set: 6-31G*
  Basis Set:
  @DF-RHF Final Energy:  -422.97874206179864
    Total Energy =                       -422.9787420617986982
  Basis Set: 6-31G*
  Basis Set:
  Basis Set: 6-31G*
  Basis Set:
  @DF-RHF Final Energy:  -422.97875041094755
    Total Energy =                       -422.9787504109469864
  Basis Set: 6-31G*
  Basis Set:
  Charge       = 0
  Multiplicity = 1
  Basis Set: 6-31G*
  Basis Set:

    Orbital Energies (a.u.)
    -----------------------

    Doubly Occupied:

       1A    -20.603122     2A    -20.540636     3A    -11.374184
       4A    -11.281807     5A    -11.232439     6A    -11.224320
       7A    -11.223734     8A    -11.221944     9A    -11.213019
      10A     -1.468103    11A     -1.360862    12A     -1.093953
      13A     -1.042399    14A     -1.003460    15A     -0.930973
      16A     -0.842057    17A     -0.803047    18A     -0.774859
      19A     -0.691531    20A     -0.685146    21A     -0.668607
      22A     -0.645065    23A     -0.606631    24A     -0.588505
      25A     -0.582268    26A     -0.566901    27A     -0.558763
      28A     -0.537242    29A     -0.523383    30A     -0.504980
      31A     -0.490944    32A     -0.478259    33A     -0.469398
      34A     -0.466564    35A     -0.451237    36A     -0.435424

  @DF-RHF Final Energy:  -422.97875047950504

   => Energetics <=

    Nuclear Repulsion Energy =            449.6070671989518814
    One-Electron Energy =               -1466.8001034583785440
    Two-Electron Energy =                 594.2142857799221929
    DFT Exchange-Correlation Energy =       0.0000000000000000
    Empirical Dispersion Energy =           0.0000000000000000
    PCM Polarization Energy =               0.0000000000000000
    EFP Energy =                            0.0000000000000000
    Total Energy =                       -422.9787504795044697
    Molecular point group: c1
  Basis Set: 6-31G*
  Basis Set:

  -Total Gradient:
     Atom            X                  Y                   Z
    ------   -----------------  -----------------  -----------------
       1       -0.000001710982     0.000002210118    -0.000012466520
       2        0.000003107274    -0.000003042514     0.000031400367
       3       -0.000000481332     0.000000525229    -0.000005783493
       4       -0.000009615631     0.000000431374    -0.000012366752
       5       -0.000000867521    -0.000002035407    -0.000001327164
       6        0.000000063817    -0.000000140997    -0.000000759327
       7        0.000001021828     0.000002076196    -0.000001358756
       8        0.000001163243    -0.000001952544     0.000020353895
       9       -0.001697187051     0.002772349251    -0.001254290340
      10        0.000002127786    -0.000002811363    -0.000000728666
      11       -0.000005381953     0.000003091702    -0.000000555561
      12        0.001457603760    -0.002299374578    -0.002130875607
      13        0.001179668128    -0.001944306759     0.001379859087
      14       -0.000005694205     0.000005074690    -0.000003417812
      15        0.000006660826     0.000001978175     0.000008842153
      16       -0.000940675320     0.001471665643     0.001986991576
      17        0.000005619941    -0.000002357294    -0.000004841660
      18        0.000003632436    -0.000004346704     0.000001811799
      19       -0.000006663501     0.000003993478     0.000002725426
      20        0.000006618277    -0.000004323449    -0.000001300719
      21       -0.000000166585    -0.000001299650    -0.000002127234
      22        0.000002156554     0.000001101012     0.000001263105
      23       -0.000000999788     0.000001494391    -0.000001047797

  **** Optimization is complete! (in 7 steps) ****
    Final optimized geometry and variables:
    Molecular point group: c1

    Geometry (in Angstrom), charge = 0, multiplicity = 1:

    O           -2.820088025317     1.295819066512     0.100965430664
    C           -2.665268002992     0.116602382350     0.110430198077
    C           -3.796335989788    -0.878505105822     0.151275854573
    O           -1.477927615838    -0.466293395119     0.086125467000
    H           -4.435796961107    -0.713849351986    -0.707690927337
    H           -3.437122000765    -1.897036932825     0.151929843831
    H           -4.388251226859    -0.696078690617     1.040229988831
    C           -0.332372574277     0.378406783922     0.046346657389
    C            0.895008295947    -0.511361676431     0.022471090158
    H           -0.387724498310     1.005501238718    -0.833529886353
    H           -0.340354840379     1.024184046918     0.914753246781
    C            2.197685455307     0.294629921225     0.043528891501
    H            0.861860195713    -1.154293460100    -0.852899418698
    H            0.862619690786    -1.175016624895     0.882242743776
    C            3.426749775020    -0.537350372010    -0.323074649537
    H            2.116770561995     1.148848037790    -0.627085864749
    H            2.335812369391     0.718307544061     1.036728721621
    C            4.729337441791     0.257440169693    -0.244993921152
    H            3.304261057351    -0.933812513483    -1.328362008416
    H            3.487682980120    -1.398185643969     0.339340511388
    H            4.709750029585     1.109210428900    -0.918919103228
    H            5.581421102979    -0.358333527625    -0.515148317529
    H            4.899105935556     0.635032230636     0.759255988695

  Mulliken Charges: (a.u.)
   Center  Symbol    Alpha    Beta     Spin     Total
       1     O     4.28387  4.28387  0.00000 -0.56775
       2     C     2.61533  2.61533  0.00000  0.76934
       3     C     3.28775  3.28775  0.00000 -0.57550
       4     O     4.31261  4.31261  0.00000 -0.62523
       5     H     0.39748  0.39748  0.00000  0.20504
       6     H     0.39984  0.39984  0.00000  0.20032
       7     H     0.39749  0.39749  0.00000  0.20502
       8     C     2.99622  2.99622  0.00000  0.00756
       9     C     3.16512  3.16512  0.00000 -0.33025
      10     H     0.41034  0.41034  0.00000  0.17933
      11     H     0.41062  0.41062  0.00000  0.17875
      12     C     3.16050  3.16050  0.00000 -0.32099
      13     H     0.41442  0.41442  0.00000  0.17116
      14     H     0.41363  0.41363  0.00000  0.17273
      15     C     3.15177  3.15177  0.00000 -0.30353
      16     H     0.42113  0.42113  0.00000  0.15775
      17     H     0.41997  0.41997  0.00000  0.16006
      18     C     3.24006  3.24006  0.00000 -0.48011
      19     H     0.42115  0.42115  0.00000  0.15770
      20     H     0.42124  0.42124  0.00000  0.15752
      21     H     0.42069  0.42069  0.00000  0.15862
      22     H     0.41797  0.41797  0.00000  0.16406
      23     H     0.42080  0.42080  0.00000  0.15840

   Total alpha = 36.00000, Total beta = 36.00000, Total charge = -0.00000
