  ==> Input File <==

--------------------------------------------------------------------------
set {
	reference rhf
	basis 6-31G*
}

set_num_threads( 4 )
memory 2 gb

molecule MOL {
0 1

O	 1.846825	 1.296220	 0.000415
C	 1.705091	 0.115954	 0.001797
C	 0.381791	 -0.609817	 0.001258
O	 2.721346	 -0.737485	 -0.000216
C	 -0.823008	 0.326187	 0.001381
H	 0.371250	 -1.265087	 -0.865474
H	 0.370908	 -1.265746	 0.867490
C	 -2.149452	 -0.435131	 -0.000098
H	 -0.770201	 0.977095	 -0.865636
H	 -0.771220	 0.975655	 0.869608
C	 -3.368779	 0.488503	 -0.000883
H	 -2.193746	 -1.087250	 -0.871175
H	 -2.195311	 -1.087803	 0.870418
C	 -4.608587	 -0.160753	 -0.614555
H	 -3.129745	 1.398516	 -0.546668
H	 -3.588504	 0.794104	 1.019640
H	 -4.431267	 -0.446523	 -1.647564
H	 -5.455503	 0.518205	 -0.600364
H	 -4.893410	 -1.056066	 -0.069028
C	 4.024888	 -0.184556	 -0.001949
H	 4.179030	 0.422472	 -0.882452
H	 4.701782	 -1.024608	 -0.003642
H	 4.181981	 0.421185	 0.878906

	symmetry c1
}
set optking {
	frozen_dihedral = ("
		15 11 8 12
	")
}

ee = optimize('scf')
oeprop('DIPOLE', 'QUADRUPOLE', 'MULLIKEN_CHARGES')
f=open( 'psi4out.xyz', 'w' )
f.write( "23  " )
f.write( str(ee) + "\n" )
f.write( MOL.save_string_xyz() )
f.close()
--------------------------------------------------------------------------

    Molecular point group: c1
  Charge       = 0
  Multiplicity = 1
  Basis Set: 6-31G*
  Basis Set:
  @DF-RHF Final Energy:  -422.97404175823584
    Total Energy =                       -422.9740417582358987
    Molecular point group: c1
  Basis Set: 6-31G*
  Basis Set:
  Basis Set: 6-31G*
  Basis Set:
  @DF-RHF Final Energy:  -422.97423066105341
    Total Energy =                       -422.9742306610543210
  Basis Set: 6-31G*
  Basis Set:
  Basis Set: 6-31G*
  Basis Set:
  @DF-RHF Final Energy:  -422.97406535344936
    Total Energy =                       -422.9740653534502144
  Basis Set: 6-31G*
  Basis Set:
  Basis Set: 6-31G*
  Basis Set:
  @DF-RHF Final Energy:  -422.97432647852821
    Total Energy =                       -422.9743264785274732
  Basis Set: 6-31G*
  Basis Set:
  Basis Set: 6-31G*
  Basis Set:
  @DF-RHF Final Energy:  -422.97433096851893
    Total Energy =                       -422.9743309685192116
  Basis Set: 6-31G*
  Basis Set:
  Charge       = 0
  Multiplicity = 1
  Basis Set: 6-31G*
  Basis Set:

    Orbital Energies (a.u.)
    -----------------------

    Doubly Occupied:

       1A    -20.603685     2A    -20.545492     3A    -11.372334
       4A    -11.280888     5A    -11.235571     6A    -11.219692
       7A    -11.217683     8A    -11.216249     9A    -11.210002
      10A     -1.469388    11A     -1.362840    12A     -1.092732
      13A     -1.043212    14A     -0.987198    15A     -0.932194
      16A     -0.844215    17A     -0.795598    18A     -0.767464
      19A     -0.696973    20A     -0.683712    21A     -0.671692
      22A     -0.648631    23A     -0.609250    24A     -0.599677
      25A     -0.573336    26A     -0.563606    27A     -0.551901
      28A     -0.524095    29A     -0.521463    30A     -0.507189
      31A     -0.486540    32A     -0.471196    33A     -0.462126
      34A     -0.460957    35A     -0.455108    36A     -0.435554

  @DF-RHF Final Energy:  -422.97433124086905

   => Energetics <=

    Nuclear Repulsion Energy =            452.1218172220654310
    One-Electron Energy =               -1471.9534152686474044
    Two-Electron Energy =                 596.8572668057126975
    DFT Exchange-Correlation Energy =       0.0000000000000000
    Empirical Dispersion Energy =           0.0000000000000000
    PCM Polarization Energy =               0.0000000000000000
    EFP Energy =                            0.0000000000000000
    Total Energy =                       -422.9743312408693328
    Molecular point group: c1
  Basis Set: 6-31G*
  Basis Set:

  -Total Gradient:
     Atom            X                  Y                   Z
    ------   -----------------  -----------------  -----------------
       1       -0.000001876003    -0.000013905499    -0.000023032270
       2        0.000007308119     0.000003945653     0.000067338744
       3        0.000009760610     0.000009912003    -0.000051896253
       4       -0.000000562962     0.000003992270    -0.000018355069
       5       -0.000026048996    -0.000028322216     0.000034653131
       6       -0.000013685743    -0.000017926775    -0.000005703460
       7        0.000009282856     0.000024460099    -0.000007915118
       8        0.002884835723     0.003902347809    -0.001892491651
       9       -0.000026643140     0.000009775993     0.000013228208
      10       -0.000000683488    -0.000011798366     0.000014013778
      11       -0.002249236551    -0.002827814006    -0.003837364311
      12       -0.002000514822    -0.002811959987     0.002203907590
      13       -0.000019408867    -0.000022460440     0.000012196196
      14        0.000007693310     0.000030392193     0.000017168434
      15        0.001384015605     0.001728209894     0.003441966702
      16        0.000013064378     0.000019754813     0.000013799588
      17        0.000008819202     0.000006762956     0.000012636527
      18       -0.000002083191    -0.000002710084     0.000001079788
      19        0.000013483957    -0.000001780515     0.000004297638
      20       -0.000000894143    -0.000001605683     0.000005054271
      21        0.000001866318     0.000000760651    -0.000001436961
      22        0.000002417066     0.000000457517    -0.000002050850
      23       -0.000000909238    -0.000000488278    -0.000001094652

  **** Optimization is complete! (in 6 steps) ****
    Final optimized geometry and variables:
    Molecular point group: c1

    Geometry (in Angstrom), charge = 0, multiplicity = 1:

    O            1.843193477226     1.282529642876     0.062906289075
    C            1.700311656889     0.102468046164     0.073176390820
    C            0.376317798010    -0.621936538478     0.060817953303
    O            2.715458559102    -0.751899970384     0.097144810379
    C           -0.827035482621     0.315216035693     0.034368568332
    H            0.376892171070    -1.285515151154    -0.799714074272
    H            0.352354340938    -1.269366943700     0.933056199416
    C           -2.153627645866    -0.442455542963     0.011228360053
    H           -0.758278895995     0.962490794598    -0.834080676136
    H           -0.791665408085     0.968660954163     0.900832681401
    C           -3.381306861689     0.478023000848     0.050257873983
    H           -2.207205316501    -1.090508941773    -0.862279886943
    H           -2.198228969478    -1.118813051834     0.863965069511
    C           -4.649546271153    -0.177392039739    -0.490657595440
    H           -3.169135818750     1.397819701112    -0.490056022794
    H           -3.550525097059     0.789843769659     1.078824060039
    H           -4.538804535523    -0.438463344920    -1.539208690349
    H           -5.504412187655     0.485675299594    -0.402043313814
    H           -4.880624858164    -1.089182792257     0.053399511978
    C            4.019514057541    -0.200247376650     0.110805378575
    H            4.188871962332     0.396847439462    -0.773679112762
    H            4.695408050678    -1.040951606087     0.129474231752
    H            4.162739850933     0.414977118848     0.987443789390

  Mulliken Charges: (a.u.)
   Center  Symbol    Alpha    Beta     Spin     Total
       1     O     4.28609  4.28609  0.00000 -0.57219
       2     C     2.60493  2.60493  0.00000  0.79014
       3     C     3.20848  3.20848  0.00000 -0.41696
       4     O     4.30735  4.30735  0.00000 -0.61470
       5     C     3.15308  3.15308  0.00000 -0.30617
       6     H     0.40049  0.40049  0.00000  0.19903
       7     H     0.40055  0.40055  0.00000  0.19890
       8     C     3.15496  3.15496  0.00000 -0.30991
       9     H     0.41117  0.41117  0.00000  0.17767
      10     H     0.41159  0.41159  0.00000  0.17682
      11     C     3.15275  3.15275  0.00000 -0.30551
      12     H     0.42331  0.42331  0.00000  0.15338
      13     H     0.42338  0.42338  0.00000  0.15324
      14     C     3.23985  3.23985  0.00000 -0.47969
      15     H     0.42003  0.42003  0.00000  0.15994
      16     H     0.42123  0.42123  0.00000  0.15754
      17     H     0.42131  0.42131  0.00000  0.15738
      18     H     0.41872  0.41872  0.00000  0.16256
      19     H     0.42173  0.42173  0.00000  0.15653
      20     C     3.09245  3.09245  0.00000 -0.18491
      21     H     0.40906  0.40906  0.00000  0.18187
      22     H     0.40842  0.40842  0.00000  0.18317
      23     H     0.40907  0.40907  0.00000  0.18187

   Total alpha = 36.00000, Total beta = 36.00000, Total charge =  0.00000
