                              Psi4 1.0.54 Driver

  ==> Input File <==

--------------------------------------------------------------------------
set {
	reference rhf
	basis cc-pvtz
}

set_num_threads( 4 )
memory 2 gb

molecule MOL {
0 1

H	 -2.653840	 0.613891	 -0.734347
C	 -1.895279	 1.131199	 -1.306361
C	 -0.607369	 0.324235	 -1.360314
H	 -1.731981	 2.092019	 -0.836922
H	 -2.275737	 1.299043	 -2.306853
C	 0.000000	 0.039916	 0.000014
H	 0.144089	 0.835381	 -1.956080
H	 -0.769724	 -0.629905	 -1.854430
C	 1.286532	 -0.763243	 0.000268
O	 -0.502101	 0.423546	 1.005550
C	 2.547023	 0.087626	 -0.000114
H	 1.264245	 -1.421103	 -0.864380
H	 1.264290	 -1.420353	 0.865489
H	 2.584452	 0.725630	 -0.872909
H	 3.427035	 -0.544422	 0.000125
H	 2.584484	 0.726356	 0.872143

	symmetry c1
}
set optking {
	frozen_dihedral = ("
		3 6 9 12
	")
}

ee,wfn = optimize('scf', return_wfn=True)
oeprop( wfn, 'DIPOLE', 'QUADRUPOLE', 'MULLIKEN_CHARGES')
f=open( 'psi4out.xyz', 'w' )
f.write( "16  " )
f.write( str(ee) + "\n" )
f.write( MOL.save_string_xyz() )
f.close()
--------------------------------------------------------------------------

    Molecular point group: c1
  Charge       = 0
  Multiplicity = 1
  Basis Set: CC-PVTZ
  Basis Set:
  @DF-RHF Final Energy:  -270.12902871075300
    Total Energy =                       -270.1290287107530617
    Molecular point group: c1
  Basis Set: CC-PVTZ
  Basis Set:
  Basis Set: CC-PVTZ
  Basis Set:
  @DF-RHF Final Energy:  -270.12542793182809
    Total Energy =                       -270.1254279318280282
  Basis Set: CC-PVTZ
  Basis Set:
  Basis Set: CC-PVTZ
  Basis Set:
  @DF-RHF Final Energy:  -270.12971328013623
    Total Energy =                       -270.1297132801362864
  Basis Set: CC-PVTZ
  Basis Set:
  Basis Set: CC-PVTZ
  Basis Set:
  @DF-RHF Final Energy:  -270.12245032604272
    Total Energy =                       -270.1224503260429515
  Basis Set: CC-PVTZ
  Basis Set:
  @DF-RHF Final Energy:  -270.12441393252988
    Total Energy =                       -270.1244139325300466
  @DF-RHF Final Energy:  -270.12876646650398
    Total Energy =                       -270.1287664665038051
  Basis Set: CC-PVTZ
  Basis Set:
  @DF-RHF Final Energy:  -270.12962144213657
    Total Energy =                       -270.1296214421363402
  Basis Set: CC-PVTZ
  Basis Set:
  Basis Set: CC-PVTZ
  Basis Set:
  @DF-RHF Final Energy:  -270.12992966134289
    Total Energy =                       -270.1299296613426577
  Basis Set: CC-PVTZ
  Basis Set:
  Basis Set: CC-PVTZ
  Basis Set:
  @DF-RHF Final Energy:  -270.12994142749500
    Total Energy =                       -270.1299414274949413
  Basis Set: CC-PVTZ
  Basis Set:
  Charge       = 0
  Multiplicity = 1
  Basis Set: CC-PVTZ
  Basis Set:

    Orbital Energies (a.u.)
    -----------------------

    Doubly Occupied:

       1A    -20.537519     2A    -11.317105     3A    -11.232671
       4A    -11.230431     5A    -11.225745     6A    -11.211804
       7A     -1.397706     8A     -1.072649     9A     -1.037526
      10A     -0.912815    11A     -0.856602    12A     -0.727851
      13A     -0.665886    14A     -0.644705    15A     -0.625437
      16A     -0.603934    17A     -0.566978    18A     -0.540355
      19A     -0.533484    20A     -0.511941    21A     -0.503755
      22A     -0.499531    23A     -0.481042    24A     -0.398275

  @DF-RHF Final Energy:  -270.12994213629440

   => Energetics <=

    Nuclear Repulsion Energy =            241.0265220299445730
    One-Electron Energy =                -843.6414381728629905
    Two-Electron Energy =                 332.4849740066241566
    DFT Exchange-Correlation Energy =       0.0000000000000000
    Empirical Dispersion Energy =           0.0000000000000000
    PCM Polarization Energy =               0.0000000000000000
    EFP Energy =                            0.0000000000000000
    Total Energy =                       -270.1299421362942894
    Molecular point group: c1
  Basis Set: CC-PVTZ
  Basis Set:

  -Total Gradient:
     Atom            X                  Y                   Z
    ------   -----------------  -----------------  -----------------
       1       -0.000004254669     0.000007577753    -0.000000222972
       2       -0.000014188511    -0.000045105723     0.000025854202
       3        0.000101923282     0.000391006769    -0.000061114372
       4        0.000000567601     0.000012343436    -0.000001834590
       5        0.000008620839     0.000002786945    -0.000000311703
       6       -0.000095491673    -0.000518511074     0.000174241459
       7       -0.000003391795    -0.000021048472    -0.000011870681
       8        0.000000414773    -0.000027961419     0.000010629227
       9        0.000007664349     0.000539887012    -0.000274067696
      10        0.000006415323    -0.000013741950    -0.000061945688
      11        0.000015282843    -0.000010470575    -0.000017795047
      12       -0.000014439003    -0.000321807884     0.000229860014
      13        0.000002458736    -0.000000158149    -0.000012775386
      14       -0.000000690553     0.000005786812     0.000002136147
      15       -0.000002239061     0.000006075007     0.000000349380
      16       -0.000008652481    -0.000006658488    -0.000001132291

  **** Optimization is complete! (in 10 steps) ****
    Final optimized geometry and variables:
    Molecular point group: c1

    Geometry (in Angstrom), charge = 0, multiplicity = 1:

    H           -2.816685380010    -0.177957971387     0.281196525063
    C           -2.344478196076     0.388261981945    -0.509812846151
    C           -0.987371943792    -0.198853947126    -0.863367965944
    H           -2.247663661147     1.409987081590    -0.166166105079
    H           -2.996124428842     0.379570658574    -1.375354411429
    C           -0.011625103462    -0.246195986373     0.294180274004
    H           -0.521600311810     0.351620963784    -1.675995315131
    H           -1.090958504600    -1.218373434596    -1.228124651101
    C            1.415868725341    -0.646807611316    -0.025794574458
    O           -0.333303197660     0.032001595338     1.403580491524
    C            2.281407267563     0.583451911182    -0.315443670997
    H            1.434534680563    -1.321334760466    -0.874570635996
    H            1.806950285337    -1.173233832252     0.834522787209
    H            1.916200034866     1.137149018549    -1.172992268441
    H            3.300862683828     0.285560364553    -0.525342772232
    H            2.291603307502     1.249653248732     0.537525778992

  Mulliken Charges: (a.u.)
   Center  Symbol    Alpha    Beta     Spin     Total
       1     H     0.44581  0.44581  0.00000  0.10839
       2     C     3.14113  3.14113  0.00000 -0.28227
       3     C     3.10607  3.10607  0.00000 -0.21215
       4     H     0.44956  0.44956  0.00000  0.10089
       5     H     0.45073  0.45073  0.00000  0.09855
       6     C     2.86204  2.86204  0.00000  0.27591
       7     H     0.44520  0.44520  0.00000  0.10959
       8     H     0.44492  0.44492  0.00000  0.11016
       9     C     3.09593  3.09593  0.00000 -0.19186
      10     O     4.17751  4.17751  0.00000 -0.35503
      11     C     3.14925  3.14925  0.00000 -0.29849
      12     H     0.44959  0.44959  0.00000  0.10083
      13     H     0.43858  0.43858  0.00000  0.12284
      14     H     0.45431  0.45431  0.00000  0.09138
      15     H     0.44604  0.44604  0.00000  0.10792
      16     H     0.44333  0.44333  0.00000  0.11334

   Total alpha = 24.00000, Total beta = 24.00000, Total charge = -0.00000

*** Psi4 exiting successfully. Buy a developer a beer!
