                              Psi4 1.0.54 Driver

  ==> Input File <==

--------------------------------------------------------------------------
set {
	reference rhf
	basis cc-pvtz
}

set_num_threads( 4 )
memory 2 gb

molecule MOL {
0 1

H	 1.967495	 -0.875311	 1.199407
C	 1.948365	 -0.217889	 0.320155
C	 0.692447	 0.592412	 0.156202
O	 2.872555	 -0.188621	 -0.416493
C	 -0.554469	 -0.292637	 0.086537
H	 0.792043	 1.203678	 -0.731081
H	 0.617564	 1.254342	 1.016504
C	 -1.846200	 0.513179	 -0.016376
H	 -0.473801	 -0.956131	 -0.769738
H	 -0.597744	 -0.929231	 0.966621
C	 -3.089768	 -0.365065	 -0.098594
H	 -1.798082	 1.154804	 -0.891173
H	 -1.925213	 1.173249	 0.842859
H	 -3.054894	 -1.012315	 -0.968275
H	 -3.988218	 0.236422	 -0.170044
H	 -3.182870	 -0.995901	 0.779049

	symmetry c1
}
ee,wfn = energy('scf', return_wfn=True)
oeprop( wfn, 'DIPOLE', 'QUADRUPOLE', 'MULLIKEN_CHARGES')
oeprop( wfn, 'GRID_ESP')
f=open( 'psi4out.xyz', 'w' )
f.write( "16  " )
f.write( str(ee) + "\n" )
f.write( MOL.save_string_xyz() )
f.close()
--------------------------------------------------------------------------

    Molecular point group: c1

    Geometry (in Angstrom), charge = 0, multiplicity = 1:

       Center              X                  Y                   Z               Mass
    ------------   -----------------  -----------------  -----------------  -----------------
           H          1.967309814727    -0.875294893756     1.199437007893     1.007825032070
           C          1.948179814727    -0.217872893756     0.320185007893    12.000000000000
           C          0.692261814727     0.592428106244     0.156232007893    12.000000000000
           O          2.872369814727    -0.188604893756    -0.416462992107    15.994914619560
           C         -0.554654185273    -0.292620893756     0.086567007893    12.000000000000
           H          0.791857814727     1.203694106244    -0.731050992107     1.007825032070
           H          0.617378814727     1.254358106244     1.016534007893     1.007825032070
           C         -1.846385185273     0.513195106244    -0.016345992107    12.000000000000
           H         -0.473986185273    -0.956114893756    -0.769707992107     1.007825032070
           H         -0.597929185273    -0.929214893756     0.966651007893     1.007825032070
           C         -3.089953185273    -0.365048893756    -0.098563992107    12.000000000000
           H         -1.798267185273     1.154820106244    -0.891142992107     1.007825032070
           H         -1.925398185273     1.173265106244     0.842889007893     1.007825032070
           H         -3.055079185273    -1.012298893756    -0.968244992107     1.007825032070
           H         -3.988403185273     0.236438106244    -0.170013992107     1.007825032070
           H         -3.183055185273    -0.995884893756     0.779079007893     1.007825032070

  Charge       = 0
  Multiplicity = 1
  Basis Set: CC-PVTZ
  Basis Set:

    Orbital Energies (a.u.)
    -----------------------

    Doubly Occupied:

       1A    -20.552102     2A    -11.321307     3A    -11.234684
       4A    -11.233969     5A    -11.227516     6A    -11.216705
       7A     -1.406872     8A     -1.097983     9A     -1.020198
      10A     -0.906870    11A     -0.812618    12A     -0.794019
      13A     -0.681013    14A     -0.649247    15A     -0.634237
      16A     -0.604602    17A     -0.582742    18A     -0.552429
      19A     -0.530228    20A     -0.510250    21A     -0.488678
      22A     -0.483081    23A     -0.480179    24A     -0.411576

  @DF-RHF Final Energy:  -270.11924600384930

   => Energetics <=

    Nuclear Repulsion Energy =            229.3692386824835694
    One-Electron Energy =                -820.1107879498426882
    Two-Electron Energy =                 320.6223032635098207
    DFT Exchange-Correlation Energy =       0.0000000000000000
    Empirical Dispersion Energy =           0.0000000000000000
    PCM Polarization Energy =               0.0000000000000000
    EFP Energy =                            0.0000000000000000
    Total Energy =                       -270.1192460038492982

  Mulliken Charges: (a.u.)
   Center  Symbol    Alpha    Beta     Spin     Total
       1     H     0.46535  0.46535  0.00000  0.06930
       2     C     2.90932  2.90932  0.00000  0.18137
       3     C     3.07659  3.07659  0.00000 -0.15319
       4     O     4.16414  4.16414  0.00000 -0.32827
       5     C     3.10225  3.10225  0.00000 -0.20450
       6     H     0.44244  0.44244  0.00000  0.11513
       7     H     0.45016  0.45016  0.00000  0.09967
       8     C     3.08462  3.08462  0.00000 -0.16924
       9     H     0.44577  0.44577  0.00000  0.10846
      10     H     0.45198  0.45198  0.00000  0.09604
      11     C     3.14906  3.14906  0.00000 -0.29812
      12     H     0.45064  0.45064  0.00000  0.09872
      13     H     0.45329  0.45329  0.00000  0.09341
      14     H     0.45320  0.45320  0.00000  0.09359
      15     H     0.44663  0.44663  0.00000  0.10674
      16     H     0.45455  0.45455  0.00000  0.09089

   Total alpha = 24.00000, Total beta = 24.00000, Total charge =  0.00000

*** Psi4 exiting successfully. Buy a developer a beer!
