                              Psi4 1.0.54 Driver

  ==> Input File <==

--------------------------------------------------------------------------
set {
	reference rhf
	basis cc-pvtz
}

set_num_threads( 4 )
memory 2 gb

molecule MOL {
0 1

H	 -4.381933	 -0.934200	 -0.563045
C	 -3.511121	 -0.713508	 0.019440
C	 -2.325326	 -0.998850	 -0.459950
H	 -3.633968	 -0.260884	 0.983722
O	 -1.189946	 -0.765863	 0.237511
H	 -2.190278	 -1.444701	 -1.428509
C	 0.026572	 -0.995256	 -0.379403
C	 1.057223	 0.049888	 -0.004615
H	 -0.054361	 -1.010670	 -1.459674
H	 0.397526	 -1.952058	 -0.044198
F	 2.203233	 -0.234060	 -0.590375
F	 0.698147	 1.254887	 -0.392621
F	 1.266440	 0.094219	 1.288722

	symmetry c1
}
set optking {
	frozen_dihedral = ("
		3 5 7 9
	")
}

ee,wfn = optimize('scf', return_wfn=True)
oeprop( wfn, 'DIPOLE', 'QUADRUPOLE', 'MULLIKEN_CHARGES')
f=open( 'psi4out.xyz', 'w' )
f.write( "13  " )
f.write( str(ee) + "\n" )
f.write( MOL.save_string_xyz() )
f.close()
--------------------------------------------------------------------------

    Molecular point group: c1
  Charge       = 0
  Multiplicity = 1
  Basis Set: CC-PVTZ
  Basis Set:
  @DF-RHF Final Energy:  -527.74013578868676
    Total Energy =                       -527.7401357886867572
    Molecular point group: c1
  Basis Set: CC-PVTZ
  Basis Set:
  Basis Set: CC-PVTZ
  Basis Set:
  @DF-RHF Final Energy:  -527.74083519655846
    Total Energy =                       -527.7408351965586917
  Basis Set: CC-PVTZ
  Basis Set:
  Basis Set: CC-PVTZ
  Basis Set:
  @DF-RHF Final Energy:  -527.74104815249643
    Total Energy =                       -527.7410481524964325
  Basis Set: CC-PVTZ
  Basis Set:
  Basis Set: CC-PVTZ
  Basis Set:
  @DF-RHF Final Energy:  -527.74113279051744
    Total Energy =                       -527.7411327905178950
  Basis Set: CC-PVTZ
  Basis Set:
  @DF-RHF Final Energy:  -527.74121034043469
    Total Energy =                       -527.7412103404346908
  Basis Set: CC-PVTZ
  Basis Set:
  @DF-RHF Final Energy:  -527.74127020583342
    Total Energy =                       -527.7412702058335299
  Basis Set: CC-PVTZ
  Basis Set:
  Basis Set: CC-PVTZ
  Basis Set:
  @DF-RHF Final Energy:  -527.74131485457758
    Total Energy =                       -527.7413148545780359
  Basis Set: CC-PVTZ
  Basis Set:
  Basis Set: CC-PVTZ
  Basis Set:
  @DF-RHF Final Energy:  -527.74132354943595
    Total Energy =                       -527.7413235494357195
  Basis Set: CC-PVTZ
  Basis Set:
  Charge       = 0
  Multiplicity = 1
  Basis Set: CC-PVTZ
  Basis Set:

    Orbital Energies (a.u.)
    -----------------------

    Doubly Occupied:

       1A    -26.340082     2A    -26.337232     3A    -26.336405
       4A    -20.603286     5A    -11.497587     6A    -11.319951
       7A    -11.301073     8A    -11.217195     9A     -1.748685
      10A     -1.644871    11A     -1.643419    12A     -1.445228
      13A     -1.091005    14A     -1.019930    15A     -0.930401
      16A     -0.844439    17A     -0.838373    18A     -0.813868
      19A     -0.806186    20A     -0.730129    21A     -0.719208
      22A     -0.706070    23A     -0.683814    24A     -0.665163
      25A     -0.660064    26A     -0.648649    27A     -0.639189
      28A     -0.589976    29A     -0.564599    30A     -0.531588
      31A     -0.514690    32A     -0.360129

  @DF-RHF Final Energy:  -527.74132449049546

   => Energetics <=

    Nuclear Repulsion Energy =            408.4718768205026436
    One-Electron Energy =               -1540.8414300463223299
    Two-Electron Energy =                 604.6282287353237734
    DFT Exchange-Correlation Energy =       0.0000000000000000
    Empirical Dispersion Energy =           0.0000000000000000
    PCM Polarization Energy =               0.0000000000000000
    EFP Energy =                            0.0000000000000000
    Total Energy =                       -527.7413244904960266
    Molecular point group: c1
  Basis Set: CC-PVTZ
  Basis Set:

  -Total Gradient:
     Atom            X                  Y                   Z
    ------   -----------------  -----------------  -----------------
       1       -0.000016639763    -0.000002668776    -0.000012125632
       2        0.000020735961    -0.000000545409     0.000014366241
       3        0.000109946322     0.000341880008    -0.000146531645
       4       -0.000021659965     0.000008050932    -0.000007583284
       5       -0.000059018573    -0.000672660830     0.000288372190
       6       -0.000016969906     0.000004609834    -0.000022571004
       7        0.000120706553     0.000758966163    -0.000167725910
       8       -0.000084882650     0.000020275986     0.000007228587
       9       -0.000118849197    -0.000462583572     0.000028751734
      10       -0.000007463191    -0.000002114308     0.000010485731
      11        0.000001283521     0.000002739453     0.000008911544
      12        0.000033669207     0.000008046642    -0.000009889500
      13        0.000039141670    -0.000003996123     0.000008310950

  **** Optimization is complete! (in 9 steps) ****
    Final optimized geometry and variables:
    Molecular point group: c1

    Geometry (in Angstrom), charge = 0, multiplicity = 1:

    H           -4.309489971643    -0.836246760726    -0.509547513518
    C           -3.443279628068    -0.708990719587     0.107039613403
    C           -2.258481811587    -0.643102422101    -0.449902436376
    H           -3.571231988554    -0.622022783403     1.168083114900
    O           -1.132468685271    -0.432095386871     0.264268443769
    H           -2.120214969972    -0.727301581115    -1.513337640801
    C            0.079465858858    -0.791479286806    -0.300498413138
    C            1.105039645126     0.274466662949     0.009899936004
    H            0.020082794721    -0.884288898435    -1.377684629018
    H            0.435165176595    -1.728168704242     0.111047498758
    F            2.267953731581    -0.077962963565    -0.502148273002
    F            0.775312023568     1.435220971582    -0.507639598570
    F            1.269791214600     0.441639039314     1.299950357375

  Mulliken Charges: (a.u.)
   Center  Symbol    Alpha    Beta     Spin     Total
       1     H     0.42491  0.42491  0.00000  0.15017
       2     C     3.19452  3.19452  0.00000 -0.38903
       3     C     2.96627  2.96627  0.00000  0.06747
       4     H     0.42363  0.42363  0.00000  0.15275
       5     O     4.14231  4.14231  0.00000 -0.28462
       6     H     0.43524  0.43524  0.00000  0.12952
       7     C     3.00254  3.00254  0.00000 -0.00507
       8     C     2.67463  2.67463  0.00000  0.65074
       9     H     0.45927  0.45927  0.00000  0.08146
      10     H     0.44882  0.44882  0.00000  0.10236
      11     F     4.61261  4.61261  0.00000 -0.22521
      12     F     4.60868  4.60868  0.00000 -0.21736
      13     F     4.60659  4.60659  0.00000 -0.21317

   Total alpha = 32.00000, Total beta = 32.00000, Total charge =  0.00000

*** Psi4 exiting successfully. Buy a developer a beer!
